INSANE! Membrane UpperLeaflet>loPI:POPI:DPPI:PYPI:ERGO=180.0:5.0:3.0:2.0:10.0 LowerLeaflet>loPI:POPI:DPPI:PYPI:ERGO=180.0:5.0:3.0:2.0:10.0
49303
    1loPI    C1    1  17.160  15.859  11.542  0.0523  0.0814  0.0614
    1loPI    C2    2  16.917  15.605  11.734  0.0984  0.0335  0.0570
    1loPI    C3    3  17.310  15.598  11.806  0.0847  0.1907  0.1513
    1loPI   PO4    4  17.105  15.812  11.314  0.0328 -0.1504  0.0271
    1loPI   GL1    5  17.035  16.024  10.922 -0.1178 -0.2252 -0.0005
    1loPI   GL2    6  16.870  15.753  10.855 -0.0175 -0.1353 -0.0406
    1loPI   C1A    7  17.364  16.143  10.635 -0.3418 -0.2051 -0.0997
    1loPI   C2A    8  17.557  16.161  10.309  0.1525  0.0536  0.1488
    1loPI   C3A    9  17.359  16.075   9.906 -0.1183  0.0904  0.1573
    1loPI   C4A   10  17.382  16.182   9.417  0.2116  0.2271 -0.0207
    1loPI   C5A   11  17.444  16.200   8.905  0.0648  0.1871  0.3372
    1loPI   C6A   12  17.237  16.147   8.528 -0.1829 -0.3212  0.0033
    1loPI   C1B   13  16.904  15.888  10.410 -0.0665 -0.2179  0.2892
    1loPI   C2B   14  16.880  15.900   9.919  0.1417  0.0376 -0.0808
    1loPI   C3B   15  16.983  15.903   9.467  0.2602  0.0594 -0.1063
    1loPI   C4B   16  16.936  15.941   9.068  0.2469  0.3086 -0.0472
    2loPI    C1   17   7.768   8.475  11.180  0.0879  0.1779 -0.0545
    2loPI    C2   18   8.110   8.418  11.379  0.0751  0.0202 -0.0764
    2loPI    C3   19   7.764   8.438  11.578  0.0833  0.0541 -0.0656
    2loPI   PO4   20   7.776   8.400  11.034  0.1783 -0.0550  0.1902
    2loPI   GL1   21   7.883   8.484  10.665  0.1680  0.1128  0.2076
    2loPI   GL2   22   7.515   8.358  10.592 -0.0978 -0.3387  0.1654
    2loPI   C1A   23   7.961   8.612  10.248 -0.0109 -0.0080  0.0936
    2loPI   C2A   24   7.976   8.661   9.862  0.1123  0.1085  0.3418
    2loPI   C3A   25   7.933   8.668   9.425 -0.2374  0.2257 -0.1627
    2loPI   C4A   26   8.292   8.537   9.222  0.0640 -0.2956  0.2290
    2loPI   C5A   27   8.491   8.435   8.875 -0.2478 -0.0431 -0.3427
    2loPI   C6A   28   8.671   8.223   8.531  0.2090  0.2225 -0.1153
    2loPI   C1B   29   7.496   8.353  10.149 -0.0273  0.1301  0.0288
    2loPI   C2B   30   7.464   8.414   9.727  0.1794  0.2756  0.1566
    2loPI   C3B   31   7.518   8.494   9.257 -0.2666 -0.5918  0.3494
    2loPI   C4B   32   7.366   8.565   8.754 -0.0429 -0.0452  0.1864
    3loPI    C1   33   1.458   4.304  11.310 -0.2216  0.0497 -0.2993
    3loPI    C2   34   1.193   4.254  11.605  0.0779  0.0438 -0.0252
    3loPI    C3   35   1.505   4.498  11.657  0.2041 -0.0580 -0.2916
    3loPI   PO4   36   1.326   4.431  11.107  0.3704 -0.2940 -0.1566
    3loPI   GL1   37   1.289   4.578  10.807 -0.0197  0.1742  0.1382
    3loPI   GL2   38   1.525   4.790  10.702  0.1984 -0.1576  0.1748
    3loPI   C1A   39   1.153   4.635  10.375  0.3385  0.1932 -0.0626
    3loPI   C2A   40   1.336   4.623  10.012 -0.0220 -0.1840 -0.0546
    3loPI   C3A   41   1.404   4.615   9.558  0.1200 -0.0908  0.2382
    3loPI   C4A   42   1.446   4.527   9.124 -0.0094 -0.2636  0.1780
    3loPI   C5A   43   1.368   4.576   8.722  0.0354  0.1855  0.0425
    3loPI   C6A   44   1.415   4.351   8.253 -0.3565 -0.1017  0.0248
    3loPI   C1B   45   1.638   4.973  10.241  0.1539  0.1308 -0.0020
    3loPI   C2B   46   1.846   4.922   9.820 -0.0717  0.0189 -0.0880
    3loPI   C3B   47   1.816   4.865   9.368 -0.1000  0.3194 -0.0907
    3loPI   C4B   48   1.824   4.769   8.886  0.0682  0.2489  0.1785
    4loPI    C1   49   3.359  12.216  11.839  0.2011  0.3418 -0.0375
    4loPI    C2   50   3.086  12.249  12.130  0.0012 -0.0817 -0.1693
    4loPI    C3   51   3.455  12.119  12.216  0.0990  0.2783 -0.0276
    4loPI   PO4   52   3.205  12.085  11.618 -0.3060  0.2874 -0.0275
    4loPI   GL1   53   3.348  11.952  11.178 -0.0110 -0.0365  0.1389
    4loPI   GL2   54   3.694  11.893  10.961 -0.1234  0.1164 -0.3102
    4loPI   C1A   55   3.204  11.976  10.819  0.1060 -0.0173 -0.1654
    4loPI   C2A   56   3.070  11.994  10.341 -0.2536  0.3790  0.0156
    4loPI   C3A   57   3.094  12.089   9.890  0.0998  0.2321  0.0842
    4loPI   C4A   58   3.089  12.116   9.400 -0.1414 -0.0438  0.0548
    4loPI   C5A   59   2.924  12.054   8.946  0.2149  0.0863 -0.0076
    4loPI   C6A   60   3.105  11.849   8.603 -0.1470 -0.1203 -0.0260
    4loPI   C1B   61   3.534  11.792  10.485  0.2402 -0.2562  0.0528
    4loPI   C2B   62   3.547  11.735  10.099  0.5260 -0.2518  0.2802
    4loPI   C3B   63   3.533  11.821   9.622 -0.1035  0.0900  0.0832
    4loPI   C4B   64   3.509  11.820   9.120  0.2502 -0.0221 -0.1547
    5loPI    C1   65   7.174   5.827  11.032  0.2178 -0.0777  0.1061
    5loPI    C2   66   7.345   5.490  11.164 -0.0161 -0.2033  0.0936
    5loPI    C3   67   7.227   5.771  11.424 -0.0522 -0.2440  0.1214
    5loPI   PO4   68   6.988   5.719  10.800  0.0018  0.1930 -0.1506
    5loPI   GL1   69   6.826   5.735  10.360 -0.0531 -0.0703 -0.2426
    5loPI   GL2   70   7.020   5.553  10.247 -0.2749 -0.1845 -0.2767
    5loPI   C1A   71   7.029   6.144  10.181  0.1853  0.0919  0.0216
    5loPI   C2A   72   7.056   6.544  10.075  0.1046  0.0704 -0.0991
    5loPI   C3A   73   7.186   6.712   9.663 -0.3743 -0.0329 -0.0220
    5loPI   C4A   74   7.433   6.794   9.340 -0.5171 -0.1529 -0.1970
    5loPI   C5A   75   7.314   6.695   8.940 -0.1050 -0.0214 -0.3750
    5loPI   C6A   76   7.114   6.399   8.724  0.1980  0.2405 -0.0201
    5loPI   C1B   77   6.870   5.550   9.899  0.0220 -0.2364 -0.1456
    5loPI   C2B   78   6.698   5.244   9.593  0.1944  0.0795  0.2385
    5loPI   C3B   79   6.612   4.919   9.203 -0.0503  0.2774 -0.0017
    5loPI   C4B   80   6.978   4.688   9.041 -0.1031 -0.0848  0.4479
    6loPI    C1   81  14.189   9.887  11.291  0.1017  0.0051 -0.0015
    6loPI    C2   82  13.919   9.664  11.485 -0.2162  0.4614  0.0968
    6loPI    C3   83  14.310   9.595  11.535 -0.3065 -0.0967  0.0855
    6loPI   PO4   84  14.045   9.867  11.015 -0.1537 -0.0697 -0.0445
    6loPI   GL1   85  14.041   9.660  10.598  0.0348 -0.4161  0.2198
    6loPI   GL2   86  13.717   9.635  10.528 -0.0874  0.3404 -0.2327
    6loPI   C1A   87  14.134   9.500  10.174 -0.0520  0.2046 -0.0687
    6loPI   C2A   88  14.235   9.561   9.731 -0.0431  0.2180 -0.0178
    6loPI   C3A   89  14.211   9.585   9.335  0.0636 -0.1380 -0.0076
    6loPI   C4A   90  14.156   9.657   8.923 -0.0865  0.0418 -0.3024
    6loPI   C5A   91  13.989   9.447   8.518 -0.3506  0.1695  0.0801
    6loPI   C6A   92  13.808   9.593   8.132 -0.1376 -0.0190  0.1219
    6loPI   C1B   93  13.760   9.766  10.060  0.2221  0.2203  0.2837
    6loPI   C2B   94  13.797   9.780   9.642  0.0263 -0.2736  0.0309
    6loPI   C3B   95  13.748   9.939   9.188 -0.2548  0.0206  0.2285
    6loPI   C4B   96  13.746  10.009   8.648  0.0490 -0.0947 -0.5135
    7loPI    C1   97  12.248   8.754  11.683 -0.0110 -0.0065  0.0545
    7loPI    C2   98  12.645   8.797  11.663 -0.0026 -0.0617  0.1010
    7loPI    C3   99  12.486   8.435  11.726 -0.0705 -0.0936 -0.2342
    7loPI   PO4  100  12.149   8.967  11.367  0.3266  0.2144  0.1039
    7loPI   GL1  101  12.179   8.849  10.911  0.0901  0.0054  0.0797
    7loPI   GL2  102  12.073   8.658  10.572  0.0227  0.1092 -0.0684
    7loPI   C1A  103  12.042   9.177  10.584  0.0201  0.1097 -0.0281
    7loPI   C2A  104  12.067   9.262  10.143  0.0554  0.2517  0.1153
    7loPI   C3A  105  12.069   9.254   9.656  0.1058 -0.1092  0.0854
    7loPI   C4A  106  12.088   9.344   9.189  0.3328 -0.1748 -0.1828
    7loPI   C5A  107  12.297   9.567   8.763  0.1173  0.0385 -0.1326
    7loPI   C6A  108  12.250   9.744   8.410 -0.1177  0.1100 -0.1749
    7loPI   C1B  109  12.032   8.788  10.127 -0.0274 -0.1078  0.2297
    7loPI   C2B  110  12.099   8.779   9.728 -0.1061 -0.0475  0.1241
    7loPI   C3B  111  11.968   8.862   9.282 -0.1699 -0.0746 -0.2758
    7loPI   C4B  112  12.182   8.878   8.835  0.1445 -0.0770 -0.5620
    8loPI    C1  113  17.368  10.996  10.979 -0.0290 -0.1281 -0.1040
    8loPI    C2  114  17.133  11.317  11.013 -0.0828 -0.1562 -0.2070
    8loPI    C3  115  17.271  11.136  11.341  0.1698  0.1324 -0.1490
    8loPI   PO4  116  17.445  10.958  10.795 -0.0414  0.0223  0.0791
    8loPI   GL1  117  17.300  10.787  10.412  0.0915 -0.1922  0.2275
    8loPI   GL2  118  16.935  10.731  10.257 -0.0907  0.2252  0.2290
    8loPI   C1A  119  17.429  11.037  10.040 -0.0527 -0.0406  0.1503
    8loPI   C2A  120  17.447  11.049   9.631  0.0153  0.2305  0.2494
    8loPI   C3A  121  17.352  10.947   9.188  0.0580 -0.0604 -0.1499
    8loPI   C4A  122  17.523  10.989   8.741 -0.0417 -0.0750  0.4609
    8loPI   C5A  123  17.443  11.330   8.392  0.1385 -0.0273 -0.1746
    8loPI   C6A  124  17.018  11.338   8.299  0.1768 -0.3349 -0.1238
    8loPI   C1B  125  16.930  10.751   9.805 -0.1004 -0.1211  0.2176
    8loPI   C2B  126  16.974  10.879   9.496 -0.1251  0.0029  0.2061
    8loPI   C3B  127  16.931  10.705   9.206  0.2677  0.1580 -0.2899
    8loPI   C4B  128  16.881  10.728   8.767  0.0427 -0.1887  0.2401
    9loPI    C1  129  15.889   8.431  10.887  0.0802 -0.0406  0.2157
    9loPI    C2  130  16.278   8.368  10.959  0.1943  0.0532 -0.2829
    9loPI    C3  131  16.101   8.702  11.091  0.1884 -0.1512  0.2516
    9loPI   PO4  132  15.926   8.258  10.606 -0.3098 -0.1807  0.2286
    9loPI   GL1  133  15.974   8.385  10.202  0.2725 -0.1699  0.0305
    9loPI   GL2  134  16.278   8.321  10.121  0.1510  0.2873 -0.0533
    9loPI   C1A  135  16.018   8.602   9.764  0.0619  0.0651 -0.1363
    9loPI   C2A  136  16.047   8.623   9.318  0.0316  0.3813 -0.3161
    9loPI   C3A  137  16.152   8.631   8.966  0.1191 -0.0295  0.1363
    9loPI   C4A  138  16.110   8.657   8.562  0.0506 -0.1083 -0.1818
    9loPI   C5A  139  16.114   8.905   8.275  0.0759 -0.0715 -0.2572
    9loPI   C6A  140  16.215   9.068   7.931 -0.0474 -0.0126 -0.1067
    9loPI   C1B  141  16.458   8.420   9.650 -0.0826  0.0297  0.1689
    9loPI   C2B  142  16.501   8.406   9.245 -0.1296 -0.0122  0.1764
    9loPI   C3B  143  16.597   8.435   8.859  0.0761 -0.0527  0.0584
    9loPI   C4B  144  16.566   8.548   8.360  0.2335  0.1177 -0.1378
   10loPI    C1  145  14.623  10.045  11.448  0.0033  0.0737 -0.2119
   10loPI    C2  146  14.871   9.731  11.438 -0.1282 -0.0362 -0.0689
   10loPI    C3  147  14.915  10.013  11.719  0.0841  0.1538 -0.2891
   10loPI   PO4  148  14.632  10.148  11.179  0.0746  0.0808 -0.1024
   10loPI   GL1  149  14.626  10.317  10.804  0.1696  0.0772 -0.1464
   10loPI   GL2  150  14.412  10.066  10.708 -0.0806 -0.1562 -0.0225
   10loPI   C1A  151  14.765  10.306  10.382  0.0999 -0.0617 -0.0349
   10loPI   C2A  152  14.615  10.311   9.974 -0.2233  0.3438  0.0238
   10loPI   C3A  153  14.778  10.362   9.575 -0.2519  0.0537  0.2738
   10loPI   C4A  154  14.685  10.341   9.246 -0.2830 -0.1159  0.3297
   10loPI   C5A  155  14.514  10.438   8.825  0.1712 -0.0794  0.2758
   10loPI   C6A  156  14.155  10.624   8.534  0.0186 -0.2404  0.1310
   10loPI   C1B  157  14.310   9.957  10.284 -0.2347  0.0432 -0.0232
   10loPI   C2B  158  14.168  10.064   9.888 -0.1442 -0.0901  0.0074
   10loPI   C3B  159  14.219  10.109   9.479 -0.0659 -0.0617 -0.0543
   10loPI   C4B  160  14.170  10.191   9.041  0.1172 -0.0447  0.0578
   11loPI    C1  161  11.260  11.814  11.099  0.1226 -0.0257 -0.0331
   11loPI    C2  162  11.054  11.521  11.277  0.1536 -0.0024  0.0419
   11loPI    C3  163  11.366  11.433  11.042  0.0223 -0.0411 -0.1206
   11loPI   PO4  164  11.130  11.923  10.940  0.1759  0.2898  0.0180
   11loPI   GL1  165  11.038  12.135  10.582 -0.1771 -0.2249 -0.1888
   11loPI   GL2  166  11.216  11.860  10.390  0.1930 -0.0572  0.0388
   11loPI   C1A  167  10.677  12.175  10.277 -0.1237  0.3370 -0.0867
   11loPI   C2A  168  10.603  12.349   9.803 -0.2482  0.1065  0.0966
   11loPI   C3A  169  10.639  12.237   9.353  0.1488 -0.1382  0.1742
   11loPI   C4A  170  10.583  12.282   8.901  0.3385 -0.0258 -0.1360
   11loPI   C5A  171  10.581  12.301   8.485  0.0050 -0.1620 -0.0418
   11loPI   C6A  172  10.697  12.672   8.184 -0.0076 -0.2456 -0.3959
   11loPI   C1B  173  11.105  12.030  10.028  0.1246  0.6343 -0.2628
   11loPI   C2B  174  11.096  12.048   9.541 -0.3885 -0.0035 -0.0041
   11loPI   C3B  175  11.085  11.981   9.153 -0.0830  0.1509 -0.1067
   11loPI   C4B  176  11.025  12.038   8.693 -0.0730  0.0787 -0.1181
   12loPI    C1  177   2.972   1.478  11.619 -0.0088  0.0754  0.2871
   12loPI    C2  178   2.613   1.648  11.571 -0.0129 -0.0093 -0.0012
   12loPI    C3  179   2.767   1.606  11.937 -0.3391 -0.0597  0.1337
   12loPI   PO4  180   2.958   1.344  11.440  0.1057  0.1686  0.1274
   12loPI   GL1  181   2.769   1.476  11.055  0.0520  0.1054 -0.1433
   12loPI   GL2  182   2.541   1.768  11.068 -0.0658  0.1497 -0.0692
   12loPI   C1A  183   2.641   1.312  10.674  0.0626 -0.2640 -0.0925
   12loPI   C2A  184   2.717   1.245  10.268 -0.1931  0.3459  0.0054
   12loPI   C3A  185   2.673   1.225   9.808 -0.2431 -0.2064  0.0092
   12loPI   C4A  186   2.632   1.162   9.317 -0.1564  0.1902  0.0671
   12loPI   C5A  187   2.647   1.414   8.964 -0.2009  0.1235 -0.1302
   12loPI   C6A  188   2.639   1.803   8.808  0.0748  0.2190  0.0043
   12loPI   C1B  189   2.671   1.859  10.707 -0.0374  0.0657 -0.0246
   12loPI   C2B  190   2.711   1.741  10.276  0.1452 -0.2588 -0.0470
   12loPI   C3B  191   2.664   1.809   9.784 -0.2207  0.0905 -0.0344
   12loPI   C4B  192   2.623   1.747   9.318 -0.1951 -0.1362  0.1327
   13loPI    C1  193   8.071  12.399  11.410  0.2595 -0.2088 -0.0371
   13loPI    C2  194   7.924  12.484  11.772  0.0555 -0.3461 -0.0862
   13loPI    C3  195   7.963  12.103  11.657  0.1825 -0.3042 -0.1836
   13loPI   PO4  196   7.965  12.461  11.209 -0.1718  0.0533  0.0128
   13loPI   GL1  197   7.673  12.539  10.927  0.0641  0.2447  0.1232
   13loPI   GL2  198   7.380  12.509  10.930 -0.0150 -0.1461 -0.0482
   13loPI   C1A  199   7.643  12.517  10.474 -0.0985  0.1489  0.2982
   13loPI   C2A  200   7.590  12.416  10.019 -0.4309 -0.0846 -0.1984
   13loPI   C3A  201   7.534  12.591   9.610  0.1176  0.1346  0.0216
   13loPI   C4A  202   7.534  12.731   9.228  0.0955 -0.2056  0.0832
   13loPI   C5A  203   7.565  12.630   8.752  0.0445 -0.2420  0.0336
   13loPI   C6A  204   7.593  12.845   8.463  0.3346 -0.0606 -0.0364
   13loPI   C1B  205   7.160  12.426  10.603 -0.0701  0.1676  0.0326
   13loPI   C2B  206   7.150  12.305  10.239 -0.0231 -0.0795 -0.1878
   13loPI   C3B  207   7.147  12.252   9.785 -0.1917 -0.0828  0.2378
   13loPI   C4B  208   7.079  12.368   9.406 -0.5443  0.1001  0.0798
   14loPI    C1  209  11.791   5.049  11.128 -0.5191  0.0516  0.0384
   14loPI    C2  210  11.985   4.824  11.397 -0.1247  0.1111 -0.1900
   14loPI    C3  211  11.741   5.116  11.519 -0.2375 -0.1021  0.1038
   14loPI   PO4  212  11.627   4.837  10.967  0.1153  0.1177  0.2097
   14loPI   GL1  213  11.731   4.678  10.605 -0.1201  0.0324 -0.3497
   14loPI   GL2  214  11.569   4.864  10.428 -0.2768  0.1958 -0.1495
   14loPI   C1A  215  11.993   4.704  10.229  0.0204 -0.2082 -0.0910
   14loPI   C2A  216  12.111   4.769   9.813  0.1527  0.0323 -0.1129
   14loPI   C3A  217  12.180   4.819   9.338 -0.1770 -0.0861  0.2706
   14loPI   C4A  218  12.440   4.957   9.049 -0.0269 -0.3831 -0.2211
   14loPI   C5A  219  12.477   4.863   8.600  0.1509  0.0903 -0.1573
   14loPI   C6A  220  12.068   4.666   8.398 -0.0644 -0.0153  0.0241
   14loPI   C1B  221  11.515   4.692  10.054  0.0545  0.2988 -0.0438
   14loPI   C2B  222  11.636   4.905   9.722 -0.2920 -0.1526  0.4541
   14loPI   C3B  223  11.667   4.915   9.212  0.3319 -0.2802  0.0084
   14loPI   C4B  224  11.586   4.969   8.743 -0.4121  0.0444  0.1989
   15loPI    C1  225   3.735  12.193  11.489  0.0602 -0.0847  0.0151
   15loPI    C2  226   3.833  12.313  11.858  0.2982 -0.1464 -0.0264
   15loPI    C3  227   3.938  11.948  11.732 -0.0439 -0.2395 -0.0523
   15loPI   PO4  228   3.803  12.326  11.257  0.0433 -0.1121 -0.0098
   15loPI   GL1  229   4.016  12.263  10.991 -0.2611  0.0011  0.0173
   15loPI   GL2  230   4.232  12.508  10.870 -0.0055 -0.0843 -0.0201
   15loPI   C1A  231   4.038  12.012  10.636 -0.0758  0.1634  0.1373
   15loPI   C2A  232   3.858  12.080  10.184 -0.2186 -0.1605  0.1656
   15loPI   C3A  233   4.004  12.075   9.733  0.1592 -0.0339 -0.1499
   15loPI   C4A  234   3.936  12.055   9.304  0.0594 -0.0539  0.1452
   15loPI   C5A  235   3.896  12.138   8.889 -0.2624 -0.0921  0.2064
   15loPI   C6A  236   3.596  12.032   8.540 -0.2060 -0.0125  0.1565
   15loPI   C1B  237   4.024  12.536  10.535 -0.2717 -0.0610 -0.0819
   15loPI   C2B  238   4.019  12.507  10.107 -0.0125  0.1032 -0.0703
   15loPI   C3B  239   3.940  12.611   9.658  0.1342  0.0714 -0.3755
   15loPI   C4B  240   4.002  12.548   9.168 -0.2486  0.3513 -0.0742
   16loPI    C1  241   6.053   7.401  10.794 -0.0060 -0.2037  0.0461
   16loPI    C2  242   6.307   7.365  10.487  0.1322 -0.3037  0.1708
   16loPI    C3  243   5.966   7.157  10.489  0.0252 -0.1333 -0.0193
   16loPI   PO4  244   6.056   7.636  10.814 -0.3221  0.3889 -0.1496
   16loPI   GL1  245   5.827   7.698  10.477  0.1499  0.0619  0.3310
   16loPI   GL2  246   5.591   7.981  10.467  0.2409 -0.0350  0.0034
   16loPI   C1A  247   6.114   7.657  10.164 -0.0867  0.1932  0.0834
   16loPI   C2A  248   6.087   7.644   9.690 -0.0742  0.1494  0.0924
   16loPI   C3A  249   6.214   7.592   9.224  0.1679  0.2020 -0.1299
   16loPI   C4A  250   6.212   7.355   8.883  0.0249  0.0432  0.1432
   16loPI   C5A  251   6.482   7.056   8.664 -0.3031  0.2999 -0.1544
   16loPI   C6A  252   7.006   7.002   8.561  0.0572  0.0213  0.1128
   16loPI   C1B  253   5.668   7.902  10.022 -0.1634 -0.0873  0.1582
   16loPI   C2B  254   5.738   7.957   9.511  0.1559  0.2578 -0.1784
   16loPI   C3B  255   5.797   7.902   8.961  0.2064  0.2110  0.0388
   16loPI   C4B  256   6.238   7.831   8.774 -0.1073  0.0668  0.0629
   17loPI    C1  257   8.558   5.151  11.225 -0.0904 -0.2095  0.0366
   17loPI    C2  258   8.290   5.249  11.506 -0.2409 -0.1101 -0.1391
   17loPI    C3  259   8.389   4.866  11.449 -0.1119 -0.1203  0.1354
   17loPI   PO4  260   8.433   5.195  10.964 -0.0918  0.1649  0.1556
   17loPI   GL1  261   8.354   5.299  10.499  0.0215  0.1072  0.1294
   17loPI   GL2  262   8.619   5.328  10.516  0.3772 -0.3129  0.1359
   17loPI   C1A  263   8.360   5.350  10.010  0.3141  0.0084  0.0966
   17loPI   C2A  264   8.065   5.586   9.720 -0.1295 -0.0180 -0.0157
   17loPI   C3A  265   7.828   5.794   9.492 -0.0727  0.0753  0.0895
   17loPI   C4A  266   7.943   6.204   9.133 -0.2798 -0.3022 -0.3104
   17loPI   C5A  267   7.828   6.624   8.731  0.0847  0.0595  0.0956
   17loPI   C6A  268   7.475   6.655   8.453  0.1693 -0.0535 -0.0439
   17loPI   C1B  269   8.790   5.000  10.158 -0.2115  0.2341 -0.3140
   17loPI   C2B  270   8.607   5.165   9.675 -0.0767 -0.1342  0.0088
   17loPI   C3B  271   8.436   5.381   9.315 -0.1461  0.0058  0.2503
   17loPI   C4B  272   8.180   5.615   9.008 -0.0846  0.1368 -0.1285
   18loPI    C1  273   2.227   5.981  11.045  0.0320  0.3973 -0.1419
   18loPI    C2  274   2.392   6.342  11.100  0.2873  0.2337  0.2055
   18loPI    C3  275   2.159   6.182  11.384 -0.3805  0.4032 -0.2230
   18loPI   PO4  276   2.104   5.940  10.936  0.0033  0.1857  0.1861
   18loPI   GL1  277   2.024   5.689  10.624  0.0144  0.0306 -0.0850
   18loPI   GL2  278   1.862   5.711  10.386 -0.1355 -0.1445  0.3314
   18loPI   C1A  279   2.328   5.862  10.265  0.1021  0.1841  0.2107
   18loPI   C2A  280   2.390   5.808   9.793  0.0200 -0.2128  0.0233
   18loPI   C3A  281   2.254   5.683   9.361 -0.1673 -0.0486  0.0574
   18loPI   C4A  282   2.214   5.561   8.930 -0.0030  0.3414 -0.1614
   18loPI   C5A  283   2.136   5.332   8.685 -0.2458  0.1633 -0.4950
   18loPI   C6A  284   2.208   4.894   8.570  0.3240  0.0968  0.2988
   18loPI   C1B  285   1.781   5.867   9.988  0.0514  0.1129  0.0611
   18loPI   C2B  286   1.844   5.974   9.513  0.3100  0.3019 -0.0798
   18loPI   C3B  287   1.881   5.968   9.119 -0.1596 -0.1299  0.1987
   18loPI   C4B  288   1.790   5.693   8.785  0.2342  0.0481  0.0825
   19loPI    C1  289   7.086  12.658  11.622  0.4759 -0.2290  0.1528
   19loPI    C2  290   6.894  12.312  11.678  0.0092  0.0079  0.0651
   19loPI    C3  291   7.036  12.514  11.992 -0.0122 -0.0990  0.1443
   19loPI   PO4  292   7.075  12.638  11.342  0.3071  0.1834 -0.0099
   19loPI   GL1  293   6.859  12.512  10.938 -0.1433 -0.0587 -0.1248
   19loPI   GL2  294   6.522  12.686  10.884 -0.1938  0.2010 -0.2432
   19loPI   C1A  295   6.645  12.639  10.400  0.3342  0.0542 -0.0129
   19loPI   C2A  296   6.633  12.600   9.896 -0.1930  0.2310 -0.1114
   19loPI   C3A  297   6.647  12.550   9.488  0.0951  0.1182 -0.2349
   19loPI   C4A  298   6.671  12.538   9.018  0.0772  0.2443 -0.0722
   19loPI   C5A  299   6.428  12.171   8.826  0.1832 -0.0535 -0.0903
   19loPI   C6A  300   6.094  11.987   8.625  0.0051 -0.1945 -0.3276
   19loPI   C1B  301   6.250  12.442  10.542 -0.0401  0.0463  0.1453
   19loPI   C2B  302   6.163  12.382  10.081 -0.1329 -0.2175  0.0161
   19loPI   C3B  303   6.149  12.347   9.733 -0.0959  0.1170  0.1543
   19loPI   C4B  304   6.239  12.322   9.321  0.0159 -0.1328  0.0557
   20loPI    C1  305  10.413  15.332  11.438 -0.1206 -0.0241  0.0384
   20loPI    C2  306  10.263  15.061  11.691  0.1836 -0.2216  0.0125
   20loPI    C3  307  10.411  15.405  11.831 -0.1619 -0.0837  0.0493
   20loPI   PO4  308  10.271  15.364  11.303  0.2577 -0.5094  0.1737
   20loPI   GL1  309  10.346  15.380  10.803  0.2943 -0.1259 -0.0693
   20loPI   GL2  310  10.117  15.670  10.736  0.2406  0.2480 -0.1564
   20loPI   C1A  311  10.212  15.221  10.442 -0.2139  0.1882  0.1646
   20loPI   C2A  312  10.274  15.230  10.021  0.1540 -0.0003  0.1089
   20loPI   C3A  313  10.217  15.136   9.503  0.1314 -0.2306 -0.0399
   20loPI   C4A  314  10.227  15.186   9.147  0.0926  0.2631 -0.2216
   20loPI   C5A  315  10.243  14.999   8.735 -0.0565  0.3190 -0.3336
   20loPI   C6A  316   9.958  14.862   8.417 -0.2200  0.1178  0.2313
   20loPI   C1B  317  10.243  15.743  10.377  0.1626  0.2074 -0.0034
   20loPI   C2B  318  10.263  15.736  10.069  0.0635  0.1684  0.0613
   20loPI   C3B  319  10.177  15.634   9.613  0.0499 -0.0944  0.1910
   20loPI   C4B  320  10.262  15.682   9.172  0.4158 -0.2165  0.0105
   21loPI    C1  321   5.496  10.367  11.530  0.0185  0.0035 -0.0504
   21loPI    C2  322   5.866  10.454  11.655  0.0091 -0.2120  0.1349
   21loPI    C3  323   5.581  10.736  11.660  0.1752 -0.0382 -0.0337
   21loPI   PO4  324   5.603  10.179  11.338  0.3752  0.0723 -0.2009
   21loPI   GL1  325   5.656  10.284  10.875  0.1505  0.3198 -0.0531
   21loPI   GL2  326   5.427  10.164  10.643 -0.1788 -0.1955  0.1690
   21loPI   C1A  327   5.792  10.466  10.561  0.0173 -0.0300 -0.0019
   21loPI   C2A  328   5.794  10.490  10.131 -0.1225  0.0000 -0.0214
   21loPI   C3A  329   5.834  10.495   9.693 -0.3088 -0.0660  0.0037
   21loPI   C4A  330   5.650  10.557   9.308 -0.1785  0.0140  0.4677
   21loPI   C5A  331   5.718  10.568   8.903 -0.0335 -0.0430  0.2713
   21loPI   C6A  332   5.648  10.204   8.676  0.0591  0.1730 -0.1522
   21loPI   C1B  333   5.303  10.198  10.302  0.2902 -0.1108  0.2560
   21loPI   C2B  334   5.371  10.309   9.834 -0.3077 -0.0784  0.3957
   21loPI   C3B  335   5.231  10.294   9.436 -0.0020  0.0073 -0.0902
   21loPI   C4B  336   5.124  10.406   9.061  0.1179  0.0848 -0.0871
   22loPI    C1  337   2.703   1.132  11.873 -0.0576 -0.1428  0.1269
   22loPI    C2  338   2.522   0.799  11.999  0.1063 -0.2185  0.1650
   22loPI    C3  339   2.891   0.887  12.127  0.0439  0.0045  0.1958
   22loPI   PO4  340   2.579   1.096  11.635 -0.0554 -0.5356  0.0479
   22loPI   GL1  341   2.662   0.927  11.179 -0.2649 -0.0685 -0.1817
   22loPI   GL2  342   2.982   0.997  11.001  0.5362 -0.1505 -0.0447
   22loPI   C1A  343   2.668   0.804  10.679 -0.0186 -0.0531 -0.0486
   22loPI   C2A  344   2.803   0.757  10.251 -0.3394 -0.1310 -0.0336
   22loPI   C3A  345   2.727   0.756   9.834 -0.0975 -0.2911 -0.0439
   22loPI   C4A  346   2.533   0.669   9.510 -0.1531 -0.0527  0.0076
   22loPI   C5A  347   2.593   0.672   9.126 -0.2327 -0.1367  0.0260
   22loPI   C6A  348   2.487   0.942   8.875  0.2153 -0.1788 -0.3481
   22loPI   C1B  349   3.236   0.902  10.564  0.0175  0.1154  0.2992
   22loPI   C2B  350   3.287   0.901  10.157  0.2782  0.1037 -0.0291
   22loPI   C3B  351   3.204   0.959   9.861  0.2080 -0.2211 -0.0066
   22loPI   C4B  352   3.078   1.018   9.584  0.1521  0.4162 -0.2355
   23loPI    C1  353  10.412   1.855  11.619 -0.4208 -0.2722 -0.0973
   23loPI    C2  354  10.564   1.486  11.645 -0.0524 -0.1173  0.0145
   23loPI    C3  355  10.514   1.706  11.975 -0.1512 -0.0199 -0.0645
   23loPI   PO4  356  10.541   1.953  11.405  0.2882  0.0922  0.1591
   23loPI   GL1  357  10.619   2.098  11.051  0.3533  0.0412 -0.2582
   23loPI   GL2  358  10.320   2.170  10.969 -0.2616 -0.2679  0.1859
   23loPI   C1A  359  10.722   1.832  10.639 -0.0576  0.0278  0.1166
   23loPI   C2A  360  10.670   1.792  10.179 -0.2907 -0.1074 -0.2715
   23loPI   C3A  361  10.601   1.764   9.807  0.0876 -0.1318 -0.2712
   23loPI   C4A  362  10.686   1.629   9.372 -0.0244  0.0470 -0.0994
   23loPI   C5A  363  10.581   1.718   8.946  0.2315 -0.1855  0.0257
   23loPI   C6A  364  10.100   1.495   8.732  0.0032 -0.2128  0.2094
   23loPI   C1B  365  10.314   2.083  10.493 -0.0320 -0.0052 -0.2526
   23loPI   C2B  366  10.238   2.058  10.056 -0.1177 -0.0682 -0.2667
   23loPI   C3B  367  10.226   2.096   9.614  0.4250  0.0791 -0.0692
   23loPI   C4B  368  10.127   1.810   9.311  0.1649 -0.0243  0.0648
   24loPI    C1  369  10.985   1.744  11.583  0.1371  0.0144 -0.1432
   24loPI    C2  370  10.854   2.034  11.826 -0.1423 -0.1522 -0.0898
   24loPI    C3  371  11.041   1.715  11.978  0.2688  0.0488 -0.1590
   24loPI   PO4  372  11.078   1.815  11.332 -0.2225 -0.4257 -0.0125
   24loPI   GL1  373  11.209   1.988  10.972 -0.0091  0.0931 -0.0563
   24loPI   GL2  374  11.191   1.780  10.856  0.2864 -0.2282 -0.0054
   24loPI   C1A  375  11.145   2.086  10.505 -0.2128 -0.2940 -0.1386
   24loPI   C2A  376  11.134   1.966  10.125 -0.1780  0.4619 -0.2357
   24loPI   C3A  377  11.065   1.943   9.644 -0.1186 -0.0539 -0.3455
   24loPI   C4A  378  11.145   1.941   9.211  0.1294  0.2656  0.1517
   24loPI   C5A  379  11.146   1.759   8.866 -0.1524  0.0473  0.0697
   24loPI   C6A  380  11.245   1.444   8.665  0.0657  0.0804  0.2572
   24loPI   C1B  381  11.061   1.506  10.577  0.3800 -0.1710 -0.0523
   24loPI   C2B  382  11.146   1.472  10.167  0.2232  0.1233 -0.0108
   24loPI   C3B  383  11.113   1.408   9.691  0.1222 -0.0557 -0.3277
   24loPI   C4B  384  11.123   1.371   9.189  0.1485  0.0952  0.0637
   25loPI    C1  385   2.093  14.767  11.383  0.3554  0.2676  0.1918
   25loPI    C2  386   2.208  14.386  11.342 -0.0634  0.1702 -0.1453
   25loPI    C3  387   2.132  14.533  11.706  0.2319 -0.0250 -0.0009
   25loPI   PO4  388   2.127  14.888  11.094 -0.0800 -0.0721  0.0594
   25loPI   GL1  389   2.064  14.470  10.858 -0.1342  0.0926  0.1688
   25loPI   GL2  390   2.078  14.177  10.847  0.4606 -0.0835 -0.1068
   25loPI   C1A  391   2.167  14.671  10.474 -0.1104  0.2449 -0.3853
   25loPI   C2A  392   2.160  14.720  10.040  0.1917 -0.1350  0.3495
   25loPI   C3A  393   2.197  14.712   9.647 -0.2327 -0.2205 -0.0078
   25loPI   C4A  394   2.270  14.742   9.259  0.0296 -0.3249 -0.1139
   25loPI   C5A  395   2.179  14.680   8.846 -0.0051  0.0589 -0.1275
   25loPI   C6A  396   2.137  14.513   8.428  0.2121 -0.1663  0.1787
   25loPI   C1B  397   2.094  14.157  10.364 -0.3168 -0.2226 -0.2059
   25loPI   C2B  398   2.142  14.201   9.917 -0.2174 -0.1297 -0.1366
   25loPI   C3B  399   2.286  14.170   9.499 -0.0209  0.0221  0.3436
   25loPI   C4B  400   2.184  14.170   9.120 -0.3748  0.0792 -0.1171
   26loPI    C1  401  13.835   4.882  10.988 -0.0289 -0.2947 -0.0950
   26loPI    C2  402  13.750   5.125  11.293  0.0821 -0.1387 -0.1866
   26loPI    C3  403  13.800   4.734  11.358 -0.2504 -0.1645 -0.0619
   26loPI   PO4  404  14.018   5.054  10.800  0.1109  0.0732 -0.1193
   26loPI   GL1  405  13.974   5.087  10.405  0.1520 -0.3556 -0.1874
   26loPI   GL2  406  13.685   5.134  10.246  0.0219 -0.1061 -0.3389
   26loPI   C1A  407  14.279   5.341  10.166  0.0922 -0.2282  0.0859
   26loPI   C2A  408  14.338   5.520   9.743 -0.0122 -0.3351 -0.0590
   26loPI   C3A  409  14.149   5.399   9.402 -0.0087  0.0932  0.1109
   26loPI   C4A  410  14.306   5.462   9.039  0.1019 -0.2596 -0.4145
   26loPI   C5A  411  14.274   5.499   8.586 -0.3228 -0.2062  0.0527
   26loPI   C6A  412  14.170   5.509   8.192 -0.0498 -0.1557 -0.0848
   26loPI   C1B  413  13.720   5.165   9.772 -0.2205  0.4321 -0.0849
   26loPI   C2B  414  13.734   5.164   9.380  0.1758 -0.1954  0.0991
   26loPI   C3B  415  13.814   5.154   9.003 -0.1757 -0.0467 -0.1762
   26loPI   C4B  416  13.788   5.294   8.573  0.0737  0.3675  0.1655
   27loPI    C1  417  16.961  12.786  11.583 -0.0555  0.0654 -0.0146
   27loPI    C2  418  17.313  12.952  11.677 -0.1425  0.2247  0.0345
   27loPI    C3  419  16.981  13.066  11.868 -0.2302  0.1169 -0.0519
   27loPI   PO4  420  16.987  12.751  11.326 -0.2494  0.2295  0.1394
   27loPI   GL1  421  17.069  12.835  10.892  0.0484  0.2431 -0.2114
   27loPI   GL2  422  17.432  12.980  10.713  0.0472 -0.0975 -0.1085
   27loPI   C1A  423  16.913  12.721  10.570  0.1158  0.0382 -0.2751
   27loPI   C2A  424  16.953  12.860  10.142  0.0931  0.2369  0.0745
   27loPI   C3A  425  16.953  12.784   9.735 -0.1187 -0.2217 -0.0451
   27loPI   C4A  426  16.958  12.848   9.335 -0.0013  0.1716 -0.1342
   27loPI   C5A  427  16.923  12.947   8.952 -0.0780 -0.1172 -0.0236
   27loPI   C6A  428  16.952  12.921   8.553 -0.1465  0.1886  0.1250
   27loPI   C1B  429  17.311  13.059  10.361  0.0309 -0.2612 -0.2010
   27loPI   C2B  430  17.318  13.162   9.959 -0.3261  0.2168 -0.1981
   27loPI   C3B  431  17.381  13.097   9.562 -0.2296 -0.2874  0.1472
   27loPI   C4B  432  17.359  13.076   9.170  0.1800  0.0406 -0.2132
   28loPI    C1  433   5.559   8.186  11.096 -0.1027 -0.0449 -0.2713
   28loPI    C2  434   5.926   8.038  11.157 -0.0746  0.1144 -0.0403
   28loPI    C3  435   5.623   7.926  11.394 -0.1472  0.0875 -0.1448
   28loPI   PO4  436   5.602   8.348  10.862  0.4202 -0.3014  0.1494
   28loPI   GL1  437   5.749   8.460  10.567 -0.1691  0.0834  0.1212
   28loPI   GL2  438   6.148   8.643  10.521  0.3203  0.1348  0.1264
   28loPI   C1A  439   5.658   8.438  10.119  0.0862 -0.3355 -0.2892
   28loPI   C2A  440   5.737   8.517   9.714 -0.0129  0.2231  0.1012
   28loPI   C3A  441   5.691   8.449   9.253 -0.0182 -0.0459 -0.3858
   28loPI   C4A  442   5.879   8.432   8.850  0.1087  0.1365  0.0147
   28loPI   C5A  443   6.061   8.753   8.577  0.2126 -0.0994 -0.0755
   28loPI   C6A  444   6.399   8.671   8.270 -0.0482  0.1417 -0.3610
   28loPI   C1B  445   6.089   8.674  10.141  0.0532  0.1639 -0.2070
   28loPI   C2B  446   6.162   8.738   9.723  0.2472  0.0574 -0.0228
   28loPI   C3B  447   6.202   8.652   9.286  0.0373  0.3936 -0.0259
   28loPI   C4B  448   6.354   8.776   8.942  0.0470  0.1466  0.0484
   29loPI    C1  449  17.629   0.827  11.428  0.0265  0.2763 -0.2064
   29loPI    C2  450  17.991   0.792  11.594  0.0272  0.1780 -0.2278
   29loPI    C3  451  17.741   1.079  11.717  0.0033  0.0661 -0.0105
   29loPI   PO4  452  17.649   0.887  11.116  0.0869  0.0948 -0.0621
   29loPI   GL1  453  17.887   1.005  10.756 -0.2094 -0.2398 -0.2686
   29loPI   GL2  454  17.801   1.300  10.681  0.0935 -0.0635  0.1823
   29loPI   C1A  455  18.250   0.932  10.582  0.1349 -0.0031  0.3065
   29loPI   C2A  456  18.329   0.942  10.172 -0.1796  0.0993 -0.1363
   29loPI   C3A  457  18.325   0.936   9.800  0.1807 -0.0370 -0.0238
   29loPI   C4A  458  18.368   0.902   9.347  0.1503  0.1630 -0.0708
   29loPI   C5A  459  18.448   1.029   8.908  0.0463 -0.1203  0.1372
   29loPI   C6A  460  18.558   1.470   8.761  0.0588 -0.0809 -0.0918
   29loPI   C1B  461  17.903   1.298  10.258  0.1325  0.1973 -0.1449
   29loPI   C2B  462  17.901   1.222   9.921 -0.1823  0.0783 -0.1519
   29loPI   C3B  463  17.938   1.120   9.542 -0.0892 -0.1227  0.2514
   29loPI   C4B  464  17.991   1.296   9.131  0.0527 -0.0474 -0.0475
   30loPI    C1  465  14.869   4.361  11.216 -0.0286 -0.3766  0.0978
   30loPI    C2  466  14.525   4.388  11.418 -0.0292  0.1695  0.0370
   30loPI    C3  467  14.872   4.378  11.616 -0.0651 -0.1441  0.0893
   30loPI   PO4  468  14.821   4.519  10.986  0.1533  0.0466 -0.0094
   30loPI   GL1  469  14.842   4.549  10.492  0.1189  0.1827  0.0418
   30loPI   GL2  470  15.097   4.763  10.401 -0.1144 -0.1580 -0.2660
   30loPI   C1A  471  14.700   4.507  10.098  0.1108 -0.0837  0.0917
   30loPI   C2A  472  14.612   4.668   9.718 -0.0051 -0.2786  0.2259
   30loPI   C3A  473  14.690   4.742   9.293  0.3312  0.1302  0.0379
   30loPI   C4A  474  14.838   4.782   8.871  0.0265  0.2462 -0.1555
   30loPI   C5A  475  15.015   4.763   8.482  0.2298  0.2373 -0.2136
   30loPI   C6A  476  15.508   4.798   8.411  0.0338 -0.0422  0.0975
   30loPI   C1B  477  15.068   4.909  10.014  0.3030 -0.0196  0.1266
   30loPI   C2B  478  15.173   4.990   9.647 -0.1027  0.1190  0.2301
   30loPI   C3B  479  15.211   4.967   9.181  0.2001  0.2236 -0.0680
   30loPI   C4B  480  15.390   5.026   8.864  0.2032  0.1664  0.1572
   31loPI    C1  481   8.736   0.272  11.406  0.1298  0.0812  0.1735
   31loPI    C2  482   8.531  -0.052  11.522 -0.0651  0.1434  0.0092
   31loPI    C3  483   8.697   0.189  11.795  0.0341 -0.0641  0.1339
   31loPI   PO4  484   8.918   0.137  11.178 -0.0121  0.1311 -0.3160
   31loPI   GL1  485   8.702  -0.139  10.888 -0.0980  0.0814  0.2102
   31loPI   GL2  486   8.838  -0.357  10.716  0.1785 -0.0499  0.0069
   31loPI   C1A  487   8.426  -0.087  10.583 -0.0091 -0.0764  0.0043
   31loPI   C2A  488   8.469  -0.073  10.137  0.1321  0.1371 -0.2798
   31loPI   C3A  489   8.432  -0.266   9.808  0.4302 -0.1284 -0.2227
   31loPI   C4A  490   8.389  -0.167   9.298  0.1248 -0.1632  0.2197
   31loPI   C5A  491   8.552  -0.160   8.887 -0.1656  0.0542 -0.0911
   31loPI   C6A  492   8.734  -0.165   8.419 -0.1349  0.2106 -0.0371
   31loPI   C1B  493   8.880  -0.253  10.269  0.0507  0.0641  0.2100
   31loPI   C2B  494   8.943  -0.369   9.862 -0.1535 -0.0923 -0.2569
   31loPI   C3B  495   8.923  -0.464   9.532 -0.1601 -0.1297  0.0153
   31loPI   C4B  496   8.867  -0.442   9.172 -0.2488 -0.1129  0.1628
   32loPI    C1  497  14.922   7.852  11.168  0.0894  0.0323  0.0315
   32loPI    C2  498  15.000   7.475  11.278 -0.1114  0.0064  0.0895
   32loPI    C3  499  14.990   7.765  11.553  0.2464  0.0910  0.0173
   32loPI   PO4  500  14.982   7.718  10.862 -0.0797  0.1133 -0.0299
   32loPI   GL1  501  14.833   7.799  10.495  0.0254  0.0836  0.3336
   32loPI   GL2  502  15.067   7.953  10.322 -0.1076 -0.0540 -0.1170
   32loPI   C1A  503  14.681   7.718  10.112 -0.1820 -0.0665 -0.0524
   32loPI   C2A  504  14.640   7.777   9.602 -0.1292 -0.2527 -0.1188
   32loPI   C3A  505  14.716   7.886   9.217  0.0464 -0.2807 -0.1941
   32loPI   C4A  506  14.717   7.915   8.830 -0.2548  0.1724  0.2580
   32loPI   C5A  507  14.692   7.879   8.437 -0.3436  0.2106  0.3986
   32loPI   C6A  508  14.955   7.816   8.003  0.4041 -0.1558 -0.1322
   32loPI   C1B  509  15.101   8.015   9.838 -0.1432 -0.1712  0.2257
   32loPI   C2B  510  15.151   8.057   9.383 -0.4952  0.1786  0.0358
   32loPI   C3B  511  15.240   8.206   9.027 -0.0173 -0.0865 -0.0126
   32loPI   C4B  512  15.146   8.103   8.623 -0.2071 -0.0530  0.1513
   33loPI    C1  513  12.479   2.578  11.122 -0.1204  0.2599 -0.0909
   33loPI    C2  514  12.470   2.929  11.315 -0.2280  0.0957  0.2090
   33loPI    C3  515  12.629   2.607  11.492  0.0723  0.0401 -0.1492
   33loPI   PO4  516  12.583   2.772  10.818 -0.0659  0.1624  0.3565
   33loPI   GL1  517  12.518   2.774  10.416  0.0911  0.1311 -0.5060
   33loPI   GL2  518  12.179   2.680  10.441  0.1107  0.3097 -0.0658
   33loPI   C1A  519  12.487   2.739   9.957  0.1722  0.1838  0.0850
   33loPI   C2A  520  12.620   2.725   9.528  0.1306  0.0767  0.0385
   33loPI   C3A  521  12.565   2.773   9.063  0.2386  0.0570  0.1770
   33loPI   C4A  522  12.380   2.739   8.685 -0.1193  0.0400 -0.1303
   33loPI   C5A  523  12.202   2.465   8.336 -0.1354 -0.1123 -0.4010
   33loPI   C6A  524  11.987   1.999   8.290 -0.2092  0.1634  0.0465
   33loPI   C1B  525  12.016   2.516  10.091  0.0055 -0.2470  0.2344
   33loPI   C2B  526  12.123   2.434   9.723  0.2625  0.3092 -0.0968
   33loPI   C3B  527  12.192   2.435   9.314 -0.1185 -0.2976  0.1488
   33loPI   C4B  528  11.950   2.405   8.956  0.2330 -0.0732  0.0205
   34loPI    C1  529   3.503   1.069  11.839  0.1378  0.0647 -0.1868
   34loPI    C2  530   3.196   1.278  11.987 -0.0053 -0.2610 -0.0129
   34loPI    C3  531   3.522   1.218  12.210  0.0253 -0.2448 -0.0532
   34loPI   PO4  532   3.458   1.089  11.552  0.0361  0.0303  0.0337
   34loPI   GL1  533   3.479   1.039  11.115  0.0021 -0.1844 -0.1626
   34loPI   GL2  534   3.392   0.702  11.190 -0.0467 -0.0892  0.1966
   34loPI   C1A  535   3.586   1.275  10.744 -0.0010 -0.1649  0.1957
   34loPI   C2A  536   3.570   1.318  10.383  0.1841  0.1555 -0.2795
   34loPI   C3A  537   3.689   1.140   9.958  0.0304 -0.3476  0.0399
   34loPI   C4A  538   3.546   1.208   9.503  0.0208 -0.1012 -0.1029
   34loPI   C5A  539   3.445   1.072   9.144  0.0383 -0.0103  0.0162
   34loPI   C6A  540   3.053   0.966   8.928  0.0280 -0.0977 -0.0034
   34loPI   C1B  541   3.629   0.624  10.800 -0.0854 -0.1405 -0.0478
   34loPI   C2B  542   3.675   0.673  10.350  0.0676  0.0183  0.1225
   34loPI   C3B  543   3.637   0.621   9.960  0.0574  0.0208  0.0867
   34loPI   C4B  544   3.470   0.693   9.493 -0.1057  0.1741 -0.2068
   35loPI    C1  545  16.224   7.138  11.057  0.1541 -0.2062 -0.1132
   35loPI    C2  546  16.385   7.004  11.398  0.0117 -0.0453  0.0190
   35loPI    C3  547  16.606   7.218  11.143  0.0572  0.0235  0.1156
   35loPI   PO4  548  16.134   6.998  10.899  0.0991 -0.2243  0.0320
   35loPI   GL1  549  16.237   6.691  10.541  0.0416 -0.0047  0.1018
   35loPI   GL2  550  15.965   6.916  10.457 -0.2480  0.0655  0.5577
   35loPI   C1A  551  16.411   6.680  10.195 -0.2899 -0.3244  0.0278
   35loPI   C2A  552  16.495   6.609   9.704 -0.2124 -0.1099  0.2646
   35loPI   C3A  553  16.572   6.773   9.327 -0.1068 -0.0572  0.0845
   35loPI   C4A  554  16.607   6.909   8.861 -0.0573 -0.1924 -0.0634
   35loPI   C5A  555  16.705   6.927   8.379 -0.2807  0.1882  0.0261
   35loPI   C6A  556  16.627   6.724   7.941 -0.0398 -0.0105  0.0757
   35loPI   C1B  557  16.021   6.963  10.037 -0.0890  0.0376  0.3024
   35loPI   C2B  558  15.894   7.026   9.579  0.0222 -0.0184 -0.0563
   35loPI   C3B  559  16.122   7.128   9.154  0.1723  0.2711 -0.2203
   35loPI   C4B  560  16.181   7.137   8.680 -0.0313 -0.0055  0.2132
   36loPI    C1  561   0.599   9.360  11.114 -0.2712 -0.2372  0.2830
   36loPI    C2  562   0.633   9.249  11.497  0.1124  0.1701  0.3758
   36loPI    C3  563   0.667   9.635  11.397 -0.0606  0.0779 -0.0637
   36loPI   PO4  564   0.822   9.278  10.933  0.1419  0.1584 -0.0193
   36loPI   GL1  565   0.728   9.299  10.552  0.1465  0.1714  0.0458
   36loPI   GL2  566   0.700   9.548  10.415  0.1184 -0.1023  0.1610
   36loPI   C1A  567   0.829   9.061  10.151 -0.1150 -0.1238 -0.1785
   36loPI   C2A  568   0.791   9.042   9.789 -0.3935 -0.0667  0.2426
   36loPI   C3A  569   0.751   9.099   9.367 -0.1057 -0.0892  0.2277
   36loPI   C4A  570   0.880   9.171   8.914  0.4752 -0.0934  0.0062
   36loPI   C5A  571   1.141   9.154   8.631 -0.0712  0.0244  0.0842
   36loPI   C6A  572   1.264   9.013   8.203  0.1282 -0.2699  0.1016
   36loPI   C1B  573   0.768   9.504  10.051  0.1700 -0.0789 -0.0118
   36loPI   C2B  574   0.845   9.558   9.653  0.0126  0.0311  0.3036
   36loPI   C3B  575   0.858   9.616   9.213  0.0741 -0.0207 -0.3073
   36loPI   C4B  576   0.847   9.703   8.805 -0.0845  0.2133 -0.1870
   37loPI    C1  577   9.317   8.473  11.374  0.0134 -0.1533  0.2048
   37loPI    C2  578   9.283   8.141  11.595 -0.2336 -0.1900  0.1147
   37loPI    C3  579   9.063   8.464  11.683 -0.0697 -0.0842  0.1392
   37loPI   PO4  580   9.311   8.408  11.097 -0.0395 -0.0417  0.0683
   37loPI   GL1  581   9.297   8.428  10.696  0.1864 -0.2694  0.1024
   37loPI   GL2  582   9.316   8.789  10.508  0.1754 -0.0515 -0.2184
   37loPI   C1A  583   9.284   8.292  10.309 -0.2879 -0.2415  0.1347
   37loPI   C2A  584   9.208   8.359   9.819  0.0889  0.2285  0.2763
   37loPI   C3A  585   9.244   8.331   9.346 -0.0229  0.1320  0.0309
   37loPI   C4A  586   9.318   8.366   8.984 -0.2399 -0.0502 -0.1012
   37loPI   C5A  587   9.320   8.579   8.577  0.2969  0.0304  0.0750
   37loPI   C6A  588   9.502   8.889   8.259 -0.0659  0.0692  0.2186
   37loPI   C1B  589   9.355   8.762  10.196  0.0352  0.0736  0.1990
   37loPI   C2B  590   9.320   8.897   9.849  0.0118 -0.1232  0.1186
   37loPI   C3B  591   9.293   8.843   9.407 -0.1862 -0.2733  0.0418
   37loPI   C4B  592   9.325   8.912   8.935 -0.1067  0.3316 -0.0950
   38loPI    C1  593   9.216   0.350  11.627  0.1143  0.2087 -0.0250
   38loPI    C2  594   9.474   0.520  11.880  0.1871  0.2536 -0.1285
   38loPI    C3  595   9.132   0.365  12.018  0.3086  0.1142  0.0221
   38loPI   PO4  596   9.166   0.526  11.408  0.3064 -0.1966 -0.4233
   38loPI   GL1  597   9.241   0.498  10.971 -0.0691  0.1804 -0.2314
   38loPI   GL2  598   9.074   0.342  10.721  0.2532  0.1931 -0.2658
   38loPI   C1A  599   9.462   0.488  10.520  0.0567  0.1311  0.0393
   38loPI   C2A  600   9.371   0.389  10.220  0.3105 -0.2208 -0.0437
   38loPI   C3A  601   9.355   0.412   9.831 -0.0452  0.4243 -0.0765
   38loPI   C4A  602   9.276   0.340   9.466  0.0179 -0.0338 -0.0860
   38loPI   C5A  603   9.319   0.276   9.024  0.0180 -0.2282 -0.1929
   38loPI   C6A  604   9.210   0.279   8.521 -0.2105 -0.0719  0.2742
   38loPI   C1B  605   8.944   0.199  10.394 -0.0820 -0.0294  0.1981
   38loPI   C2B  606   8.935   0.200   9.974  0.1183 -0.0190  0.1091
   38loPI   C3B  607   8.835   0.084   9.578 -0.2678 -0.2413 -0.2384
   38loPI   C4B  608   8.866   0.097   9.182  0.1554  0.1843  0.2077
   39loPI    C1  609  11.923   1.910  11.328  0.0028 -0.0838  0.0804
   39loPI    C2  610  11.877   1.659  11.636  0.3012 -0.0188  0.1818
   39loPI    C3  611  12.136   1.572  11.344  0.0497 -0.0602 -0.0330
   39loPI   PO4  612  11.664   2.030  11.224  0.1208 -0.0085  0.0862
   39loPI   GL1  613  11.676   1.867  10.813 -0.1148 -0.3059  0.0800
   39loPI   GL2  614  12.016   1.685  10.852  0.1151  0.0278 -0.0863
   39loPI   C1A  615  11.525   1.780  10.424 -0.0711 -0.1640  0.1024
   39loPI   C2A  616  11.544   1.675   9.932 -0.0077  0.1276  0.0517
   39loPI   C3A  617  11.532   1.661   9.566  0.3555  0.0607  0.1328
   39loPI   C4A  618  11.580   1.624   9.070  0.0789 -0.0623  0.0600
   39loPI   C5A  619  11.756   1.750   8.689 -0.1342 -0.3314 -0.1945
   39loPI   C6A  620  11.428   1.840   8.433 -0.1226 -0.7515  0.4676
   39loPI   C1B  621  12.011   1.397  10.469  0.2051 -0.1425 -0.0315
   39loPI   C2B  622  12.028   1.405  10.009  0.3329  0.0815 -0.0454
   39loPI   C3B  623  12.070   1.433   9.581  0.0503 -0.2435 -0.0261
   39loPI   C4B  624  12.039   1.431   9.121 -0.1059  0.3009 -0.1158
   40loPI    C1  625  16.539   8.849  10.845 -0.0862  0.1382 -0.0414
   40loPI    C2  626  16.762   8.946  11.163 -0.0335 -0.0531 -0.0189
   40loPI    C3  627  16.418   9.138  11.093  0.0981  0.1891 -0.0093
   40loPI   PO4  628  16.706   8.785  10.683 -0.0638 -0.2113  0.0809
   40loPI   GL1  629  16.976   8.502  10.507 -0.0537 -0.4239 -0.1917
   40loPI   GL2  630  17.260   8.318  10.382 -0.1999 -0.1744 -0.0820
   40loPI   C1A  631  16.808   8.529  10.088 -0.2722  0.1322 -0.2408
   40loPI   C2A  632  16.928   8.575   9.723  0.1832  0.1337  0.0829
   40loPI   C3A  633  16.974   8.606   9.293 -0.3940 -0.2331  0.2661
   40loPI   C4A  634  17.054   8.596   8.860 -0.2931 -0.0269  0.0573
   40loPI   C5A  635  17.002   8.811   8.425 -0.1973  0.0050  0.3085
   40loPI   C6A  636  17.171   9.052   8.054 -0.0903 -0.2292  0.2529
   40loPI   C1B  637  17.283   8.239  10.064  0.0590  0.0697  0.2740
   40loPI   C2B  638  17.394   8.364   9.590 -0.0260  0.2208  0.0881
   40loPI   C3B  639  17.408   8.413   9.137  0.3071  0.0286 -0.1283
   40loPI   C4B  640  17.500   8.341   8.708  0.0957  0.1043  0.0127
   41loPI    C1  641   5.493   9.690  11.598 -0.1827 -0.0244  0.0076
   41loPI    C2  642   5.368  10.004  11.813  0.0546 -0.0553  0.1951
   41loPI    C3  643   5.759   9.944  11.755  0.0026 -0.1970 -0.0238
   41loPI   PO4  644   5.345   9.701  11.334  0.0407  0.4716 -0.4840
   41loPI   GL1  645   5.395   9.622  10.920  0.0401 -0.0420 -0.0059
   41loPI   GL2  646   5.365   9.329  10.857 -0.0239 -0.0860 -0.2771
   41loPI   C1A  647   5.322   9.643  10.439 -0.0803  0.2396 -0.0589
   41loPI   C2A  648   5.327   9.741  10.071 -0.1406 -0.0560 -0.1988
   41loPI   C3A  649   5.244   9.744   9.733  0.0447 -0.3992 -0.1075
   41loPI   C4A  650   5.346   9.767   9.331  0.2099 -0.0869 -0.2048
   41loPI   C5A  651   5.223   9.832   8.894 -0.3693 -0.0016 -0.4539
   41loPI   C6A  652   5.175   9.577   8.530 -0.0174  0.2436  0.2810
   41loPI   C1B  653   5.254   9.185  10.390  0.1498 -0.1026  0.3294
   41loPI   C2B  654   5.248   9.246   9.860  0.1133 -0.3507  0.2353
   41loPI   C3B  655   5.261   9.282   9.451  0.1027  0.0727 -0.0441
   41loPI   C4B  656   5.404   9.294   9.054 -0.0501  0.1400 -0.0189
   42loPI    C1  657   0.141   3.801  11.197 -0.1554 -0.1422  0.0632
   42loPI    C2  658   0.033   4.174  11.293  0.0284 -0.0702 -0.0049
   42loPI    C3  659   0.402   4.045  11.377 -0.0075 -0.2093 -0.0581
   42loPI   PO4  660   0.059   3.789  10.979  0.1276 -0.1497 -0.1297
   42loPI   GL1  661  -0.023   4.159  10.759 -0.0280  0.1171 -0.1446
   42loPI   GL2  662  -0.288   3.963  10.604  0.3513 -0.1067  0.1618
   42loPI   C1A  663  -0.017   4.327  10.286 -0.0152 -0.0630 -0.4614
   42loPI   C2A  664  -0.018   4.384   9.860  0.2811 -0.2061  0.3104
   42loPI   C3A  665   0.067   4.341   9.398 -0.2304 -0.0086 -0.0902
   42loPI   C4A  666   0.058   4.432   8.958 -0.0613 -0.4478  0.2642
   42loPI   C5A  667  -0.003   4.364   8.445 -0.0701  0.1429  0.3561
   42loPI   C6A  668   0.039   4.491   8.022 -0.2901  0.1067  0.2612
   42loPI   C1B  669  -0.020   3.829  10.216 -0.0635 -0.0964 -0.0198
   42loPI   C2B  670   0.031   3.896   9.774 -0.1468 -0.0517  0.0214
   42loPI   C3B  671   0.070   3.826   9.395  0.5454  0.1174 -0.0914
   42loPI   C4B  672   0.059   3.933   8.926 -0.2123 -0.0878  0.3227
   43loPI    C1  673  10.541   4.494  10.795  0.3215 -0.2886  0.2118
   43loPI    C2  674  10.551   4.408  11.185  0.1497 -0.2437  0.2268
   43loPI    C3  675  10.308   4.203  10.942  0.0924 -0.1231  0.1819
   43loPI   PO4  676  10.780   4.511  10.686  0.0609  0.2798 -0.2539
   43loPI   GL1  677  10.781   4.573  10.354  0.1091  0.1935  0.2269
   43loPI   GL2  678  11.018   4.672  10.203 -0.1767 -0.1346 -0.3650
   43loPI   C1A  679  10.756   4.249  10.134 -0.1087  0.1512  0.0557
   43loPI   C2A  680  10.403   4.067   9.834 -0.0015  0.2374  0.1637
   43loPI   C3A  681  10.380   3.903   9.407  0.1469 -0.3344  0.2896
   43loPI   C4A  682  10.291   3.920   8.958 -0.0966 -0.0198 -0.0183
   43loPI   C5A  683  10.267   3.657   8.673 -0.0819  0.0026 -0.0269
   43loPI   C6A  684  10.488   3.581   8.299 -0.2270 -0.0325  0.2257
   43loPI   C1B  685  11.072   4.812   9.812  0.1914 -0.3006  0.0699
   43loPI   C2B  686  11.122   4.918   9.414  0.1605 -0.0953  0.0370
   43loPI   C3B  687  11.209   5.119   9.045 -0.0331 -0.0467  0.0683
   43loPI   C4B  688  10.939   5.280   8.772  0.2561 -0.0367  0.0232
   44loPI    C1  689  15.961   2.004  11.494  0.3712  0.3926  0.4368
   44loPI    C2  690  16.275   1.767  11.565 -0.1047 -0.3676  0.1382
   44loPI    C3  691  15.918   1.679  11.723 -0.3418  0.0439 -0.1487
   44loPI   PO4  692  15.930   1.959  11.258  0.2106 -0.1489 -0.2286
   44loPI   GL1  693  15.632   1.924  10.880  0.1858 -0.2219  0.1082
   44loPI   GL2  694  15.925   1.712  10.794  0.0162 -0.4419  0.0138
   44loPI   C1A  695  15.582   1.992  10.443 -0.2232 -0.0624  0.1691
   44loPI   C2A  696  15.679   2.014   9.971 -0.0084 -0.2058  0.1759
   44loPI   C3A  697  15.718   1.943   9.578  0.1625 -0.2222 -0.1359
   44loPI   C4A  698  15.659   2.019   9.149  0.2142  0.3237  0.1513
   44loPI   C5A  699  15.637   2.120   8.675 -0.0313 -0.0692  0.2558
   44loPI   C6A  700  15.464   2.371   8.382  0.1977 -0.1318  0.1143
   44loPI   C1B  701  16.001   1.772  10.387 -0.0585  0.2144 -0.0717
   44loPI   C2B  702  16.063   1.688  10.002  0.2419  0.1563  0.1529
   44loPI   C3B  703  16.146   1.743   9.594 -0.2076 -0.0886  0.1185
   44loPI   C4B  704  16.184   1.673   9.146 -0.0009 -0.0926  0.2118
   45loPI    C1  705   6.551  11.919  11.580 -0.0534  0.0886 -0.2346
   45loPI    C2  706   6.227  12.070  11.400 -0.2157  0.1440  0.0963
   45loPI    C3  707   6.187  11.850  11.732  0.0693 -0.0662 -0.0046
   45loPI   PO4  708   6.742  11.795  11.277  0.1762 -0.3754 -0.0229
   45loPI   GL1  709   6.762  11.533  10.975  0.2261 -0.0960  0.1201
   45loPI   GL2  710   7.026  11.436  10.693 -0.1982  0.2604  0.0997
   45loPI   C1A  711   6.646  11.655  10.538  0.0419  0.1389  0.2050
   45loPI   C2A  712   6.583  11.561  10.082  0.0402  0.2747 -0.0367
   45loPI   C3A  713   6.627  11.516   9.645 -0.1281  0.3049 -0.0559
   45loPI   C4A  714   6.653  11.474   9.225  0.0143 -0.1044  0.2546
   45loPI   C5A  715   6.821  11.582   8.822  0.0203  0.0572 -0.1559
   45loPI   C6A  716   6.714  11.955   8.438 -0.0112 -0.1979 -0.0018
   45loPI   C1B  717   6.994  11.304  10.280 -0.2256 -0.2390  0.0469
   45loPI   C2B  718   7.167  11.206   9.954  0.1937  0.1766  0.2469
   45loPI   C3B  719   7.097  11.252   9.569  0.2496  0.1270 -0.1056
   45loPI   C4B  720   7.123  11.256   9.172 -0.4720 -0.0901 -0.0227
   46loPI    C1  721   5.097  16.798  11.558  0.2181  0.1691 -0.0747
   46loPI    C2  722   5.227  16.549  11.843 -0.1433 -0.0932 -0.1331
   46loPI    C3  723   5.043  16.890  11.943  0.0233 -0.0260 -0.0536
   46loPI   PO4  724   5.283  16.840  11.379 -0.1461 -0.0409 -0.1473
   46loPI   GL1  725   5.213  16.769  10.909  0.0011  0.0694 -0.0576
   46loPI   GL2  726   5.342  16.458  10.942  0.1518 -0.1368 -0.0980
   46loPI   C1A  727   5.298  17.035  10.565  0.3236 -0.1943  0.2207
   46loPI   C2A  728   5.379  17.043  10.131 -0.1806  0.0707  0.2257
   46loPI   C3A  729   5.376  17.114   9.706  0.3191 -0.5028 -0.1262
   46loPI   C4A  730   5.321  17.043   9.312  0.2565 -0.0445  0.0477
   46loPI   C5A  731   5.276  16.910   8.982  0.1119 -0.1767 -0.1265
   46loPI   C6A  732   5.375  16.624   8.694  0.0275  0.1108 -0.3180
   46loPI   C1B  733   5.337  16.490  10.480  0.3951  0.1761  0.1491
   46loPI   C2B  734   5.305  16.498  10.033  0.1834 -0.0810  0.3058
   46loPI   C3B  735   5.282  16.675   9.658  0.0423  0.2329  0.0090
   46loPI   C4B  736   5.298  16.457   9.309 -0.3233 -0.0628 -0.4517
   47loPI    C1  737  17.845   9.731  11.034 -0.0666 -0.0743 -0.1332
   47loPI    C2  738  17.682   9.510  11.325  0.0459 -0.1305 -0.1127
   47loPI    C3  739  18.070   9.606  11.340  0.1023 -0.3117 -0.3503
   47loPI   PO4  740  17.735   9.616  10.831 -0.2050  0.1094 -0.2238
   47loPI   GL1  741  17.786   9.460  10.490 -0.1524 -0.2257 -0.0528
   47loPI   GL2  742  17.795   9.197  10.540  0.0174  0.1484  0.0135
   47loPI   C1A  743  17.866   9.535  10.041 -0.3418 -0.1272  0.0502
   47loPI   C2A  744  17.841   9.624   9.533  0.1799 -0.1988  0.4426
   47loPI   C3A  745  17.859   9.664   9.132  0.0800 -0.1657 -0.0855
   47loPI   C4A  746  17.902   9.672   8.787  0.1034  0.2673  0.1003
   47loPI   C5A  747  17.862   9.608   8.361 -0.1607 -0.4028 -0.1103
   47loPI   C6A  748  17.571   9.497   8.031  0.1271 -0.2785 -0.2415
   47loPI   C1B  749  17.815   8.979  10.184 -0.2280 -0.0786 -0.0172
   47loPI   C2B  750  17.772   9.140   9.657  0.2118 -0.2307 -0.0405
   47loPI   C3B  751  17.928   9.134   9.227 -0.0199 -0.0807  0.1293
   47loPI   C4B  752  17.922   9.165   8.752  0.0639 -0.3630  0.0441
   48loPI    C1  753   2.713  12.860  11.389  0.0598  0.3048 -0.0620
   48loPI    C2  754   2.788  13.027  11.745 -0.0098  0.3051 -0.0474
   48loPI    C3  755   2.442  12.836  11.682  0.1995 -0.1170  0.0406
   48loPI   PO4  756   3.004  12.696  11.309  0.1356 -0.0882  0.2066
   48loPI   GL1  757   3.017  12.370  11.064  0.3683  0.1005  0.1413
   48loPI   GL2  758   3.388  12.413  11.032  0.2661 -0.2229  0.0323
   48loPI   C1A  759   3.056  12.423  10.662 -0.2154 -0.1221  0.0842
   48loPI   C2A  760   3.042  12.606  10.281  0.2243 -0.1743 -0.0676
   48loPI   C3A  761   3.111  12.565   9.914  0.2921 -0.1698  0.0796
   48loPI   C4A  762   3.081  12.574   9.520  0.3402 -0.1414 -0.0641
   48loPI   C5A  763   3.036  12.545   9.067 -0.1318 -0.2435 -0.0548
   48loPI   C6A  764   3.157  12.363   8.657 -0.1948 -0.0670  0.2197
   48loPI   C1B  765   3.516  12.300  10.560  0.1730 -0.1944  0.0931
   48loPI   C2B  766   3.479  12.358  10.194  0.2498 -0.0742  0.1102
   48loPI   C3B  767   3.498  12.317   9.687 -0.1197  0.2645 -0.1015
   48loPI   C4B  768   3.496  12.305   9.175  0.2491 -0.2456  0.0249
   49loPI    C1  769   0.300  13.817  11.548 -0.0437 -0.0095 -0.0558
   49loPI    C2  770   0.366  14.171  11.374 -0.1911  0.0912  0.0898
   49loPI    C3  771   0.310  14.149  11.770  0.0614 -0.1259  0.1163
   49loPI   PO4  772   0.504  13.684  11.357  0.0606 -0.1338  0.2355
   49loPI   GL1  773   0.374  13.598  10.971 -0.0885  0.2527 -0.0130
   49loPI   GL2  774   0.288  13.915  10.962 -0.0159  0.4187  0.0941
   49loPI   C1A  775   0.295  13.544  10.556  0.0752 -0.1121 -0.0047
   49loPI   C2A  776   0.290  13.688  10.291  0.1247 -0.0619 -0.1099
   49loPI   C3A  777   0.281  13.671   9.861  0.1437 -0.1928 -0.0998
   49loPI   C4A  778   0.308  13.571   9.428 -0.2242  0.0630  0.2594
   49loPI   C5A  779   0.461  13.613   8.972 -0.2796 -0.0798 -0.0234
   49loPI   C6A  780   0.600  13.718   8.675 -0.0680 -0.2788  0.1878
   49loPI   C1B  781   0.339  14.137  10.524  0.0486  0.0524 -0.3928
   49loPI   C2B  782   0.301  14.184  10.115 -0.0395  0.0677  0.2718
   49loPI   C3B  783   0.298  14.114   9.626 -0.1182 -0.1609  0.1060
   49loPI   C4B  784   0.361  14.099   9.235 -0.1374 -0.0121  0.1667
   50loPI    C1  785   1.081  11.844  11.246 -0.0066  0.0105  0.0823
   50loPI    C2  786   0.951  11.562  11.499  0.0543 -0.0532  0.0433
   50loPI    C3  787   1.240  11.814  11.612  0.1460 -0.1410  0.0052
   50loPI   PO4  788   0.849  11.906  11.098  0.2003  0.1538  0.3937
   50loPI   GL1  789   0.579  11.863  10.768 -0.3677 -0.2372 -0.1539
   50loPI   GL2  790   0.693  11.689  10.655 -0.1164 -0.1115 -0.0383
   50loPI   C1A  791   0.444  11.958  10.362  0.0770  0.1034 -0.6832
   50loPI   C2A  792   0.371  12.124  10.016  0.1460  0.1002 -0.1876
   50loPI   C3A  793   0.351  12.001   9.558 -0.0432 -0.2567 -0.2447
   50loPI   C4A  794   0.442  12.003   9.156  0.1262  0.2151  0.0048
   50loPI   C5A  795   0.452  12.041   8.734 -0.0587  0.2041  0.0881
   50loPI   C6A  796   0.426  12.430   8.462 -0.3542  0.0443 -0.1959
   50loPI   C1B  797   0.865  11.767  10.204  0.1400  0.1510 -0.0615
   50loPI   C2B  798   0.852  11.747   9.779  0.0139  0.3653 -0.1047
   50loPI   C3B  799   0.870  11.822   9.289 -0.1010 -0.1104  0.2988
   50loPI   C4B  800   0.961  11.786   8.819 -0.0256  0.1123  0.2150
   51loPI    C1  801  14.327   6.525  11.113  0.0652  0.0052  0.1081
   51loPI    C2  802  14.341   6.865  11.323 -0.1003  0.0689  0.0181
   51loPI    C3  803  14.283   6.516  11.510 -0.2435  0.1249  0.0800
   51loPI   PO4  804  14.258   6.524  10.951 -0.0149  0.4152  0.1947
   51loPI   GL1  805  14.257   6.496  10.508  0.1919 -0.0898  0.2279
   51loPI   GL2  806  14.223   6.808  10.446  0.3757  0.3925 -0.2581
   51loPI   C1A  807  14.191   6.401  10.125 -0.0363  0.2012  0.0302
   51loPI   C2A  808  14.233   6.387   9.709  0.1609 -0.1093  0.3595
   51loPI   C3A  809  14.256   6.375   9.301  0.1006 -0.1061  0.1075
   51loPI   C4A  810  14.276   6.442   8.869 -0.2034  0.1942 -0.0396
   51loPI   C5A  811  14.553   6.551   8.427 -0.3445  0.1786  0.0399
   51loPI   C6A  812  14.662   6.855   8.082  0.0212  0.4591 -0.0867
   51loPI   C1B  813  14.261   6.877  10.046  0.0291 -0.0859 -0.0536
   51loPI   C2B  814  14.250   6.929   9.550 -0.1963  0.1770  0.2947
   51loPI   C3B  815  14.339   6.993   9.133  0.0032 -0.0130  0.1892
   51loPI   C4B  816  14.309   6.959   8.640 -0.2413 -0.0047  0.1341
   52loPI    C1  817  17.538   8.033  11.053 -0.1686  0.1030  0.1203
   52loPI    C2  818  17.811   8.302  11.169  0.0019  0.0536 -0.1566
   52loPI    C3  819  17.550   8.154  11.434 -0.0417  0.4295  0.0161
   52loPI   PO4  820  17.559   8.080  10.739 -0.3990 -0.3219 -0.0540
   52loPI   GL1  821  17.733   8.119  10.322 -0.3674  0.2361 -0.2457
   52loPI   GL2  822  17.954   8.239  10.339  0.0720 -0.0953 -0.1848
   52loPI   C1A  823  17.765   8.094   9.841  0.0058  0.0853  0.3271
   52loPI   C2A  824  17.814   8.096   9.398 -0.2331 -0.1617  0.0311
   52loPI   C3A  825  17.944   8.162   8.967  0.0745 -0.1513  0.0851
   52loPI   C4A  826  17.935   8.109   8.641  0.1668 -0.1566  0.4899
   52loPI   C5A  827  17.986   8.103   8.233 -0.1552  0.0187  0.1235
   52loPI   C6A  828  17.827   8.356   7.895  0.1700  0.2798 -0.2848
   52loPI   C1B  829  18.179   8.296  10.039 -0.1513  0.3248 -0.1142
   52loPI   C2B  830  18.274   8.298   9.629  0.1739  0.0350 -0.0510
   52loPI   C3B  831  18.302   8.366   9.205  0.0624  0.2154 -0.0674
   52loPI   C4B  832  18.390   8.324   8.733 -0.2048  0.2294 -0.0350
   53loPI    C1  833   6.819   8.417  11.389 -0.2882 -0.1887 -0.1651
   53loPI    C2  834   7.103   8.143  11.452  0.1368  0.2337 -0.1800
   53loPI    C3  835   6.921   8.316  11.762 -0.1402 -0.0643 -0.1705
   53loPI   PO4  836   6.864   8.532  11.171 -0.0232 -0.1787 -0.2155
   53loPI   GL1  837   6.700   8.430  10.732 -0.0500 -0.1432 -0.0656
   53loPI   GL2  838   6.687   8.855  10.628 -0.0440  0.3534 -0.2448
   53loPI   C1A  839   6.540   8.374  10.332  0.3112 -0.1667 -0.0190
   53loPI   C2A  840   6.558   8.392   9.863  0.0518 -0.1361 -0.0043
   53loPI   C3A  841   6.665   8.413   9.458 -0.0740  0.2787  0.2059
   53loPI   C4A  842   6.627   8.435   9.106  0.0572 -0.0619 -0.0249
   53loPI   C5A  843   6.787   8.658   8.712  0.1380  0.0922 -0.2743
   53loPI   C6A  844   6.997   8.893   8.389  0.2568 -0.0334  0.2783
   53loPI   C1B  845   6.629   8.848  10.166 -0.0270 -0.5132  0.0498
   53loPI   C2B  846   6.621   8.955   9.698  0.2311  0.2910 -0.0027
   53loPI   C3B  847   6.603   9.010   9.328  0.0132  0.0491  0.3161
   53loPI   C4B  848   6.751   9.112   8.918  0.0349 -0.0531 -0.0469
   54loPI    C1  849  12.888   5.591  10.980  0.0780 -0.1910  0.1198
   54loPI    C2  850  13.252   5.545  10.822  0.0566 -0.0535  0.0285
   54loPI    C3  851  13.212   5.687  11.193  0.0916  0.0782 -0.0179
   54loPI   PO4  852  12.748   5.810  10.760 -0.1198 -0.0717 -0.2439
   54loPI   GL1  853  12.731   6.054  10.468  0.0379 -0.0630 -0.0436
   54loPI   GL2  854  12.430   5.763  10.354 -0.2451 -0.2671  0.4721
   54loPI   C1A  855  12.915   6.214  10.049  0.1887  0.0950 -0.0598
   54loPI   C2A  856  12.862   6.259   9.519 -0.2727  0.3071  0.1547
   54loPI   C3A  857  12.951   6.208   9.125 -0.3872  0.1568 -0.2376
   54loPI   C4A  858  12.920   6.285   8.649  0.1145 -0.2058 -0.0872
   54loPI   C5A  859  12.758   6.095   8.258 -0.1614  0.1144  0.1530
   54loPI   C6A  860  12.401   6.110   8.056 -0.2738  0.3252 -0.1572
   54loPI   C1B  861  12.405   5.930   9.800  0.1897  0.1731 -0.2924
   54loPI   C2B  862  12.442   5.984   9.350  0.0284  0.0726 -0.0867
   54loPI   C3B  863  12.532   6.005   8.942 -0.1922  0.0496 -0.0468
   54loPI   C4B  864  12.413   6.104   8.589 -0.0847 -0.1258 -0.2274
   55loPI    C1  865   9.374  14.437  11.531  0.0971  0.0228  0.0245
   55loPI    C2  866   8.999  14.477  11.665  0.0630 -0.1184 -0.0262
   55loPI    C3  867   9.301  14.654  11.858 -0.0558  0.1986 -0.1241
   55loPI   PO4  868   9.358  14.445  11.334  0.0821 -0.0516 -0.1615
   55loPI   GL1  869   9.279  14.553  10.923  0.0939 -0.3213 -0.1518
   55loPI   GL2  870   9.298  14.193  10.831 -0.0639  0.0815  0.0572
   55loPI   C1A  871   9.321  14.575  10.541 -0.0258 -0.0965  0.0168
   55loPI   C2A  872   9.203  14.773  10.159  0.0730  0.2095  0.0358
   55loPI   C3A  873   9.228  14.675   9.822 -0.1588  0.0114  0.1567
   55loPI   C4A  874   9.336  14.655   9.299  0.2608  0.3428  0.1938
   55loPI   C5A  875   9.348  14.481   8.939 -0.2408 -0.5091 -0.2630
   55loPI   C6A  876   9.507  14.053   8.695 -0.1603 -0.3204 -0.0261
   55loPI   C1B  877   9.244  14.125  10.384  0.0207 -0.1243 -0.0891
   55loPI   C2B  878   9.336  14.217   9.951 -0.0412 -0.1309  0.0079
   55loPI   C3B  879   9.338  14.174   9.570 -0.2212 -0.1455 -0.1598
   55loPI   C4B  880   9.391  14.066   9.194  0.2546  0.2944  0.1257
   56loPI    C1  881   9.429  16.071  11.556  0.1355 -0.2086 -0.0982
   56loPI    C2  882   9.268  16.085  11.922  0.3164  0.3119 -0.0288
   56loPI    C3  883   9.626  15.915  11.868  0.0543 -0.2512 -0.0681
   56loPI   PO4  884   9.238  15.960  11.441 -0.1663  0.1133  0.2401
   56loPI   GL1  885   9.037  15.970  11.034  0.0261 -0.1003  0.1056
   56loPI   GL2  886   8.674  15.957  11.000  0.2179 -0.1310 -0.0303
   56loPI   C1A  887   9.083  15.821  10.661  0.0562 -0.2169  0.1427
   56loPI   C2A  888   8.822  15.963  10.331  0.1333 -0.0237  0.0475
   56loPI   C3A  889   8.812  16.022  10.031 -0.1686 -0.3083 -0.1135
   56loPI   C4A  890   8.819  15.961   9.562 -0.3045 -0.1455 -0.1258
   56loPI   C5A  891   8.845  15.829   9.158 -0.1018 -0.1576  0.2990
   56loPI   C6A  892   9.128  15.749   8.839 -0.0921 -0.0692 -0.2172
   56loPI   C1B  893   8.424  15.851  10.662 -0.1799  0.1804 -0.1182
   56loPI   C2B  894   8.400  15.752  10.124  0.1551 -0.0436 -0.1771
   56loPI   C3B  895   8.402  15.724   9.766 -0.0593  0.1776 -0.2190
   56loPI   C4B  896   8.478  15.589   9.382  0.1664  0.0108  0.1093
   57loPI    C1  897   8.391   2.950  11.124  0.1018  0.0965  0.0232
   57loPI    C2  898   8.355   3.336  11.223 -0.4162  0.0282  0.1272
   57loPI    C3  899   8.361   3.056  11.509  0.1671 -0.0342  0.0648
   57loPI   PO4  900   8.330   2.997  10.883  0.1152  0.0199 -0.0205
   57loPI   GL1  901   8.398   2.790  10.575  0.2204  0.0145  0.1187
   57loPI   GL2  902   8.742   2.818  10.464  0.0210  0.0825 -0.0233
   57loPI   C1A  903   8.378   3.025  10.178 -0.1812  0.1668  0.1421
   57loPI   C2A  904   8.564   3.108   9.791  0.2305 -0.0146  0.0901
   57loPI   C3A  905   8.642   3.271   9.419 -0.0417  0.1384  0.2903
   57loPI   C4A  906   8.681   3.308   8.938  0.2692 -0.0070  0.0427
   57loPI   C5A  907   8.790   3.163   8.516  0.1414  0.2129  0.0160
   57loPI   C6A  908   8.533   2.925   8.248 -0.3019 -0.0952 -0.1643
   57loPI   C1B  909   8.949   2.916  10.103 -0.1370  0.0654 -0.0305
   57loPI   C2B  910   8.931   2.810   9.654  0.0718 -0.1511 -0.0130
   57loPI   C3B  911   9.077   2.713   9.331 -0.1766 -0.1546  0.1193
   57loPI   C4B  912   9.199   2.530   8.983  0.0298  0.0452 -0.1819
   58loPI    C1  913  15.339  13.401  11.307 -0.3260 -0.0101  0.2799
   58loPI    C2  914  15.716  13.521  11.369 -0.1028 -0.2822 -0.4374
   58loPI    C3  915  15.418  13.788  11.372  0.1190 -0.0290 -0.0925
   58loPI   PO4  916  15.306  13.248  11.250 -0.3566  0.1206  0.0973
   58loPI   GL1  917  15.347  13.279  10.787  0.1798 -0.0829  0.0154
   58loPI   GL2  918  15.624  13.593  10.885 -0.1347 -0.1394 -0.2435
   58loPI   C1A  919  15.218  13.280  10.378  0.2870  0.1046  0.1361
   58loPI   C2A  920  15.122  13.280   9.908 -0.2133 -0.3366  0.0547
   58loPI   C3A  921  15.138  13.254   9.461 -0.0035 -0.2509  0.1122
   58loPI   C4A  922  15.126  13.220   8.980 -0.1778  0.1240  0.1331
   58loPI   C5A  923  15.088  13.442   8.605 -0.2826  0.1033 -0.3267
   58loPI   C6A  924  15.404  13.418   8.283  0.2560 -0.0268  0.2869
   58loPI   C1B  925  15.670  13.501  10.500 -0.1207  0.2714  0.1441
   58loPI   C2B  926  15.526  13.584  10.107 -0.2353  0.0252  0.1970
   58loPI   C3B  927  15.609  13.471   9.682 -0.2118 -0.2579  0.0986
   58loPI   C4B  928  15.583  13.499   9.202  0.2650  0.1252  0.0359
   59loPI    C1  929  11.028   5.493  10.875  0.2956  0.0040  0.3912
   59loPI    C2  930  10.717   5.671  11.051  0.0071 -0.1743  0.0750
   59loPI    C3  931  10.898   5.363  11.230 -0.1505 -0.2222  0.1541
   59loPI   PO4  932  11.025   5.536  10.690 -0.0014  0.2714  0.0145
   59loPI   GL1  933  11.261   5.677  10.386 -0.0769 -0.1173  0.1703
   59loPI   GL2  934  11.210   5.983  10.323  0.1092  0.0131 -0.0703
   59loPI   C1A  935  11.475   5.695   9.988  0.1032  0.2553 -0.0126
   59loPI   C2A  936  11.526   5.923   9.747  0.2395  0.0510  0.0068
   59loPI   C3A  937  11.503   5.882   9.242  0.1388  0.1730  0.1947
   59loPI   C4A  938  11.627   6.040   8.907  0.1662 -0.2170  0.0690
   59loPI   C5A  939  11.374   6.319   8.722 -0.1268 -0.0404 -0.1901
   59loPI   C6A  940  11.165   6.425   8.354  0.0084  0.2993 -0.0603
   59loPI   C1B  941  11.048   5.956   9.962  0.0016 -0.0610  0.0188
   59loPI   C2B  942  10.978   6.053   9.512  0.0655 -0.0540 -0.0834
   59loPI   C3B  943  11.135   6.280   9.138 -0.0000  0.1692  0.0987
   59loPI   C4B  944  10.788   6.320   8.714  0.2615 -0.1753 -0.1159
   60loPI    C1  945  14.064  16.575  11.536  0.1275 -0.0524 -0.0146
   60loPI    C2  946  13.879  16.239  11.651  0.0220  0.0326  0.0660
   60loPI    C3  947  13.925  16.541  11.910  0.1777  0.0542  0.0142
   60loPI   PO4  948  13.955  16.573  11.288 -0.1176  0.3027  0.0757
   60loPI   GL1  949  14.129  16.547  10.897 -0.0331  0.0690 -0.3724
   60loPI   GL2  950  13.638  16.674  10.936 -0.4950 -0.0744  0.2130
   60loPI   C1A  951  14.191  16.392  10.442  0.2040  0.0740  0.2417
   60loPI   C2A  952  14.172  16.375  10.005  0.2919  0.0551 -0.0600
   60loPI   C3A  953  14.320  16.358   9.515  0.6133  0.0392 -0.0633
   60loPI   C4A  954  14.239  16.483   9.049 -0.4008 -0.0068  0.2073
   60loPI   C5A  955  14.193  16.360   8.647 -0.1306 -0.2077  0.2182
   60loPI   C6A  956  14.347  16.028   8.364  0.2264  0.2139  0.1089
   60loPI   C1B  957  13.776  16.692  10.436 -0.4711 -0.1362 -0.1972
   60loPI   C2B  958  13.801  16.748  10.058  0.1678 -0.0923 -0.2592
   60loPI   C3B  959  13.784  16.627   9.614  0.3207  0.0560 -0.1528
   60loPI   C4B  960  13.863  16.722   9.269  0.0853 -0.0705 -0.1212
   61loPI    C1  961  14.526   7.289  11.192  0.1499  0.1951 -0.1468
   61loPI    C2  962  14.476   7.629  11.397  0.2936  0.1955 -0.1114
   61loPI    C3  963  14.659   7.318  11.568  0.1644  0.1005 -0.1445
   61loPI   PO4  964  14.604   7.409  10.923 -0.1056  0.1606 -0.1810
   61loPI   GL1  965  14.406   7.479  10.491 -0.0438  0.3301  0.0769
   61loPI   GL2  966  14.647   7.130  10.545  0.1897 -0.0800 -0.1314
   61loPI   C1A  967  14.199   7.369  10.087  0.0777  0.0219  0.2349
   61loPI   C2A  968  14.222   7.450   9.626  0.0343 -0.4944 -0.0828
   61loPI   C3A  969  14.275   7.624   9.172  0.0843  0.1608  0.0298
   61loPI   C4A  970  14.274   7.616   8.729  0.2951  0.2522 -0.1412
   61loPI   C5A  971  14.045   7.417   8.404 -0.1092  0.0185 -0.0301
   61loPI   C6A  972  13.759   7.492   8.135 -0.3237  0.0360 -0.2742
   61loPI   C1B  973  14.740   7.197  10.178 -0.0584 -0.0542 -0.3220
   61loPI   C2B  974  14.646   7.150   9.736 -0.5916 -0.2292  0.4376
   61loPI   C3B  975  14.667   7.323   9.350 -0.3128  0.2047  0.0508
   61loPI   C4B  976  14.820   7.393   8.945 -0.0779  0.0373 -0.1264
   62loPI    C1  977  17.752   3.371  11.264  0.1046 -0.1287 -0.0324
   62loPI    C2  978  17.967   3.035  11.283  0.0143 -0.1827  0.0458
   62loPI    C3  979  18.101   3.368  11.459  0.0737 -0.1943  0.0226
   62loPI   PO4  980  17.665   3.307  10.960 -0.1243  0.3160  0.3197
   62loPI   GL1  981  17.752   3.479  10.597 -0.1616 -0.0709  0.1000
   62loPI   GL2  982  17.918   3.346  10.373  0.1266  0.4211  0.1397
   62loPI   C1A  983  17.478   3.551  10.218  0.0402 -0.1324 -0.2260
   62loPI   C2A  984  17.466   3.677   9.810  0.1664  0.0222  0.2830
   62loPI   C3A  985  17.438   3.606   9.442  0.0278  0.2776  0.1245
   62loPI   C4A  986  17.455   3.652   8.970 -0.0207  0.1146  0.0081
   62loPI   C5A  987  17.297   3.508   8.657  0.2249 -0.1239 -0.0744
   62loPI   C6A  988  17.010   3.219   8.614 -0.0447  0.2184  0.3067
   62loPI   C1B  989  17.895   3.395   9.990 -0.2138  0.3176 -0.1355
   62loPI   C2B  990  17.930   3.406   9.619 -0.0256  0.2218 -0.2813
   62loPI   C3B  991  17.914   3.356   9.194  0.2405 -0.0481  0.0752
   62loPI   C4B  992  17.870   3.458   8.719  0.4606  0.1060  0.2314
   63loPI    C1  993   6.814  16.500  11.716  0.0541  0.0976  0.3680
   63loPI    C2  994   6.893  16.174  11.933 -0.1731 -0.1310  0.1152
   63loPI    C3  995   6.606  16.427  12.050  0.0153 -0.0083  0.3209
   63loPI   PO4  996   6.705  16.384  11.434 -0.4113  0.0240  0.0293
   63loPI   GL1  997   6.778  16.223  11.122 -0.0718 -0.2234  0.1731
   63loPI   GL2  998   7.049  16.366  10.943 -0.2188 -0.0146 -0.3455
   63loPI   C1A  999   6.577  16.285  10.669 -0.1715  0.0410 -0.0232
   63loPI   C2A 1000   6.561  16.325  10.278 -0.2065 -0.0563  0.2516
   63loPI   C3A 1001   6.572  16.275   9.859 -0.1912 -0.3810 -0.0323
   63loPI   C4A 1002   6.648  16.241   9.492  0.1365  0.0301 -0.1224
   63loPI   C5A 1003   6.585  16.204   9.090  0.1243  0.1425 -0.0270
   63loPI   C6A 1004   6.366  16.373   8.805 -0.0571 -0.2332  0.0439
   63loPI   C1B 1005   7.050  16.479  10.556  0.0593 -0.1342  0.0404
   63loPI   C2B 1006   7.045  16.545  10.103 -0.3351 -0.5652  0.1522
   63loPI   C3B 1007   7.042  16.519   9.634  0.0468 -0.2417  0.2508
   63loPI   C4B 1008   7.038  16.452   9.124 -0.2727  0.0386  0.1932
   64loPI    C1 1009  14.192   1.958  11.388  0.3547  0.1010  0.2660
   64loPI    C2 1010  14.093   1.571  11.372  0.1852  0.1549 -0.0942
   64loPI    C3 1011  14.209   1.734  11.719 -0.1458 -0.1189  0.1520
   64loPI   PO4 1012  14.112   2.043  11.233 -0.2588 -0.0221  0.0798
   64loPI   GL1 1013  13.886   1.874  10.846 -0.0275  0.5072  0.1200
   64loPI   GL2 1014  13.761   2.164  10.876 -0.1089 -0.1383  0.0496
   64loPI   C1A 1015  14.200   1.714  10.428  0.2848 -0.0628 -0.1598
   64loPI   C2A 1016  14.327   1.665  10.009  0.2063  0.0349 -0.1143
   64loPI   C3A 1017  14.295   1.743   9.547 -0.2250 -0.1165 -0.0608
   64loPI   C4A 1018  14.272   1.749   9.194  0.0156  0.1099 -0.2925
   64loPI   C5A 1019  14.144   1.479   8.943 -0.1067 -0.4750 -0.2701
   64loPI   C6A 1020  13.895   1.149   8.804  0.1965 -0.0213 -0.0470
   64loPI   C1B 1021  13.766   1.991  10.420  0.1517  0.0799 -0.2406
   64loPI   C2B 1022  13.878   2.018   9.898 -0.1046 -0.0285 -0.1613
   64loPI   C3B 1023  13.911   2.000   9.401  0.0475 -0.3006 -0.1478
   64loPI   C4B 1024  13.858   1.949   8.985 -0.0145  0.1116  0.0198
   65loPI    C1 1025   0.971   8.494  11.092  0.2023  0.2497 -0.0904
   65loPI    C2 1026   0.961   8.877  11.209  0.2915  0.1592  0.2233
   65loPI    C3 1027   1.102   8.595  11.456  0.0441 -0.1047  0.0702
   65loPI   PO4 1028   1.130   8.468  10.926  0.2485  0.1082 -0.2336
   65loPI   GL1 1029   1.108   8.519  10.514 -0.1822 -0.0486  0.0041
   65loPI   GL2 1030   1.249   8.300  10.222 -0.2006 -0.2360 -0.1445
   65loPI   C1A 1031   1.301   8.802  10.249 -0.0032  0.1331  0.0404
   65loPI   C2A 1032   1.246   8.818   9.801  0.2445  0.0804  0.2197
   65loPI   C3A 1033   1.303   8.771   9.363  0.0479 -0.1537  0.0807
   65loPI   C4A 1034   1.337   8.911   8.988 -0.0172  0.1283 -0.0533
   65loPI   C5A 1035   1.459   8.805   8.541  0.0679  0.0875 -0.1835
   65loPI   C6A 1036   1.728   8.648   8.387 -0.2218 -0.0341  0.2788
   65loPI   C1B 1037   1.350   8.337   9.814 -0.1147 -0.2187 -0.0177
   65loPI   C2B 1038   1.238   8.294   9.478 -0.2012  0.0350  0.1690
   65loPI   C3B 1039   1.402   8.357   9.085  0.0236  0.0147 -0.2489
   65loPI   C4B 1040   1.220   8.202   8.618  0.2618  0.0949 -0.1923
   66loPI    C1 1041   0.091   9.190  10.983  0.0600  0.1607 -0.1189
   66loPI    C2 1042  -0.014   8.816  11.079  0.0663  0.2179  0.1168
   66loPI    C3 1043  -0.294   9.080  10.969  0.0423  0.1898  0.1101
   66loPI   PO4 1044   0.290   9.114  10.760 -0.1314  0.1411 -0.3391
   66loPI   GL1 1045   0.376   8.957  10.374 -0.1952 -0.0693  0.0481
   66loPI   GL2 1046   0.309   9.288  10.246 -0.2347 -0.0371 -0.2316
   66loPI   C1A 1047   0.356   8.843   9.939  0.0550  0.0200  0.0727
   66loPI   C2A 1048   0.363   8.832   9.528 -0.1189  0.2013 -0.0244
   66loPI   C3A 1049   0.388   8.862   9.019 -0.4749 -0.1185  0.1059
   66loPI   C4A 1050   0.490   8.811   8.625 -0.1797 -0.0437 -0.0021
   66loPI   C5A 1051   0.915   8.676   8.461 -0.0436 -0.1822  0.1328
   66loPI   C6A 1052   1.174   8.471   8.114 -0.1755  0.1171  0.0043
   66loPI   C1B 1053   0.350   9.359   9.811  0.0680  0.0298 -0.0328
   66loPI   C2B 1054   0.361   9.397   9.449  0.0687 -0.2891 -0.1593
   66loPI   C3B 1055   0.443   9.425   8.998  0.2144  0.2970  0.1432
   66loPI   C4B 1056   0.381   9.378   8.557  0.1887 -0.1554  0.0881
   67loPI    C1 1057  17.686   2.774  11.650  0.0411 -0.1550 -0.1667
   67loPI    C2 1058  17.424   2.814  11.950  0.1879 -0.0879 -0.0464
   67loPI    C3 1059  17.774   2.631  12.013  0.2112 -0.0909 -0.1818
   67loPI   PO4 1060  17.661   2.627  11.456 -0.4705 -0.3535 -0.1157
   67loPI   GL1 1061  17.708   2.618  10.940 -0.2057  0.1445  0.0010
   67loPI   GL2 1062  17.902   2.860  10.654  0.0548 -0.0212  0.1987
   67loPI   C1A 1063  17.547   2.512  10.459 -0.0972 -0.0590  0.3569
   67loPI   C2A 1064  17.387   2.547  10.092  0.1150 -0.4059  0.1766
   67loPI   C3A 1065  17.458   2.633   9.723 -0.2236 -0.3358 -0.4720
   67loPI   C4A 1066  17.413   2.496   9.277 -0.0087 -0.3062  0.0424
   67loPI   C5A 1067  17.526   2.625   8.801  0.2825  0.3082 -0.2684
   67loPI   C6A 1068  17.653   2.664   8.396 -0.1451 -0.0286 -0.2969
   67loPI   C1B 1069  17.923   2.764  10.331  0.0414 -0.0688  0.1649
   67loPI   C2B 1070  17.874   2.892   9.889 -0.0911 -0.1383 -0.2864
   67loPI   C3B 1071  17.918   2.782   9.479  0.1426  0.0564 -0.0428
   67loPI   C4B 1072  17.873   2.840   9.059  0.0276 -0.0391 -0.0519
   68loPI    C1 1073  17.161   8.434  10.955 -0.1630  0.1060  0.2291
   68loPI    C2 1074  17.042   8.118  11.169 -0.1533  0.1212  0.2570
   68loPI    C3 1075  16.773   8.386  11.043 -0.1534  0.1360  0.2884
   68loPI   PO4 1076  17.430   8.641  11.095 -0.3826  0.2655 -0.0889
   68loPI   GL1 1077  17.525   8.701  10.628 -0.0351 -0.0413  0.1556
   68loPI   GL2 1078  17.326   8.846  10.280  0.1285 -0.0736 -0.3776
   68loPI   C1A 1079  17.668   8.525  10.134  0.1818 -0.2732  0.0650
   68loPI   C2A 1080  17.804   8.596   9.757  0.0825 -0.0067  0.0285
   68loPI   C3A 1081  17.862   8.649   9.335 -0.2830  0.2091  0.0388
   68loPI   C4A 1082  17.885   8.692   8.927  0.0371  0.1843 -0.2005
   68loPI   C5A 1083  17.948   8.698   8.498  0.0254  0.0077 -0.1658
   68loPI   C6A 1084  18.280   8.463   8.255  0.0767 -0.1535 -0.3383
   68loPI   C1B 1085  17.408   8.879   9.903 -0.2228  0.2409  0.0826
   68loPI   C2B 1086  17.436   8.798   9.489 -0.2382  0.0282  0.0294
   68loPI   C3B 1087  17.460   8.898   9.077 -0.0517  0.0633 -0.1101
   68loPI   C4B 1088  17.475   8.797   8.679 -0.0587 -0.1803  0.0309
   69loPI    C1 1089   0.228  11.416  11.267  0.0195 -0.0505 -0.0862
   69loPI    C2 1090   0.453  11.707  11.425 -0.0951  0.0231 -0.0569
   69loPI    C3 1091   0.282  11.435  11.663 -0.3115  0.1654 -0.0471
   69loPI   PO4 1092   0.356  11.478  11.025  0.4126  0.1766  0.2174
   69loPI   GL1 1093   0.549  11.211  10.685  0.0339 -0.0263 -0.0205
   69loPI   GL2 1094   0.886  11.256  10.562  0.2463  0.2614  0.2754
   69loPI   C1A 1095   0.476  11.433  10.304 -0.0799 -0.0657 -0.0789
   69loPI   C2A 1096   0.398  11.609   9.847  0.0699  0.0209  0.2117
   69loPI   C3A 1097   0.338  11.459   9.304  0.0298 -0.3353  0.1262
   69loPI   C4A 1098   0.473  11.561   8.921 -0.1734 -0.1497 -0.0839
   69loPI   C5A 1099   0.645  11.446   8.528  0.2656  0.0350  0.0652
   69loPI   C6A 1100   0.856  11.700   8.275 -0.0716  0.2231 -0.0822
   69loPI   C1B 1101   0.873  11.258  10.095 -0.1168 -0.0053 -0.2595
   69loPI   C2B 1102   0.824  11.299   9.606  0.0096 -0.0954  0.1726
   69loPI   C3B 1103   0.804  11.216   9.255  0.0872 -0.0179 -0.0309
   69loPI   C4B 1104   0.801  11.076   8.838 -0.1814 -0.2014 -0.2417
   70loPI    C1 1105   9.787   9.991  11.422  0.1443 -0.1392  0.2369
   70loPI    C2 1106   9.907   9.611  11.452  0.3100 -0.1119 -0.0466
   70loPI    C3 1107   9.992   9.871  11.744  0.0983 -0.3155  0.2011
   70loPI   PO4 1108   9.905  10.133  11.183 -0.1884 -0.1441 -0.4967
   70loPI   GL1 1109   9.902  10.021  10.743 -0.0135  0.0521  0.0781
   70loPI   GL2 1110  10.185   9.928  10.739  0.0230  0.1674 -0.1162
   70loPI   C1A 1111   9.761  10.072  10.298  0.0331  0.1246  0.1969
   70loPI   C2A 1112   9.756  10.109   9.839 -0.0987 -0.1859  0.0836
   70loPI   C3A 1113   9.774  10.122   9.337  0.2781  0.3535 -0.1920
   70loPI   C4A 1114   9.805  10.216   8.882 -0.0279 -0.0724 -0.1257
   70loPI   C5A 1115  10.094  10.407   8.584  0.1339 -0.2348  0.0189
   70loPI   C6A 1116  10.315  10.246   8.295 -0.0762  0.0253 -0.0715
   70loPI   C1B 1117  10.263   9.835  10.336  0.1818  0.0505 -0.1377
   70loPI   C2B 1118  10.182   9.771   9.947  0.1808 -0.1424  0.0529
   70loPI   C3B 1119  10.194   9.864   9.561  0.2048  0.0240 -0.3299
   70loPI   C4B 1120  10.234   9.782   9.129 -0.0356  0.1584 -0.1134
   71loPI    C1 1121   7.745   1.569  11.339 -0.2402  0.0906  0.1036
   71loPI    C2 1122   8.055   1.801  11.439  0.0417 -0.2102 -0.0529
   71loPI    C3 1123   7.880   1.572  11.716 -0.2914  0.2395  0.1215
   71loPI   PO4 1124   7.832   1.473  11.068 -0.0448  0.2439 -0.1276
   71loPI   GL1 1125   8.067   1.576  10.648 -0.2311  0.1002 -0.0096
   71loPI   GL2 1126   8.013   1.743  10.448  0.0188 -0.2656 -0.1917
   71loPI   C1A 1127   8.033   1.247  10.257  0.0347 -0.0857 -0.0345
   71loPI   C2A 1128   8.011   1.128   9.924  0.0575 -0.2375  0.2781
   71loPI   C3A 1129   7.937   1.151   9.464 -0.0157  0.2411  0.0487
   71loPI   C4A 1130   8.014   1.182   9.014 -0.0666  0.3695 -0.0999
   71loPI   C5A 1131   8.012   0.794   8.694 -0.3530 -0.3630 -0.2049
   71loPI   C6A 1132   7.697   0.655   8.584 -0.5223  0.0207  0.3707
   71loPI   C1B 1133   7.931   1.688  10.038  0.2047 -0.1307  0.0952
   71loPI   C2B 1134   7.935   1.714   9.671  0.1257  0.1665 -0.0156
   71loPI   C3B 1135   7.971   1.647   9.253 -0.0391 -0.1092 -0.1406
   71loPI   C4B 1136   7.895   1.641   8.803  0.2092 -0.0969 -0.0206
   72loPI    C1 1137   0.865  16.892  11.471 -0.5507 -0.0202 -0.3550
   72loPI    C2 1138   0.860  16.514  11.604 -0.1080 -0.0112 -0.2974
   72loPI    C3 1139   0.669  16.801  11.808 -0.0944 -0.1327 -0.1117
   72loPI   PO4 1140   0.760  16.804  11.176 -0.1687  0.0389 -0.1246
   72loPI   GL1 1141   0.744  16.612  10.867  0.0768  0.2753 -0.3705
   72loPI   GL2 1142   0.415  16.586  10.825 -0.1866 -0.1820  0.0777
   72loPI   C1A 1143   0.805  16.497  10.483 -0.3805  0.1905  0.0866
   72loPI   C2A 1144   0.850  16.484  10.064 -0.3202 -0.0861 -0.1583
   72loPI   C3A 1145   0.729  16.389   9.696 -0.0675  0.0068 -0.3284
   72loPI   C4A 1146   0.798  16.424   9.298  0.0924 -0.1059  0.0504
   72loPI   C5A 1147   0.880  16.341   8.849 -0.2653  0.0558 -0.0113
   72loPI   C6A 1148   0.864  16.628   8.625 -0.2144 -0.0017 -0.1237
   72loPI   C1B 1149   0.379  16.734  10.426 -0.0290  0.0957  0.0986
   72loPI   C2B 1150   0.328  16.750   9.920 -0.3154 -0.2735  0.0787
   72loPI   C3B 1151   0.308  16.804   9.502  0.0354  0.3040 -0.1961
   72loPI   C4B 1152   0.412  16.663   9.135 -0.0477  0.1933  0.1015
   73loPI    C1 1153  14.692   5.329  11.235  0.0495  0.5059  0.1823
   73loPI    C2 1154  14.300   5.262  11.191  0.1594 -0.1761  0.1329
   73loPI    C3 1155  14.451   5.332  11.554  0.0262 -0.1640  0.1866
   73loPI   PO4 1156  14.790   5.457  10.967 -0.1343  0.0260 -0.3378
   73loPI   GL1 1157  14.988   5.855  10.665  0.0302 -0.1432 -0.4622
   73loPI   GL2 1158  14.721   5.684  10.507  0.3804 -0.1361  0.0494
   73loPI   C1A 1159  15.134   5.843  10.279  0.0062  0.2322  0.3434
   73loPI   C2A 1160  15.147   5.940   9.945  0.0256 -0.1002  0.1580
   73loPI   C3A 1161  15.175   5.995   9.476  0.1243  0.0518 -0.0004
   73loPI   C4A 1162  15.210   5.993   9.070 -0.1699 -0.0291 -0.0938
   73loPI   C5A 1163  15.197   5.965   8.576  0.4748 -0.3821  0.1322
   73loPI   C6A 1164  14.989   6.206   8.238 -0.0705 -0.1324  0.0520
   73loPI   C1B 1165  14.694   5.717  10.066  0.3709  0.3541 -0.0206
   73loPI   C2B 1166  14.750   5.745   9.658  0.2550  0.1204  0.2543
   73loPI   C3B 1167  14.761   5.788   9.258  0.1824 -0.3387  0.0039
   73loPI   C4B 1168  14.765   5.689   8.829 -0.0017  0.1480  0.0744
   74loPI    C1 1169   2.167   1.465  11.753 -0.1464  0.1753 -0.0521
   74loPI    C2 1170   2.247   1.198  12.040  0.2653  0.3394 -0.0073
   74loPI    C3 1171   2.176   1.579  12.137 -0.0725  0.3003 -0.0905
   74loPI   PO4 1172   2.018   1.361  11.594 -0.1397  0.0976  0.3213
   74loPI   GL1 1173   1.883   1.379  11.158  0.0492  0.2558 -0.0791
   74loPI   GL2 1174   2.022   1.071  11.001 -0.1269  0.2457  0.0081
   74loPI   C1A 1175   1.739   1.299  10.726 -0.0352 -0.0222  0.0960
   74loPI   C2A 1176   1.790   1.283  10.332  0.0854  0.0104  0.1821
   74loPI   C3A 1177   1.765   1.252   9.939  0.3708  0.1428 -0.1233
   74loPI   C4A 1178   1.722   1.235   9.491  0.2750 -0.0432  0.1343
   74loPI   C5A 1179   1.681   1.139   9.082 -0.2609 -0.1843  0.3147
   74loPI   C6A 1180   1.490   0.936   8.686 -0.3584  0.2752  0.0835
   74loPI   C1B 1181   2.212   1.078  10.583  0.0255  0.1432 -0.0707
   74loPI   C2B 1182   2.231   1.075  10.188  0.0849  0.1350  0.1502
   74loPI   C3B 1183   2.207   1.036   9.820  0.2381 -0.0014  0.1375
   74loPI   C4B 1184   2.143   0.979   9.418  0.1706  0.1669  0.3093
   75loPI    C1 1185   7.047   1.738  10.884  0.0482  0.1555 -0.1314
   75loPI    C2 1186   7.233   2.083  10.802  0.0860  0.1863  0.0786
   75loPI    C3 1187   7.312   1.889  11.143  0.1760 -0.1078 -0.1059
   75loPI   PO4 1188   7.069   1.619  10.604  0.1084  0.2637 -0.0432
   75loPI   GL1 1189   7.008   1.773  10.153  0.0963 -0.0312  0.0093
   75loPI   GL2 1190   7.024   2.028  10.276 -0.0094  0.0165 -0.1216
   75loPI   C1A 1191   7.058   1.668   9.692  0.0439 -0.0480 -0.2077
   75loPI   C2A 1192   7.085   1.800   9.282  0.2137  0.1385  0.1949
   75loPI   C3A 1193   6.994   1.744   8.866 -0.2065 -0.2358  0.0660
   75loPI   C4A 1194   7.048   1.669   8.350 -0.0671 -0.0938 -0.1614
   75loPI   C5A 1195   6.826   1.619   7.916 -0.1234  0.1562 -0.2397
   75loPI   C6A 1196   6.642   1.444   7.622  0.0403 -0.2941  0.1638
   75loPI   C1B 1197   7.113   2.196   9.803  0.0121 -0.0684 -0.1005
   75loPI   C2B 1198   7.269   2.481   9.417  0.2973  0.0245 -0.0170
   75loPI   C3B 1199   7.421   2.394   8.960  0.0971  0.1296  0.2528
   75loPI   C4B 1200   7.640   2.641   8.547  0.2469  0.1719 -0.1266
   76loPI    C1 1201   1.684  14.429  11.448 -0.0435  0.0532  0.0995
   76loPI    C2 1202   1.661  14.733  11.706 -0.0097  0.0713  0.0813
   76loPI    C3 1203   1.402  14.430  11.732  0.2285 -0.1127  0.3769
   76loPI   PO4 1204   1.666  14.496  11.182  0.1596 -0.0288 -0.4749
   76loPI   GL1 1205   1.526  14.514  10.770 -0.5118 -0.1073  0.3856
   76loPI   GL2 1206   1.797  14.881  10.733  0.1665 -0.0841  0.0132
   76loPI   C1A 1207   1.658  14.430  10.408 -0.1949 -0.1925  0.0907
   76loPI   C2A 1208   1.752  14.454  10.002 -0.2663  0.0060 -0.0549
   76loPI   C3A 1209   1.727  14.380   9.526 -0.1400  0.1899 -0.0277
   76loPI   C4A 1210   1.799  14.390   9.068 -0.1334  0.2118 -0.0795
   76loPI   C5A 1211   1.725  14.583   8.652  0.4082  0.2281  0.1432
   76loPI   C6A 1212   1.356  14.721   8.318 -0.0210 -0.0461  0.0616
   76loPI   C1B 1213   1.769  14.927  10.267 -0.2157  0.2587 -0.0610
   76loPI   C2B 1214   1.661  14.974   9.923  0.1027  0.0107  0.0664
   76loPI   C3B 1215   1.721  14.896   9.629  0.0506 -0.0396  0.0376
   76loPI   C4B 1216   1.788  14.914   9.192  0.0445 -0.0262 -0.2459
   77loPI    C1 1217  11.010  15.683  11.155 -0.0276  0.1893  0.0371
   77loPI    C2 1218  11.235  15.769  11.475 -0.0549  0.0779  0.0866
   77loPI    C3 1219  10.879  15.593  11.522  0.1563 -0.3968 -0.0310
   77loPI   PO4 1220  11.236  15.515  11.033 -0.1172 -0.0371 -0.2170
   77loPI   GL1 1221  11.256  15.356  10.644 -0.2259 -0.0109  0.1267
   77loPI   GL2 1222  11.097  15.165  10.519 -0.0224 -0.1967  0.0933
   77loPI   C1A 1223  11.129  15.679  10.343  0.0659  0.0020 -0.2088
   77loPI   C2A 1224  11.058  15.757   9.915 -0.1037  0.1099 -0.0443
   77loPI   C3A 1225  11.181  15.650   9.503 -0.0857  0.1448 -0.3258
   77loPI   C4A 1226  11.092  15.625   9.045 -0.3800  0.0180  0.0125
   77loPI   C5A 1227  11.212  15.750   8.694  0.0349  0.2728  0.0761
   77loPI   C6A 1228  11.142  16.129   8.417 -0.0819 -0.1201 -0.0496
   77loPI   C1B 1229  11.046  15.201  10.100  0.0468  0.0157  0.1232
   77loPI   C2B 1230  11.067  15.157   9.620 -0.0040  0.2335  0.2334
   77loPI   C3B 1231  11.128  15.073   9.142  0.2031 -0.1877  0.0646
   77loPI   C4B 1232  11.322  15.234   8.768  0.1176  0.1262  0.3257
   78loPI    C1 1233   8.339   0.619  11.355 -0.2424  0.0523 -0.2711
   78loPI    C2 1234   8.148   0.291  11.482  0.1511 -0.0737  0.0155
   78loPI    C3 1235   8.321   0.537  11.746  0.1708  0.1726 -0.2223
   78loPI   PO4 1236   8.130   0.718  11.154 -0.0998 -0.0230 -0.0509
   78loPI   GL1 1237   8.313   0.726  10.652 -0.1945  0.1707 -0.0920
   78loPI   GL2 1238   7.952   0.742  10.637  0.6412 -0.0847  0.0376
   78loPI   C1A 1239   8.468   0.407  10.387 -0.1040 -0.1316  0.0762
   78loPI   C2A 1240   8.427   0.363   9.875 -0.1619  0.1638  0.1889
   78loPI   C3A 1241   8.397   0.317   9.328 -0.1408  0.1871 -0.0263
   78loPI   C4A 1242   8.270   0.281   8.933 -0.2798 -0.1282 -0.2607
   78loPI   C5A 1243   8.236   0.185   8.496 -0.2832  0.2022 -0.0005
   78loPI   C6A 1244   8.169  -0.241   8.228  0.0528  0.0849 -0.0994
   78loPI   C1B 1245   7.908   0.662  10.212  0.0276 -0.0946  0.1742
   78loPI   C2B 1246   8.029   0.602   9.834  0.1489  0.1827 -0.0877
   78loPI   C3B 1247   7.990   0.554   9.501 -0.0034 -0.0122  0.0994
   78loPI   C4B 1248   7.927   0.691   9.221 -0.2131 -0.3646 -0.5416
   79loPI    C1 1249  17.892   1.611  11.294 -0.1909 -0.2665 -0.1226
   79loPI    C2 1250  18.001   1.227  11.278  0.5129 -0.0803 -0.1190
   79loPI    C3 1251  18.055   1.436  11.615 -0.0414 -0.0170 -0.0601
   79loPI   PO4 1252  17.890   1.669  11.077 -0.3084  0.3658  0.0287
   79loPI   GL1 1253  17.831   1.815  10.665  0.1323 -0.1602 -0.4158
   79loPI   GL2 1254  17.870   2.163  10.783  0.0906 -0.1234  0.3968
   79loPI   C1A 1255  17.970   1.774  10.179 -0.3813 -0.1453  0.0192
   79loPI   C2A 1256  17.986   1.757   9.726  0.1865  0.2283 -0.3111
   79loPI   C3A 1257  18.059   1.791   9.303 -0.0842  0.0526  0.1078
   79loPI   C4A 1258  18.157   1.890   8.906 -0.0770 -0.1787 -0.0875
   79loPI   C5A 1259  18.261   1.859   8.555 -0.3537  0.0661 -0.1526
   79loPI   C6A 1260  18.403   1.694   8.125  0.0544 -0.0096 -0.1079
   79loPI   C1B 1261  17.964   2.276  10.355 -0.2598  0.3581  0.0077
   79loPI   C2B 1262  17.912   2.436   9.985  0.0159 -0.1989 -0.1016
   79loPI   C3B 1263  17.971   2.281   9.615  0.0395 -0.2175  0.0991
   79loPI   C4B 1264  17.880   2.207   9.173  0.2008 -0.1571 -0.0423
   80loPI    C1 1265   7.034  13.265  11.716  0.2240 -0.1456 -0.1553
   80loPI    C2 1266   7.268  13.228  12.038 -0.0657  0.0571  0.0845
   80loPI    C3 1267   6.929  13.018  12.012 -0.0901  0.1114 -0.0457
   80loPI   PO4 1268   7.203  13.175  11.497 -0.1926 -0.0178  0.3613
   80loPI   GL1 1269   7.283  13.232  11.084  0.3064  0.2475  0.3808
   80loPI   GL2 1270   7.159  12.924  10.920  0.3834  0.0167 -0.2220
   80loPI   C1A 1271   6.978  13.419  10.744  0.0420  0.0464  0.2537
   80loPI   C2A 1272   6.969  13.361  10.247  0.0212 -0.1244  0.1405
   80loPI   C3A 1273   6.972  13.300   9.870 -0.2742 -0.1760 -0.0817
   80loPI   C4A 1274   7.112  13.373   9.461 -0.2944  0.2113 -0.2647
   80loPI   C5A 1275   7.333  13.424   9.070  0.0846  0.1188  0.0117
   80loPI   C6A 1276   7.627  13.159   8.908 -0.0593 -0.0572  0.0127
   80loPI   C1B 1277   6.992  12.897  10.576 -0.1714 -0.0309 -0.1998
   80loPI   C2B 1278   6.984  12.822  10.122 -0.2073 -0.2440  0.0859
   80loPI   C3B 1279   7.046  12.868   9.624 -0.1610  0.3286 -0.2068
   80loPI   C4B 1280   7.066  12.861   9.183  0.2070  0.1761  0.1056
   81loPI    C1 1281  12.109  11.392  11.586 -0.3198 -0.0414  0.0620
   81loPI    C2 1282  12.394  11.121  11.657 -0.1696  0.0205 -0.2840
   81loPI    C3 1283  12.188  11.279  11.961  0.1578 -0.0306 -0.0297
   81loPI   PO4 1284  12.086  11.265  11.294 -0.0962 -0.1978  0.1974
   81loPI   GL1 1285  11.925  11.041  10.986  0.0350 -0.1849 -0.0456
   81loPI   GL2 1286  12.040  10.682  10.880  0.0425  0.0993 -0.0596
   81loPI   C1A 1287  11.617  11.188  10.639  0.0982 -0.0885  0.0035
   81loPI   C2A 1288  11.593  11.054  10.255 -0.0889  0.0624  0.0299
   81loPI   C3A 1289  11.552  11.168   9.851 -0.0720 -0.1069  0.0557
   81loPI   C4A 1290  11.625  11.277   9.441 -0.2575 -0.1281  0.2493
   81loPI   C5A 1291  11.485  11.281   9.030  0.0060  0.0150  0.0483
   81loPI   C6A 1292  11.739  11.190   8.692  0.0250 -0.2503 -0.0761
   81loPI   C1B 1293  12.024  10.868  10.392 -0.0487 -0.1818  0.2143
   81loPI   C2B 1294  12.095  10.898   9.951  0.0203 -0.1901 -0.1618
   81loPI   C3B 1295  12.060  11.001   9.472  0.1154 -0.1257  0.0077
   81loPI   C4B 1296  11.969  10.919   9.138 -0.0010 -0.0783  0.1233
   82loPI    C1 1297  14.945   5.865  11.239  0.1239  0.2914  0.1496
   82loPI    C2 1298  15.088   5.582  11.484 -0.1330 -0.1402 -0.1841
   82loPI    C3 1299  14.760   5.789  11.586  0.0917  0.0893  0.0894
   82loPI   PO4 1300  15.154   5.996  11.111  0.2161 -0.4643  0.3853
   82loPI   GL1 1301  15.391   6.183  10.752  0.2877 -0.1662 -0.1088
   82loPI   GL2 1302  15.183   6.411  10.549 -0.0925  0.1352 -0.1196
   82loPI   C1A 1303  15.505   6.242  10.234  0.1701  0.3373 -0.1767
   82loPI   C2A 1304  15.586   6.184   9.806 -0.4299  0.2356  0.2133
   82loPI   C3A 1305  15.599   6.257   9.419 -0.2366 -0.1775 -0.0411
   82loPI   C4A 1306  15.622   6.245   9.039  0.0508 -0.1129  0.2665
   82loPI   C5A 1307  15.747   6.249   8.615  0.0398  0.0274  0.1415
   82loPI   C6A 1308  15.741   6.112   8.174 -0.0388  0.0840 -0.0356
   82loPI   C1B 1309  15.070   6.376  10.108 -0.0125  0.0604 -0.0446
   82loPI   C2B 1310  15.164   6.404   9.676  0.1481  0.0869 -0.4111
   82loPI   C3B 1311  15.141   6.551   9.204 -0.1041  0.0180  0.0595
   82loPI   C4B 1312  15.158   6.520   8.745  0.1764  0.3219 -0.0586
   83loPI    C1 1313   6.177   0.548  11.508 -0.1567  0.2746  0.1573
   83loPI    C2 1314   6.120   0.233  11.748 -0.0017 -0.0063 -0.1655
   83loPI    C3 1315   6.227   0.586  11.903 -0.0923 -0.1312  0.1927
   83loPI   PO4 1316   6.080   0.327  11.243  0.1037  0.1083  0.0087
   83loPI   GL1 1317   5.838   0.183  10.887 -0.1656  0.0462 -0.0086
   83loPI   GL2 1318   5.639  -0.047  10.964  0.0176  0.1202  0.0286
   83loPI   C1A 1319   6.048   0.194  10.529 -0.3341 -0.1766 -0.2889
   83loPI   C2A 1320   6.198   0.277  10.166 -0.5091  0.0056  0.1306
   83loPI   C3A 1321   6.247   0.213   9.727 -0.0042 -0.0912  0.3573
   83loPI   C4A 1322   6.206   0.108   9.247 -0.1237 -0.0966 -0.1296
   83loPI   C5A 1323   6.191   0.193   8.812  0.0605 -0.1949 -0.1356
   83loPI   C6A 1324   6.116   0.100   8.368 -0.0585  0.1308  0.0626
   83loPI   C1B 1325   5.762  -0.172  10.561 -0.1159 -0.2631  0.3288
   83loPI   C2B 1326   5.840  -0.046  10.084 -0.1424  0.0727  0.1042
   83loPI   C3B 1327   5.799  -0.067   9.674  0.0168  0.1249 -0.0733
   83loPI   C4B 1328   5.777  -0.137   9.249 -0.2733  0.2178  0.0280
   84loPI    C1 1329  15.333  15.681  11.371  0.2264  0.0482 -0.0859
   84loPI    C2 1330  15.150  15.973  11.574  0.0246 -0.0565 -0.1139
   84loPI    C3 1331  15.254  15.635  11.761  0.2372  0.0224 -0.0868
   84loPI   PO4 1332  15.372  15.741  11.159 -0.1615  0.1915 -0.3715
   84loPI   GL1 1333  15.523  15.688  10.681 -0.1054  0.2872  0.4317
   84loPI   GL2 1334  15.439  16.013  10.687  0.3058  0.3600  0.2227
   84loPI   C1A 1335  15.480  15.702  10.223 -0.1145 -0.1774  0.1258
   84loPI   C2A 1336  15.582  15.666   9.794 -0.0557 -0.1281  0.3767
   84loPI   C3A 1337  15.628  15.672   9.382  0.1746  0.0519  0.2773
   84loPI   C4A 1338  15.487  15.547   8.974  0.0569 -0.2167 -0.0851
   84loPI   C5A 1339  15.077  15.415   8.829  0.1309 -0.0824  0.1511
   84loPI   C6A 1340  14.705  15.685   8.680  0.2874 -0.0948  0.1222
   84loPI   C1B 1341  15.527  16.257  10.347  0.0573  0.2167 -0.0901
   84loPI   C2B 1342  15.568  16.117   9.900  0.1950 -0.0488 -0.2495
   84loPI   C3B 1343  15.647  16.158   9.478  0.3141 -0.0358  0.0127
   84loPI   C4B 1344  15.715  16.301   9.039 -0.1403  0.1546  0.0479
   85loPI    C1 1345  16.659   1.568  11.236  0.1221  0.0740 -0.0394
   85loPI    C2 1346  16.935   1.584  10.947  0.0745 -0.0621 -0.0934
   85loPI    C3 1347  17.047   1.541  11.329  0.1271 -0.1429 -0.1176
   85loPI   PO4 1348  16.559   1.340  11.228 -0.2562  0.0082  0.0909
   85loPI   GL1 1349  16.372   1.166  10.860 -0.1336 -0.0906 -0.2884
   85loPI   GL2 1350  16.402   1.423  10.723 -0.0796  0.0535 -0.2345
   85loPI   C1A 1351  16.538   0.965  10.427 -0.1959 -0.0957  0.2522
   85loPI   C2A 1352  16.557   0.929  10.088 -0.0240  0.1661 -0.1343
   85loPI   C3A 1353  16.552   0.948   9.617  0.0345 -0.0672 -0.1460
   85loPI   C4A 1354  16.641   0.962   9.204 -0.0716 -0.0480  0.1043
   85loPI   C5A 1355  16.380   1.084   8.805 -0.1518  0.2588 -0.1933
   85loPI   C6A 1356  16.071   1.166   8.409  0.1249  0.1619 -0.0226
   85loPI   C1B 1357  16.485   1.532  10.257 -0.1257 -0.0231  0.1794
   85loPI   C2B 1358  16.593   1.412   9.878  0.1558  0.0613  0.0944
   85loPI   C3B 1359  16.671   1.431   9.505  0.3150  0.0834 -0.2572
   85loPI   C4B 1360  16.667   1.438   9.073 -0.1585 -0.2010  0.0172
   86loPI    C1 1361  16.091  11.280  11.278 -0.1148 -0.0890  0.1084
   86loPI    C2 1362  15.844  11.063  11.506 -0.0105 -0.2926  0.0307
   86loPI    C3 1363  16.147  11.263  11.674 -0.1461 -0.1512  0.1102
   86loPI   PO4 1364  15.890  11.370  11.114 -0.1494 -0.2185 -0.1684
   86loPI   GL1 1365  15.816  11.349  10.626 -0.2683 -0.0012 -0.1489
   86loPI   GL2 1366  16.056  11.519  10.615  0.1656 -0.0546 -0.3082
   86loPI   C1A 1367  15.669  11.301  10.232  0.1646 -0.2185  0.0098
   86loPI   C2A 1368  15.664  11.497   9.847 -0.3497 -0.1199  0.2162
   86loPI   C3A 1369  15.630  11.505   9.401  0.1124 -0.1784  0.1555
   86loPI   C4A 1370  15.786  11.562   8.907 -0.2280  0.3120 -0.0480
   86loPI   C5A 1371  16.053  11.206   8.710 -0.3464 -0.0485 -0.0993
   86loPI   C6A 1372  16.156  10.803   8.787 -0.1400  0.0871 -0.0969
   86loPI   C1B 1373  16.048  11.712  10.234  0.0774 -0.0885  0.2626
   86loPI   C2B 1374  16.062  11.792   9.800  0.1867 -0.0622 -0.1208
   86loPI   C3B 1375  16.028  11.776   9.333  0.1418 -0.3138  0.0615
   86loPI   C4B 1376  16.071  11.945   8.852 -0.0898  0.1858 -0.1275
   87loPI    C1 1377  11.937  13.223  11.404  0.0090 -0.0136 -0.0668
   87loPI    C2 1378  12.071  13.174  11.777  0.0323 -0.0746 -0.0828
   87loPI    C3 1379  12.304  13.348  11.503 -0.0938  0.2398  0.0036
   87loPI   PO4 1380  11.805  13.057  11.349 -0.3267  0.1981 -0.0409
   87loPI   GL1 1381  11.834  12.708  11.001  0.1401 -0.0235  0.0614
   87loPI   GL2 1382  11.634  12.665  10.766 -0.2086 -0.0531  0.1664
   87loPI   C1A 1383  11.965  12.980  10.606  0.0331  0.0926  0.1804
   87loPI   C2A 1384  11.968  13.056  10.165  0.2137 -0.0497  0.0372
   87loPI   C3A 1385  11.993  13.154   9.764 -0.0254  0.0532 -0.0234
   87loPI   C4A 1386  12.032  13.043   9.332 -0.1357  0.1616 -0.1238
   87loPI   C5A 1387  12.203  13.081   8.972  0.0273  0.0049  0.3380
   87loPI   C6A 1388  12.440  13.297   8.621 -0.4893  0.1988  0.0004
   87loPI   C1B 1389  11.609  12.736  10.265  0.0653  0.1263 -0.0064
   87loPI   C2B 1390  11.536  12.778   9.828 -0.2941 -0.6168  0.1253
   87loPI   C3B 1391  11.468  12.800   9.359 -0.0046  0.1535  0.1958
   87loPI   C4B 1392  11.546  12.751   8.955  0.0844 -0.2122 -0.0890
   88loPI    C1 1393  16.379  16.870  11.468 -0.1295  0.3156 -0.0339
   88loPI    C2 1394  16.242  17.166  11.700 -0.0887  0.2113  0.1244
   88loPI    C3 1395  16.393  16.835  11.866  0.1147  0.2149 -0.0497
   88loPI   PO4 1396  16.180  16.825  11.294 -0.1088 -0.1085  0.2198
   88loPI   GL1 1397  16.164  16.690  10.867 -0.0462  0.1607 -0.2562
   88loPI   GL2 1398  16.438  16.708  10.656 -0.1307 -0.1141 -0.0064
   88loPI   C1A 1399  16.003  16.944  10.516  0.1591 -0.0928  0.1701
   88loPI   C2A 1400  16.064  16.901  10.067  0.0443 -0.0503 -0.2519
   88loPI   C3A 1401  16.035  16.863   9.638 -0.0213 -0.4363  0.0719
   88loPI   C4A 1402  16.139  17.099   9.252 -0.0914  0.0503  0.2496
   88loPI   C5A 1403  16.052  17.109   8.842 -0.0819  0.1439  0.2587
   88loPI   C6A 1404  15.844  17.139   8.464 -0.3386 -0.2423  0.1854
   88loPI   C1B 1405  16.480  16.669  10.168 -0.1768 -0.1093  0.1580
   88loPI   C2B 1406  16.477  16.605   9.753  0.1470  0.0279  0.1262
   88loPI   C3B 1407  16.545  16.797   9.319  0.1233  0.1483 -0.1836
   88loPI   C4B 1408  16.495  16.854   8.858 -0.3355 -0.1248  0.0713
   89loPI    C1 1409   2.170   7.800  11.281 -0.1691 -0.2291  0.1762
   89loPI    C2 1410   1.949   8.132  11.302  0.2848  0.0894  0.0662
   89loPI    C3 1411   2.061   7.946  11.638 -0.2537 -0.1558  0.1207
   89loPI   PO4 1412   2.267   7.858  11.016  0.1295  0.3203 -0.0100
   89loPI   GL1 1413   2.275   8.046  10.522 -0.2613  0.0978  0.1197
   89loPI   GL2 1414   2.159   8.401  10.340 -0.0297 -0.1074 -0.1856
   89loPI   C1A 1415   2.281   7.878  10.194  0.3994 -0.0260  0.1656
   89loPI   C2A 1416   2.274   7.850   9.633 -0.0907  0.1831  0.0339
   89loPI   C3A 1417   2.265   7.841   9.257 -0.1413 -0.0634  0.4336
   89loPI   C4A 1418   2.214   7.828   8.773  0.0393  0.1100 -0.0579
   89loPI   C5A 1419   2.129   8.034   8.401 -0.0457 -0.2547  0.0017
   89loPI   C6A 1420   2.386   8.082   7.934  0.1813  0.0892  0.2013
   89loPI   C1B 1421   2.199   8.317   9.910  0.2504 -0.0436 -0.0717
   89loPI   C2B 1422   2.243   8.333   9.474 -0.0881 -0.2070 -0.2006
   89loPI   C3B 1423   2.220   8.389   9.079  0.0074 -0.1216  0.1231
   89loPI   C4B 1424   2.053   8.461   8.670  0.0917  0.0307 -0.0305
   90loPI    C1 1425   3.097  10.527  11.594  0.0691  0.1476 -0.0451
   90loPI    C2 1426   3.386  10.283  11.722 -0.1723 -0.1403 -0.0372
   90loPI    C3 1427   3.172  10.495  11.985  0.1347  0.2009 -0.0530
   90loPI   PO4 1428   3.180  10.716  11.476 -0.0555 -0.1993  0.1899
   90loPI   GL1 1429   3.333  10.883  11.053 -0.1422 -0.1098  0.0556
   90loPI   GL2 1430   3.440  10.691  10.834 -0.2607  0.2106 -0.2110
   90loPI   C1A 1431   3.029  11.039  10.715  0.2215 -0.2094 -0.1391
   90loPI   C2A 1432   3.018  10.973  10.334  0.0150  0.3304 -0.0263
   90loPI   C3A 1433   3.100  11.041   9.939  0.2178  0.0819  0.0490
   90loPI   C4A 1434   3.074  11.056   9.437  0.1645 -0.2146 -0.0747
   90loPI   C5A 1435   3.104  11.146   8.931  0.3075 -0.2219 -0.1188
   90loPI   C6A 1436   3.275  11.462   8.788 -0.0212 -0.1080 -0.2343
   90loPI   C1B 1437   3.437  10.729  10.393 -0.0523 -0.1381 -0.2097
   90loPI   C2B 1438   3.500  10.769  10.040 -0.0191  0.2491  0.3438
   90loPI   C3B 1439   3.450  10.751   9.540 -0.1143  0.2585  0.0373
   90loPI   C4B 1440   3.430  10.809   9.123  0.0931  0.1006 -0.2407
   91loPI    C1 1441   8.619   2.027  11.125 -0.3137  0.2287  0.0109
   91loPI    C2 1442   8.362   2.194  11.382 -0.1815  0.1426  0.2019
   91loPI    C3 1443   8.532   1.843  11.469 -0.0115  0.1909  0.0700
   91loPI   PO4 1444   8.565   1.976  10.914 -0.1353 -0.2054 -0.1382
   91loPI   GL1 1445   8.438   1.985  10.633  0.0353  0.0718 -0.1165
   91loPI   GL2 1446   8.539   2.296  10.493 -0.0429  0.0279  0.1638
   91loPI   C1A 1447   8.311   1.973  10.139  0.0160  0.0476 -0.1203
   91loPI   C2A 1448   8.461   2.097   9.782 -0.3700  0.0425  0.1048
   91loPI   C3A 1449   8.444   1.922   9.335 -0.2230  0.0114 -0.0553
   91loPI   C4A 1450   8.293   1.911   8.972  0.1770  0.1957 -0.0169
   91loPI   C5A 1451   8.157   1.985   8.507 -0.1060  0.1140 -0.1407
   91loPI   C6A 1452   8.022   2.003   8.187  0.1660  0.2421 -0.0568
   91loPI   C1B 1453   8.821   2.327  10.121 -0.3078  0.1323  0.1928
   91loPI   C2B 1454   8.893   2.281   9.586 -0.0932 -0.3250  0.1578
   91loPI   C3B 1455   8.592   2.518   9.393  0.0444 -0.0166 -0.0172
   91loPI   C4B 1456   8.362   2.402   9.058  0.4397  0.1855 -0.1897
   92loPI    C1 1457   3.776   3.657  11.033 -0.2229 -0.0777  0.0518
   92loPI    C2 1458   3.754   3.353  11.292  0.0140 -0.0572  0.0979
   92loPI    C3 1459   3.994   3.664  11.369 -0.0734  0.0470 -0.0463
   92loPI   PO4 1460   3.580   3.778  10.993 -0.0427 -0.1989 -0.1401
   92loPI   GL1 1461   3.382   3.647  10.645  0.2541  0.1609 -0.0365
   92loPI   GL2 1462   2.983   3.524  10.715  0.3158 -0.0116 -0.1676
   92loPI   C1A 1463   3.238   3.681  10.269 -0.0814  0.1405  0.0825
   92loPI   C2A 1464   3.108   3.582   9.852  0.1605  0.2791 -0.0365
   92loPI   C3A 1465   3.234   3.421   9.440 -0.1411 -0.2238 -0.1496
   92loPI   C4A 1466   3.198   3.476   9.045 -0.0545  0.0629  0.2051
   92loPI   C5A 1467   3.445   3.253   8.696 -0.1744  0.2473  0.1733
   92loPI   C6A 1468   3.888   3.210   8.671  0.1104 -0.0973 -0.0481
   92loPI   C1B 1469   2.719   3.397  10.345 -0.0614  0.0202 -0.0176
   92loPI   C2B 1470   2.715   3.248   9.943 -0.2143 -0.1221 -0.1352
   92loPI   C3B 1471   2.729   3.336   9.498 -0.4250 -0.3139  0.1623
   92loPI   C4B 1472   2.658   3.170   9.120 -0.0189 -0.1436 -0.1890
   93loPI    C1 1473  11.136   4.859  10.693 -0.2186  0.1993 -0.1279
   93loPI    C2 1474  11.191   5.013  11.059 -0.0645  0.2808 -0.1842
   93loPI    C3 1475  11.156   4.617  11.011  0.0237  0.2618 -0.0938
   93loPI   PO4 1476  11.024   5.050  10.539  0.0952 -0.0217 -0.0308
   93loPI   GL1 1477  10.815   5.157  10.143  0.0852  0.1497  0.1243
   93loPI   GL2 1478  11.002   5.354  10.125 -0.1569  0.1622 -0.0304
   93loPI   C1A 1479  10.605   5.029   9.834  0.3332 -0.1465 -0.0256
   93loPI   C2A 1480  10.292   5.065   9.529  0.1046  0.0438  0.0102
   93loPI   C3A 1481  10.135   4.994   9.183 -0.2606  0.4214 -0.2613
   93loPI   C4A 1482   9.834   5.234   8.793 -0.0479  0.3094  0.3368
   93loPI   C5A 1483   9.841   5.641   8.691  0.1652 -0.0699  0.1159
   93loPI   C6A 1484   9.911   5.776   8.263  0.1012 -0.1471 -0.0695
   93loPI   C1B 1485  11.371   5.235   9.966 -0.0842 -0.1503  0.2706
   93loPI   C2B 1486  11.586   5.426   9.619  0.1630 -0.1818  0.0179
   93loPI   C3B 1487  11.631   5.436   9.136  0.1143 -0.1103 -0.1564
   93loPI   C4B 1488  11.545   5.516   8.756  0.1309  0.0827  0.1695
   94loPI    C1 1489   4.382  13.362  11.294 -0.0130  0.2887 -0.0718
   94loPI    C2 1490   4.229  13.158  11.602  0.2616 -0.2304 -0.2658
   94loPI    C3 1491   4.398  13.516  11.662  0.0291 -0.1818  0.1297
   94loPI   PO4 1492   4.197  13.319  11.152  0.1080 -0.3044  0.3915
   94loPI   GL1 1493   4.130  13.505  10.787 -0.2086  0.4224 -0.1320
   94loPI   GL2 1494   3.925  13.736  10.777 -0.2168 -0.1060 -0.3135
   94loPI   C1A 1495   4.376  13.347  10.411 -0.0117  0.0777  0.0774
   94loPI   C2A 1496   4.405  13.413   9.902 -0.0979 -0.4439 -0.0456
   94loPI   C3A 1497   4.374  13.349   9.366 -0.0608  0.1448 -0.0519
   94loPI   C4A 1498   4.332  13.170   8.995 -0.2577 -0.0695  0.3292
   94loPI   C5A 1499   4.056  12.865   8.750 -0.0603  0.1837 -0.0249
   94loPI   C6A 1500   4.148  12.503   8.569  0.0907  0.0567  0.0061
   94loPI   C1B 1501   3.878  13.677  10.301 -0.1624 -0.0500  0.2335
   94loPI   C2B 1502   3.934  13.687   9.879 -0.1007  0.4069 -0.1020
   94loPI   C3B 1503   3.988  13.677   9.502 -0.1374 -0.0525  0.0456
   94loPI   C4B 1504   3.892  13.598   9.256 -0.0266 -0.2644 -0.2938
   95loPI    C1 1505   8.236  11.346  11.489 -0.2419  0.0988 -0.2270
   95loPI    C2 1506   7.977  11.227  11.769  0.0284 -0.0048 -0.0171
   95loPI    C3 1507   8.137  11.593  11.788  0.0703 -0.0231 -0.0176
   95loPI   PO4 1508   8.398  11.048  11.454 -0.1123  0.0861  0.0495
   95loPI   GL1 1509   8.560  11.057  11.048 -0.3063 -0.0614  0.1462
   95loPI   GL2 1510   8.652  11.352  10.995 -0.1563 -0.0618  0.1496
   95loPI   C1A 1511   8.425  10.910  10.737 -0.0558  0.1766  0.0002
   95loPI   C2A 1512   8.421  10.845  10.278 -0.1524  0.0227 -0.2005
   95loPI   C3A 1513   8.445  10.962   9.730  0.2554  0.0516  0.2331
   95loPI   C4A 1514   8.361  11.010   9.286  0.2604 -0.3061 -0.0970
   95loPI   C5A 1515   8.322  11.018   8.793 -0.0040 -0.2914  0.0659
   95loPI   C6A 1516   8.252  11.173   8.331 -0.0435  0.2965  0.1566
   95loPI   C1B 1517   8.525  11.467  10.558  0.0243  0.0939 -0.1144
   95loPI   C2B 1518   8.509  11.424  10.196  0.0897  0.1729  0.3376
   95loPI   C3B 1519   8.495  11.432   9.809  0.2783  0.3244  0.0987
   95loPI   C4B 1520   8.394  11.554   9.440 -0.0874  0.0532  0.1273
   96loPI    C1 1521   9.815   3.996  11.019  0.2766  0.1921  0.2456
   96loPI    C2 1522   9.586   4.181  11.290 -0.0289  0.0094  0.1184
   96loPI    C3 1523   9.490   3.814  11.166  0.0998  0.0954 -0.2474
   96loPI   PO4 1524   9.728   4.107  10.844 -0.2775  0.2607  0.4646
   96loPI   GL1 1525   9.622   4.251  10.304 -0.1795  0.2345 -0.1141
   96loPI   GL2 1526   9.370   4.354  10.434  0.2608  0.0202 -0.0215
   96loPI   C1A 1527   9.993   4.024  10.112 -0.1086 -0.1397  0.2181
   96loPI   C2A 1528   9.938   3.718   9.827 -0.0093 -0.0315 -0.1726
   96loPI   C3A 1529   9.710   3.507   9.629 -0.1243 -0.1081  0.1366
   96loPI   C4A 1530   9.650   3.280   9.285  0.2067  0.4369  0.0272
   96loPI   C5A 1531   9.635   3.128   8.921  0.0564 -0.2371 -0.0572
   96loPI   C6A 1532   9.683   3.113   8.427 -0.0029  0.0649  0.0499
   96loPI   C1B 1533   9.360   4.487   9.947  0.2780 -0.2016  0.1525
   96loPI   C2B 1534   9.474   4.404   9.573  0.0496 -0.2557  0.0328
   96loPI   C3B 1535   9.474   4.261   9.211 -0.1184  0.2635  0.1084
   96loPI   C4B 1536   9.544   4.498   8.934  0.2004  0.0092 -0.0194
   97loPI    C1 1537  15.578  16.680  11.480 -0.1557  0.1541 -0.0194
   97loPI    C2 1538  15.902  16.657  11.713 -0.0349 -0.0647 -0.2041
   97loPI    C3 1539  15.551  16.516  11.844 -0.0083 -0.0227 -0.0863
   97loPI   PO4 1540  15.743  16.600  11.198 -0.2666  0.0155  0.0322
   97loPI   GL1 1541  15.726  16.866  10.880  0.3879  0.0515 -0.0780
   97loPI   GL2 1542  15.694  17.319  10.859 -0.4469  0.0129  0.0743
   97loPI   C1A 1543  15.552  16.716  10.506 -0.2253 -0.1978 -0.1163
   97loPI   C2A 1544  15.616  16.665  10.009 -0.0614  0.0495 -0.2153
   97loPI   C3A 1545  15.549  16.690   9.579 -0.0285  0.0570 -0.3779
   97loPI   C4A 1546  15.697  16.810   9.259 -0.2086 -0.2414 -0.1345
   97loPI   C5A 1547  15.667  16.733   8.848  0.2050 -0.0252  0.1344
   97loPI   C6A 1548  15.427  16.862   8.468  0.1881 -0.0033 -0.0601
   97loPI   C1B 1549  15.616  17.200  10.375 -0.1747 -0.0792 -0.1652
   97loPI   C2B 1550  15.650  17.173   9.928  0.0085  0.1054  0.0823
   97loPI   C3B 1551  15.657  17.214   9.578  0.0650  0.0035 -0.0083
   97loPI   C4B 1552  15.626  17.306   9.116 -0.0493 -0.0034  0.2736
   98loPI    C1 1553   4.112   7.255  11.350  0.0465  0.0368 -0.1242
   98loPI    C2 1554   4.415   7.016  11.457 -0.0163  0.0433  0.0706
   98loPI    C3 1555   4.163   7.157  11.734 -0.0344  0.2618 -0.0548
   98loPI   PO4 1556   4.215   7.446  11.186 -0.0647 -0.1556  0.1959
   98loPI   GL1 1557   4.306   7.552  10.801  0.0348  0.2641 -0.0465
   98loPI   GL2 1558   4.113   7.345  10.697  0.0797 -0.0532 -0.3821
   98loPI   C1A 1559   4.454   7.616  10.376  0.0556 -0.2951 -0.2373
   98loPI   C2A 1560   4.434   7.708   9.970  0.3166 -0.0215  0.1178
   98loPI   C3A 1561   4.386   7.603   9.536 -0.3667  0.0160  0.5729
   98loPI   C4A 1562   4.469   7.614   9.052  0.0671  0.0711 -0.1748
   98loPI   C5A 1563   4.463   7.571   8.694 -0.1056  0.0078  0.1268
   98loPI   C6A 1564   4.602   7.732   8.242 -0.0749 -0.1329 -0.2345
   98loPI   C1B 1565   4.015   7.451  10.327 -0.1151  0.1877 -0.1724
   98loPI   C2B 1566   3.959   7.421   9.857 -0.3302  0.0443  0.1111
   98loPI   C3B 1567   3.976   7.433   9.366 -0.2150  0.0879 -0.0554
   98loPI   C4B 1568   4.032   7.371   8.910 -0.2206 -0.0438 -0.1276
   99loPI    C1 1569  17.443   5.671  11.128  0.0185 -0.1820  0.2598
   99loPI    C2 1570  17.772   5.898  11.117 -0.2776  0.2477 -0.1560
   99loPI    C3 1571  17.625   5.776  11.468  0.1627  0.2835  0.0479
   99loPI   PO4 1572  17.381   5.666  10.946  0.1414  0.0834 -0.0176
   99loPI   GL1 1573  17.551   5.943  10.659 -0.0276 -0.0304 -0.0781
   99loPI   GL2 1574  17.790   6.142  10.611 -0.1364 -0.1432 -0.0112
   99loPI   C1A 1575  17.461   5.824  10.255 -0.0305 -0.1491 -0.1129
   99loPI   C2A 1576  17.378   5.748   9.779 -0.0666 -0.0764  0.0890
   99loPI   C3A 1577  17.489   5.732   9.271 -0.0323  0.1489  0.4024
   99loPI   C4A 1578  17.439   5.865   8.886  0.0590  0.3040  0.0814
   99loPI   C5A 1579  17.548   5.878   8.495 -0.0835  0.0591  0.1873
   99loPI   C6A 1580  17.808   6.073   8.284 -0.2768 -0.5141  0.2279
   99loPI   C1B 1581  17.871   6.065  10.092 -0.1582  0.3355 -0.2622
   99loPI   C2B 1582  17.849   5.998   9.656  0.1056 -0.2573  0.1880
   99loPI   C3B 1583  17.937   5.946   9.267  0.0180  0.1258  0.4232
   99loPI   C4B 1584  17.908   6.028   8.871 -0.0364  0.4416  0.0837
  100loPI    C1 1585   2.651   5.419  11.236  0.1792  0.0613 -0.0232
  100loPI    C2 1586   2.768   5.288  11.596  0.3445 -0.0123 -0.1026
  100loPI    C3 1587   2.458   5.539  11.566  0.0799 -0.3119  0.0595
  100loPI   PO4 1588   2.567   5.260  11.087 -0.2095  0.1081 -0.2215
  100loPI   GL1 1589   2.382   5.189  10.717  0.0960 -0.2128 -0.0114
  100loPI   GL2 1590   2.573   4.828  10.678  0.1136 -0.0229  0.1228
  100loPI   C1A 1591   2.701   5.124  10.356 -0.0232 -0.2368  0.0991
  100loPI   C2A 1592   2.491   5.116   9.964  0.3779  0.1424 -0.1658
  100loPI   C3A 1593   2.244   5.109   9.585  0.0533 -0.0170 -0.1137
  100loPI   C4A 1594   2.308   5.073   9.131 -0.2170  0.1246 -0.1995
  100loPI   C5A 1595   2.646   5.162   8.808  0.0064  0.1184 -0.2444
  100loPI   C6A 1596   3.031   5.344   8.635  0.0003  0.2684 -0.0743
  100loPI   C1B 1597   2.608   4.506  10.363 -0.0611  0.0960 -0.0735
  100loPI   C2B 1598   2.670   4.290   9.989  0.1686  0.0976  0.3519
  100loPI   C3B 1599   2.825   4.380   9.532 -0.0674 -0.1989 -0.1233
  100loPI   C4B 1600   2.790   4.311   9.099  0.2914 -0.1253 -0.4721
  101loPI    C1 1601   9.071   9.177  11.372 -0.1469  0.2993 -0.0007
  101loPI    C2 1602   8.936   8.807  11.306  0.1334  0.2759 -0.4842
  101loPI    C3 1603   8.886   8.976  11.664  0.2918 -0.3528 -0.1508
  101loPI   PO4 1604   9.053   9.284  11.202 -0.2153  0.0248  0.0334
  101loPI   GL1 1605   8.942   9.068  10.782  0.2354 -0.1792  0.0679
  101loPI   GL2 1606   8.884   8.724  10.848  0.2102 -0.1053 -0.0223
  101loPI   C1A 1607   8.918   9.046  10.277  0.0903  0.0420  0.1082
  101loPI   C2A 1608   8.865   9.110   9.848  0.1616  0.1086  0.1855
  101loPI   C3A 1609   8.795   9.179   9.459  0.1912 -0.3276 -0.0150
  101loPI   C4A 1610   8.845   9.224   9.046 -0.1364 -0.0870  0.0102
  101loPI   C5A 1611   8.739   9.335   8.581  0.1051 -0.0058  0.3315
  101loPI   C6A 1612   8.559   9.024   8.241 -0.1380 -0.2146  0.0065
  101loPI   C1B 1613   8.872   8.556  10.410 -0.0618  0.2642 -0.1372
  101loPI   C2B 1614   8.833   8.532  10.031 -0.2365 -0.0903  0.3762
  101loPI   C3B 1615   8.794   8.660   9.589 -0.3775  0.1268  0.1181
  101loPI   C4B 1616   8.854   8.752   9.183  0.0308 -0.1055 -0.1326
  102loPI    C1 1617   5.694   0.794  11.331 -0.0229  0.2048  0.0315
  102loPI    C2 1618   5.686   0.479  11.577 -0.3157  0.2403  0.0710
  102loPI    C3 1619   5.830   0.829  11.706  0.0687  0.1100  0.0075
  102loPI   PO4 1620   5.784   0.699  11.097  0.0407  0.1542 -0.2389
  102loPI   GL1 1621   5.808   0.638  10.666 -0.0853 -0.0590 -0.0297
  102loPI   GL2 1622   5.732   0.920  10.655  0.0674  0.0241  0.2005
  102loPI   C1A 1623   5.808   0.585  10.217  0.0300  0.1477  0.0769
  102loPI   C2A 1624   5.784   0.494   9.790  0.1512  0.0529 -0.0902
  102loPI   C3A 1625   5.730   0.381   9.375  0.1492 -0.0624  0.4701
  102loPI   C4A 1626   5.713   0.356   8.985  0.1149  0.5727  0.0727
  102loPI   C5A 1627   5.421   0.291   8.632  0.1206  0.0121  0.0176
  102loPI   C6A 1628   5.070   0.406   8.581 -0.4216  0.1124  0.0832
  102loPI   C1B 1629   5.767   1.126  10.239 -0.2292  0.1220  0.0943
  102loPI   C2B 1630   5.794   1.003   9.801 -0.0450 -0.2465 -0.1753
  102loPI   C3B 1631   5.794   0.878   9.446 -0.2082 -0.4939 -0.0765
  102loPI   C4B 1632   5.790   0.937   9.017 -0.0138  0.1086 -0.1816
  103loPI    C1 1633   4.161  14.896  11.408 -0.0021 -0.1111 -0.1343
  103loPI    C2 1634   4.052  15.063  11.061 -0.1947 -0.0923 -0.0658
  103loPI    C3 1635   4.209  15.289  11.352 -0.0966 -0.0966 -0.1151
  103loPI   PO4 1636   4.253  14.723  11.367  0.0607  0.0706 -0.1839
  103loPI   GL1 1637   4.193  14.584  10.983 -0.0504  0.1622  0.2092
  103loPI   GL2 1638   4.351  14.303  10.905  0.1815 -0.1330  0.0892
  103loPI   C1A 1639   3.941  14.676  10.518 -0.1105 -0.0767  0.1567
  103loPI   C2A 1640   3.946  14.609  10.118 -0.2155 -0.2842  0.0896
  103loPI   C3A 1641   3.935  14.731   9.700  0.0105  0.0936 -0.1772
  103loPI   C4A 1642   3.906  14.773   9.291  0.3103  0.1070  0.1234
  103loPI   C5A 1643   3.909  14.680   8.817 -0.1769 -0.1098  0.2373
  103loPI   C6A 1644   4.142  14.667   8.486 -0.0489  0.0816 -0.0331
  103loPI   C1B 1645   4.375  14.426  10.439 -0.3427 -0.1785  0.1002
  103loPI   C2B 1646   4.389  14.474   9.960 -0.0538  0.0008  0.0980
  103loPI   C3B 1647   4.457  14.420   9.497 -0.1505  0.3550  0.1309
  103loPI   C4B 1648   4.327  14.456   9.116  0.0568 -0.1692 -0.3094
  104loPI    C1 1649   8.786  13.578  11.543 -0.0596  0.1709 -0.0568
  104loPI    C2 1650   8.820  13.905  11.770  0.3149 -0.0499  0.2170
  104loPI    C3 1651   8.784  13.546  11.942 -0.1765 -0.1515 -0.0803
  104loPI   PO4 1652   8.710  13.705  11.241  0.2714  0.0677 -0.2758
  104loPI   GL1 1653   8.956  13.769  10.960  0.2117  0.0052  0.1701
  104loPI   GL2 1654   8.844  13.528  10.820 -0.2045 -0.0993  0.1184
  104loPI   C1A 1655   8.774  13.941  10.541  0.3094 -0.1013 -0.1250
  104loPI   C2A 1656   8.837  13.891  10.090  0.2098  0.0397  0.0100
  104loPI   C3A 1657   8.881  13.913   9.679  0.3232 -0.0392 -0.0736
  104loPI   C4A 1658   8.974  13.791   9.323 -0.0211  0.1350  0.1455
  104loPI   C5A 1659   8.895  13.944   8.841 -0.1684  0.3948  0.2918
  104loPI   C6A 1660   9.078  13.891   8.395  0.0257 -0.1213  0.0726
  104loPI   C1B 1661   8.860  13.416  10.402 -0.0058  0.3463 -0.1385
  104loPI   C2B 1662   8.873  13.418   9.936  0.0184 -0.1664  0.1906
  104loPI   C3B 1663   8.881  13.345   9.562  0.1566  0.0817 -0.1016
  104loPI   C4B 1664   8.890  13.299   9.123  0.2039  0.1980 -0.1635
  105loPI    C1 1665  12.103   3.255  11.137 -0.0753 -0.0235  0.0320
  105loPI    C2 1666  11.759   3.052  11.156  0.0588 -0.2649 -0.0785
  105loPI    C3 1667  12.025   3.023  11.453 -0.0375 -0.0353  0.0327
  105loPI   PO4 1668  12.288   3.286  10.991  0.2318  0.0306 -0.0676
  105loPI   GL1 1669  12.396   3.208  10.626 -0.0346 -0.0817  0.1162
  105loPI   GL2 1670  12.790   3.170  10.647  0.0694  0.0101 -0.1589
  105loPI   C1A 1671  12.427   3.251  10.115 -0.1468 -0.1018 -0.1326
  105loPI   C2A 1672  12.458   3.288   9.741  0.2235 -0.0606 -0.0651
  105loPI   C3A 1673  12.585   3.182   9.374 -0.0632 -0.2751 -0.2398
  105loPI   C4A 1674  12.169   3.031   9.274  0.3904  0.1873 -0.1861
  105loPI   C5A 1675  11.967   2.928   8.975 -0.0855  0.2461 -0.1638
  105loPI   C6A 1676  11.567   2.719   8.791  0.0664  0.1069  0.0165
  105loPI   C1B 1677  12.894   3.041  10.156 -0.0453 -0.3838 -0.0071
  105loPI   C2B 1678  12.880   3.079   9.765  0.0957 -0.0927  0.2017
  105loPI   C3B 1679  13.035   2.976   9.373  0.1743 -0.6503  0.2490
  105loPI   C4B 1680  12.969   3.149   8.990  0.0437 -0.0568  0.0955
  106loPI    C1 1681   4.474   3.997  11.041  0.2392  0.0601  0.0440
  106loPI    C2 1682   4.334   3.999  11.415 -0.2493  0.1327 -0.1315
  106loPI    C3 1683   4.717   4.090  11.344 -0.1750  0.2121  0.3384
  106loPI   PO4 1684   4.262   3.829  10.926 -0.0145  0.0173 -0.1930
  106loPI   GL1 1685   4.102   3.754  10.619  0.1615  0.2097 -0.0871
  106loPI   GL2 1686   3.824   3.992  10.576  0.0864  0.0005  0.0011
  106loPI   C1A 1687   4.320   3.536  10.274 -0.2844  0.1319 -0.2404
  106loPI   C2A 1688   4.363   3.369   9.832  0.1246 -0.0047 -0.2487
  106loPI   C3A 1689   4.124   3.470   9.475  0.0714 -0.0379 -0.0760
  106loPI   C4A 1690   4.124   3.536   9.153 -0.2004 -0.1258 -0.1409
  106loPI   C5A 1691   4.545   3.826   9.044 -0.1174 -0.0261  0.0179
  106loPI   C6A 1692   4.713   4.052   8.650  0.1913  0.0084  0.0893
  106loPI   C1B 1693   3.923   3.917  10.162  0.0843  0.0205  0.0493
  106loPI   C2B 1694   4.063   3.914   9.690  0.0584 -0.3052 -0.3416
  106loPI   C3B 1695   4.496   3.886   9.615  0.1470  0.0722  0.1232
  106loPI   C4B 1696   4.698   3.727   9.923  0.2389  0.0494  0.2506
  107loPI    C1 1697   5.060  10.551  11.656  0.3241  0.1104 -0.0108
  107loPI    C2 1698   4.816  10.751  11.902  0.2533  0.0385 -0.0223
  107loPI    C3 1699   5.186  10.657  12.020  0.1372 -0.2113  0.1524
  107loPI   PO4 1700   5.105  10.710  11.411 -0.1487  0.1416 -0.0049
  107loPI   GL1 1701   5.303  10.586  11.091  0.0536  0.0310 -0.2917
  107loPI   GL2 1702   5.139  10.873  10.965  0.1948  0.0325  0.0376
  107loPI   C1A 1703   5.309  10.615  10.600 -0.0598  0.0079  0.0391
  107loPI   C2A 1704   5.302  10.662  10.150 -0.2023 -0.0870 -0.2874
  107loPI   C3A 1705   5.260  10.860   9.798 -0.3961  0.1513 -0.0724
  107loPI   C4A 1706   5.083  10.818   9.398 -0.0595  0.2553  0.1505
  107loPI   C5A 1707   5.289  10.887   9.025 -0.0013  0.2246  0.2562
  107loPI   C6A 1708   5.382  10.958   8.536 -0.1570  0.3540 -0.0785
  107loPI   C1B 1709   5.276  11.163  10.584  0.0811  0.2212  0.1057
  107loPI   C2B 1710   5.325  11.252  10.157 -0.3760 -0.2024 -0.5763
  107loPI   C3B 1711   5.222  11.350   9.797  0.1832 -0.1058  0.4103
  107loPI   C4B 1712   5.311  11.329   9.306 -0.2382 -0.2513  0.0561
  108loPI    C1 1713  16.317   9.633  10.859  0.1762 -0.0087  0.1330
  108loPI    C2 1714  16.022   9.883  10.960  0.0984 -0.0505  0.0116
  108loPI    C3 1715  16.298   9.779  11.231 -0.0997 -0.1520  0.1782
  108loPI   PO4 1716  16.306   9.660  10.546 -0.1091  0.1185  0.1754
  108loPI   GL1 1717  16.125   9.985  10.379 -0.0112  0.1547  0.2571
  108loPI   GL2 1718  15.867   9.970  10.499 -0.0383  0.0417 -0.0047
  108loPI   C1A 1719  16.117  10.019  10.007 -0.1016 -0.2914 -0.2968
  108loPI   C2A 1720  15.985  10.256   9.684  0.2675 -0.2928 -0.0067
  108loPI   C3A 1721  16.024  10.287   9.282 -0.0526 -0.5837  0.2194
  108loPI   C4A 1722  16.060  10.227   8.925 -0.0242  0.4172  0.2016
  108loPI   C5A 1723  16.087  10.305   8.443 -0.0067  0.2901  0.1333
  108loPI   C6A 1724  15.832  10.253   8.140 -0.0812  0.3729 -0.3476
  108loPI   C1B 1725  15.706  10.221  10.215 -0.2815  0.3009  0.0995
  108loPI   C2B 1726  15.535  10.354   9.848  0.1077  0.1588  0.1806
  108loPI   C3B 1727  15.548  10.389   9.375  0.2298 -0.2948  0.3758
  108loPI   C4B 1728  15.634   9.940   9.111 -0.2793 -0.2616  0.0058
  109loPI    C1 1729  13.745  11.597  11.544 -0.1447  0.1906  0.0118
  109loPI    C2 1730  13.880  11.738  11.893  0.1296 -0.2434  0.0883
  109loPI    C3 1731  13.530  11.546  11.877 -0.0068  0.0022  0.0734
  109loPI   PO4 1732  13.749  11.739  11.302  0.0455  0.2134  0.3314
  109loPI   GL1 1733  13.723  11.524  10.885  0.1900 -0.1144 -0.1865
  109loPI   GL2 1734  13.858  11.741  10.684 -0.0605  0.0166  0.1253
  109loPI   C1A 1735  13.780  11.343  10.408  0.1960 -0.0639  0.1190
  109loPI   C2A 1736  13.767  11.325   9.965  0.1029  0.0424 -0.0009
  109loPI   C3A 1737  13.821  11.412   9.556  0.3303 -0.3153  0.1710
  109loPI   C4A 1738  13.816  11.454   9.144  0.1967  0.0791  0.2010
  109loPI   C5A 1739  13.760  11.427   8.748  0.3767  0.2499  0.1976
  109loPI   C6A 1740  13.512  11.701   8.401 -0.2292  0.0865 -0.2759
  109loPI   C1B 1741  13.780  11.841  10.256 -0.0597  0.0541  0.0912
  109loPI   C2B 1742  13.744  11.978   9.856  0.1818  0.1779  0.0367
  109loPI   C3B 1743  13.833  11.986   9.428 -0.1611  0.1672 -0.1314
  109loPI   C4B 1744  13.844  12.033   8.956  0.1912 -0.1063  0.2429
  110loPI    C1 1745   1.019  10.216  11.518  0.0368 -0.0863  0.2178
  110loPI    C2 1746   0.682  10.104  11.333  0.1138  0.1777 -0.0918
  110loPI    C3 1747   0.664  10.292  11.686 -0.0527  0.0188 -0.0144
  110loPI   PO4 1748   1.162  10.284  11.237 -0.0093  0.0133 -0.0462
  110loPI   GL1 1749   1.163  10.309  10.705  0.1217  0.0027 -0.3624
  110loPI   GL2 1750   1.423  10.377  10.809  0.0115 -0.1111 -0.0833
  110loPI   C1A 1751   1.274  10.432  10.328 -0.5215 -0.2356  0.3271
  110loPI   C2A 1752   1.277  10.434   9.901  0.0546  0.0390 -0.0937
  110loPI   C3A 1753   1.202  10.440   9.361 -0.5579 -0.2259 -0.1502
  110loPI   C4A 1754   1.233  10.452   8.991  0.2731 -0.0784  0.2299
  110loPI   C5A 1755   1.237  10.348   8.516  0.2962 -0.0659 -0.2643
  110loPI   C6A 1756   1.514  10.028   8.264 -0.0778  0.0849 -0.2710
  110loPI   C1B 1757   1.650  10.116  10.523  0.0545 -0.1697 -0.1927
  110loPI   C2B 1758   1.772  10.183  10.058  0.2089 -0.0654 -0.2921
  110loPI   C3B 1759   1.668  10.176   9.638  0.2236  0.0209  0.0007
  110loPI   C4B 1760   1.727  10.233   9.266 -0.0935  0.2838  0.0153
  111loPI    C1 1761  10.355  16.957  11.539 -0.0092 -0.0982 -0.0659
  111loPI    C2 1762  10.733  16.938  11.669 -0.0131  0.0420 -0.0321
  111loPI    C3 1763  10.433  16.977  11.931 -0.0287  0.2235 -0.0764
  111loPI   PO4 1764  10.337  16.760  11.400  0.0865  0.0051  0.0059
  111loPI   GL1 1765  10.297  16.704  10.923 -0.0958 -0.4381 -0.0021
  111loPI   GL2 1766   9.978  16.709  10.917 -0.2364  0.2092 -0.4334
  111loPI   C1A 1767  10.291  16.750  10.533 -0.1817 -0.1632 -0.1981
  111loPI   C2A 1768  10.262  16.696  10.105 -0.0738  0.1794 -0.2420
  111loPI   C3A 1769  10.230  16.694   9.706  0.0291 -0.2886 -0.0718
  111loPI   C4A 1770  10.182  16.598   9.337  0.1123  0.1246  0.0647
  111loPI   C5A 1771  10.159  16.686   8.908 -0.0582 -0.0256  0.1758
  111loPI   C6A 1772  10.005  16.514   8.436 -0.1313  0.5880 -0.1079
  111loPI   C1B 1773   9.727  16.523  10.505 -0.1064  0.2879  0.2336
  111loPI   C2B 1774   9.741  16.503  10.109 -0.0437 -0.0336  0.2517
  111loPI   C3B 1775   9.746  16.452   9.652 -0.2968  0.2445 -0.2956
  111loPI   C4B 1776   9.650  16.434   9.126 -0.1602 -0.4356 -0.0115
  112loPI    C1 1777   0.076  15.893  11.600  0.1373  0.2577  0.0398
  112loPI    C2 1778  -0.116  15.704  11.896  0.1489 -0.1188 -0.1863
  112loPI    C3 1779   0.071  16.051  11.968 -0.2644  0.0467  0.1307
  112loPI   PO4 1780  -0.127  15.807  11.386  0.2449 -0.3815  0.2457
  112loPI   GL1 1781  -0.092  15.629  10.989  0.2233 -0.2761  0.0394
  112loPI   GL2 1782  -0.315  15.814  10.900  0.2165  0.0898 -0.1345
  112loPI   C1A 1783  -0.224  15.310  10.633 -0.3466 -0.0090  0.1980
  112loPI   C2A 1784  -0.130  15.382  10.186  0.0318 -0.1503 -0.1870
  112loPI   C3A 1785  -0.132  15.409   9.745 -0.1235  0.0223  0.1495
  112loPI   C4A 1786  -0.142  15.444   9.312  0.2116  0.3406 -0.2635
  112loPI   C5A 1787  -0.186  15.516   8.848  0.2498  0.0907 -0.1683
  112loPI   C6A 1788  -0.232  15.856   8.570  0.1816 -0.1475 -0.0958
  112loPI   C1B 1789  -0.083  15.788  10.489  0.2402  0.2688 -0.2274
  112loPI   C2B 1790  -0.106  15.847  10.009  0.0453  0.2034  0.0875
  112loPI   C3B 1791  -0.082  15.910   9.524 -0.1822  0.0801 -0.1710
  112loPI   C4B 1792  -0.062  15.944   9.163 -0.2803  0.2839 -0.1117
  113loPI    C1 1793  17.374  17.273  11.165 -0.0046  0.0047 -0.0081
  113loPI    C2 1794  17.485  17.497  11.478 -0.0121  0.1079 -0.0789
  113loPI    C3 1795  17.105  17.501  11.354 -0.0280 -0.0016 -0.0340
  113loPI   PO4 1796  17.634  17.257  11.029 -0.1071 -0.0889  0.0199
  113loPI   GL1 1797  17.658  17.078  10.642 -0.1424  0.1187  0.1734
  113loPI   GL2 1798  17.867  16.994  10.477  0.1390 -0.1696  0.1192
  113loPI   C1A 1799  17.375  17.136  10.265  0.2591 -0.0578 -0.1408
  113loPI   C2A 1800  17.334  17.194   9.923  0.1188  0.0901 -0.2376
  113loPI   C3A 1801  17.327  17.236   9.429  0.0462  0.0428 -0.1993
  113loPI   C4A 1802  17.379  17.251   9.046 -0.0196  0.0459 -0.0768
  113loPI   C5A 1803  17.467  17.276   8.664 -0.2103 -0.1449  0.0487
  113loPI   C6A 1804  17.643  17.248   8.259  0.0564 -0.0983 -0.1462
  113loPI   C1B 1805  17.821  17.033  10.032 -0.1009 -0.2723 -0.1832
  113loPI   C2B 1806  17.802  16.959   9.662  0.2723 -0.0407  0.1483
  113loPI   C3B 1807  17.856  17.020   9.208 -0.0477 -0.1260 -0.1799
  113loPI   C4B 1808  17.883  16.897   8.744  0.0794  0.0573 -0.2703
  114loPI    C1 1809   7.222   8.789  11.467 -0.1918  0.0019  0.0969
  114loPI    C2 1810   7.325   8.563  11.780  0.3513 -0.1758 -0.1980
  114loPI    C3 1811   7.424   8.950  11.772  0.0163 -0.0817  0.0050
  114loPI   PO4 1812   7.324   8.679  11.290 -0.0064 -0.0983  0.1387
  114loPI   GL1 1813   7.460   8.784  10.918  0.2934 -0.1883  0.0167
  114loPI   GL2 1814   7.146   8.693  10.748 -0.0809  0.1055  0.0814
  114loPI   C1A 1815   7.507   8.899  10.428 -0.2034  0.1470 -0.1460
  114loPI   C2A 1816   7.528   8.869  10.031 -0.2717  0.2613 -0.0842
  114loPI   C3A 1817   7.534   8.912   9.567 -0.2337  0.1297 -0.1065
  114loPI   C4A 1818   7.444   8.989   9.216 -0.1226  0.0946 -0.2029
  114loPI   C5A 1819   7.217   9.121   8.815  0.0200 -0.0181  0.0904
  114loPI   C6A 1820   7.013   9.410   8.506  0.1848  0.2487  0.2356
  114loPI   C1B 1821   7.058   8.568  10.390 -0.0045 -0.1530  0.2034
  114loPI   C2B 1822   7.015   8.592   9.932 -0.0089  0.2674 -0.1429
  114loPI   C3B 1823   7.094   8.732   9.522  0.2303  0.2746  0.0618
  114loPI   C4B 1824   7.025   8.716   9.157  0.1446  0.1218  0.2466
  115loPI    C1 1825   3.970   9.718  11.643 -0.2201 -0.3865 -0.3503
  115loPI    C2 1826   3.693   9.477  11.802 -0.1491 -0.1973  0.0729
  115loPI    C3 1827   3.705   9.864  11.904  0.0452 -0.1216 -0.2227
  115loPI   PO4 1828   4.017   9.607  11.402  0.2688  0.1358  0.2879
  115loPI   GL1 1829   3.899   9.707  11.035  0.4068  0.0055 -0.1071
  115loPI   GL2 1830   3.927   9.406  10.966 -0.0651 -0.1175  0.0436
  115loPI   C1A 1831   3.954   9.869  10.630 -0.0146 -0.3993  0.0967
  115loPI   C2A 1832   4.013   9.904  10.206  0.1654  0.0813  0.0107
  115loPI   C3A 1833   3.841  10.041   9.736  0.0421 -0.4009  0.0371
  115loPI   C4A 1834   3.831  10.028   9.252 -0.3130 -0.0626 -0.0219
  115loPI   C5A 1835   3.685   9.951   8.861 -0.3566 -0.3024  0.2055
  115loPI   C6A 1836   3.650   9.658   8.563 -0.3573 -0.0596 -0.1584
  115loPI   C1B 1837   4.094   9.394  10.542  0.2338  0.1511  0.0893
  115loPI   C2B 1838   3.999   9.424  10.126  0.1703  0.2026 -0.0643
  115loPI   C3B 1839   3.915   9.545   9.741 -0.2824 -0.0399  0.0935
  115loPI   C4B 1840   3.907   9.543   9.330  0.2048 -0.0178 -0.2251
  116loPI    C1 1841   5.214   1.131  11.395 -0.1479 -0.2408  0.0697
  116loPI    C2 1842   5.279   1.290  11.757  0.2648 -0.1465 -0.0408
  116loPI    C3 1843   5.372   0.907  11.687  0.3223 -0.1245 -0.0862
  116loPI   PO4 1844   5.272   1.311  11.238  0.2633  0.3496 -0.1184
  116loPI   GL1 1845   5.118   1.471  10.970  0.4811  0.2930  0.1068
  116loPI   GL2 1846   5.318   1.314  10.744 -0.1517  0.2262 -0.1322
  116loPI   C1A 1847   4.903   1.467  10.556  0.1901  0.3193 -0.0417
  116loPI   C2A 1848   4.956   1.465  10.100 -0.0156  0.5356 -0.0343
  116loPI   C3A 1849   4.895   1.458   9.750 -0.2404  0.0496  0.3172
  116loPI   C4A 1850   4.805   1.595   9.318  0.2310 -0.0903 -0.2334
  116loPI   C5A 1851   4.826   1.474   8.926  0.0468 -0.1621 -0.0985
  116loPI   C6A 1852   4.795   1.385   8.433 -0.2938  0.2143 -0.2117
  116loPI   C1B 1853   5.286   1.180  10.290  0.2161  0.2316  0.1007
  116loPI   C2B 1854   5.403   1.276   9.949  0.3833 -0.0131  0.3160
  116loPI   C3B 1855   5.354   1.194   9.578 -0.2577 -0.1501  0.0908
  116loPI   C4B 1856   5.352   1.120   9.162 -0.1006 -0.0223  0.3360
  117loPI    C1 1857   8.031   8.908  11.177 -0.0397 -0.0384 -0.0095
  117loPI    C2 1858   7.691   9.083  11.297  0.0559  0.0515  0.1334
  117loPI    C3 1859   7.913   8.877  11.558  0.0682 -0.0796  0.0207
  117loPI   PO4 1860   8.032   8.831  10.984  0.1127 -0.1299  0.0767
  117loPI   GL1 1861   7.927   9.090  10.656  0.0852  0.0466 -0.1841
  117loPI   GL2 1862   8.024   9.317  10.879  0.0552  0.1911  0.1610
  117loPI   C1A 1863   7.999   9.114  10.195  0.0499 -0.0392 -0.1396
  117loPI   C2A 1864   7.911   9.148   9.762  0.0830  0.1584  0.2339
  117loPI   C3A 1865   7.920   9.228   9.410 -0.0290 -0.0478 -0.1379
  117loPI   C4A 1866   7.858   9.177   9.045  0.3156  0.1237  0.2187
  117loPI   C5A 1867   7.924   8.727   8.921 -0.1242  0.0122 -0.1114
  117loPI   C6A 1868   8.141   8.508   8.578  0.1384  0.3070  0.0791
  117loPI   C1B 1869   8.081   9.536  10.511 -0.1573  0.0627  0.0803
  117loPI   C2B 1870   7.967   9.621  10.176  0.1787  0.1244 -0.3018
  117loPI   C3B 1871   7.983   9.726   9.738 -0.0865 -0.0413 -0.0796
  117loPI   C4B 1872   7.940   9.698   9.300 -0.2417 -0.0588 -0.1638
  118loPI    C1 1873  15.402   8.599  10.878  0.0467  0.2802 -0.0846
  118loPI    C2 1874  15.229   8.801  11.177  0.1111  0.3714 -0.1086
  118loPI    C3 1875  15.580   8.618  11.235 -0.0469  0.0886 -0.0263
  118loPI   PO4 1876  15.354   8.732  10.675  0.1759  0.1832  0.0700
  118loPI   GL1 1877  15.522   8.585  10.269 -0.3806 -0.1814 -0.0098
  118loPI   GL2 1878  15.485   8.249  10.303 -0.0088 -0.1493  0.2306
  118loPI   C1A 1879  15.472   8.852   9.884 -0.1996  0.0666 -0.2333
  118loPI   C2A 1880  15.615   8.868   9.542  0.1597 -0.0669 -0.0210
  118loPI   C3A 1881  15.648   8.851   9.094  0.5152  0.3509 -0.1347
  118loPI   C4A 1882  15.682   8.988   8.647 -0.2548 -0.1035  0.4399
  118loPI   C5A 1883  15.670   9.181   8.300  0.1894  0.0893 -0.1457
  118loPI   C6A 1884  15.822   9.501   8.031 -0.0669  0.0170  0.1293
  118loPI   C1B 1885  15.614   8.280   9.857  0.0222 -0.0403  0.0613
  118loPI   C2B 1886  15.578   8.333   9.445  0.0123 -0.0854 -0.0890
  118loPI   C3B 1887  15.761   8.286   9.008  0.0864 -0.0129 -0.1086
  118loPI   C4B 1888  15.655   8.363   8.611  0.0179 -0.0769  0.0434
  119loPI    C1 1889   3.530  17.023  11.506 -0.2234 -0.1875  0.1177
  119loPI    C2 1890   3.536  16.917  11.891 -0.0584 -0.1741  0.1194
  119loPI    C3 1891   3.816  16.779  11.642  0.2192  0.3278  0.1411
  119loPI   PO4 1892   3.458  17.281  11.315 -0.0550 -0.0353 -0.1365
  119loPI   GL1 1893   3.219  17.180  11.107 -0.3089 -0.0618  0.0953
  119loPI   GL2 1894   3.463  17.091  10.854 -0.0524  0.2438 -0.1535
  119loPI   C1A 1895   3.043  17.344  10.751  0.0954 -0.1531 -0.2307
  119loPI   C2A 1896   3.123  17.315  10.304  0.3499  0.0304 -0.0434
  119loPI   C3A 1897   3.123  17.335   9.839 -0.0628  0.3431 -0.1391
  119loPI   C4A 1898   3.046  17.304   9.310 -0.3290  0.0043 -0.1927
  119loPI   C5A 1899   3.242  17.336   8.795  0.1525 -0.5391  0.0149
  119loPI   C6A 1900   3.243  17.204   8.379  0.0539  0.2647  0.0255
  119loPI   C1B 1901   3.514  17.011  10.397 -0.0095 -0.0065  0.0771
  119loPI   C2B 1902   3.591  17.045   9.943  0.2173 -0.2337 -0.0384
  119loPI   C3B 1903   3.473  17.030   9.508 -0.4217  0.5197 -0.0009
  119loPI   C4B 1904   3.544  17.005   9.013  0.1369 -0.0087 -0.1443
  120loPI    C1 1905  10.358  10.279  11.397 -0.2430  0.2075 -0.1136
  120loPI    C2 1906  10.372  10.581  11.659  0.0777 -0.0267  0.1490
  120loPI    C3 1907  10.061  10.330  11.660 -0.1127  0.2041  0.0358
  120loPI   PO4 1908  10.448  10.290  11.220 -0.2098  0.1227  0.1006
  120loPI   GL1 1909  10.467  10.412  10.853 -0.2183 -0.1599  0.3128
  120loPI   GL2 1910  10.157  10.470  10.816  0.1696  0.4627 -0.0023
  120loPI   C1A 1911  10.695  10.096  10.576  0.2178  0.1749 -0.1057
  120loPI   C2A 1912  10.686  10.122  10.121 -0.0817 -0.3050 -0.2120
  120loPI   C3A 1913  10.674  10.138   9.704  0.2010 -0.0224 -0.0127
  120loPI   C4A 1914  10.573  10.107   9.329  0.0889  0.0978  0.0114
  120loPI   C5A 1915  10.689  10.248   8.819 -0.1473  0.0598 -0.3628
  120loPI   C6A 1916  10.967  10.364   8.502 -0.0330 -0.1041  0.0361
  120loPI   C1B 1917  10.240  10.312  10.415 -0.0699  0.0133 -0.3067
  120loPI   C2B 1918  10.155  10.294  10.019 -0.1978 -0.2704  0.2562
  120loPI   C3B 1919  10.184  10.386   9.668  0.0997  0.0927 -0.1039
  120loPI   C4B 1920  10.216  10.348   9.153  0.0354 -0.1325  0.2079
  121loPI    C1 1921  14.024   7.449  11.092 -0.1014 -0.1612 -0.0296
  121loPI    C2 1922  13.966   7.644  11.436 -0.0194  0.0182 -0.1156
  121loPI    C3 1923  14.065   7.257  11.440  0.0638  0.0403  0.0646
  121loPI   PO4 1924  14.176   7.610  10.902  0.2055 -0.3033 -0.0044
  121loPI   GL1 1925  14.098   7.818  10.663 -0.1756  0.0856 -0.0990
  121loPI   GL2 1926  14.321   7.965  10.356  0.1043 -0.1502  0.3565
  121loPI   C1A 1927  13.864   7.736  10.256 -0.1842 -0.1231 -0.0217
  121loPI   C2A 1928  13.801   7.662   9.829 -0.2125  0.0275 -0.1604
  121loPI   C3A 1929  13.849   7.747   9.371  0.1777 -0.0155  0.0161
  121loPI   C4A 1930  13.865   7.871   8.918  0.3705 -0.1701 -0.1472
  121loPI   C5A 1931  13.907   7.915   8.495  0.0266  0.2385 -0.1869
  121loPI   C6A 1932  13.682   7.999   8.174  0.3135  0.2025 -0.3126
  121loPI   C1B 1933  14.239   7.952   9.887  0.0645  0.0893 -0.0199
  121loPI   C2B 1934  14.268   8.083   9.437  0.1604 -0.1277 -0.0265
  121loPI   C3B 1935  14.313   8.196   8.972 -0.1427 -0.1638  0.0132
  121loPI   C4B 1936  14.361   8.202   8.584 -0.0403  0.1625 -0.0595
  122loPI    C1 1937  14.123  13.337  11.400 -0.1627  0.0323  0.2746
  122loPI    C2 1938  14.393  13.100  11.575  0.0944  0.4153  0.4081
  122loPI    C3 1939  14.110  13.277  11.795 -0.2568  0.0380  0.2728
  122loPI   PO4 1940  13.959  13.215  11.178 -0.0799  0.1480 -0.0983
  122loPI   GL1 1941  13.973  13.135  10.794 -0.0909  0.1925 -0.1904
  122loPI   GL2 1942  13.655  13.036  10.606  0.3379 -0.3491 -0.0890
  122loPI   C1A 1943  14.176  13.163  10.311  0.2102 -0.1111 -0.1097
  122loPI   C2A 1944  14.331  13.118   9.955  0.1429  0.0252  0.1422
  122loPI   C3A 1945  14.271  13.276   9.538 -0.0435  0.0974  0.3138
  122loPI   C4A 1946  14.242  13.279   9.035  0.1068 -0.0529 -0.0296
  122loPI   C5A 1947  14.090  13.415   8.600  0.2421 -0.0781  0.1749
  122loPI   C6A 1948  13.859  13.654   8.268 -0.0014  0.0227  0.0129
  122loPI   C1B 1949  13.707  12.917  10.220 -0.0999 -0.1957  0.3546
  122loPI   C2B 1950  13.813  12.930   9.786 -0.0549 -0.1205 -0.0160
  122loPI   C3B 1951  13.876  13.075   9.346 -0.2201 -0.1081 -0.1546
  122loPI   C4B 1952  13.797  13.122   8.925  0.2252 -0.3673 -0.2088
  123loPI    C1 1953   9.504   0.853  11.440 -0.0408  0.1717 -0.0362
  123loPI    C2 1954   9.593   1.056  11.774 -0.0868  0.0358  0.0598
  123loPI    C3 1955   9.223   0.914  11.719 -0.0879  0.0854 -0.0644
  123loPI   PO4 1956   9.592   0.997  11.258 -0.1420  0.0746 -0.2519
  123loPI   GL1 1957   9.595   0.939  10.796  0.1209 -0.2398 -0.0723
  123loPI   GL2 1958   9.800   0.772  10.700  0.1382 -0.3021  0.2386
  123loPI   C1A 1959   9.402   1.012  10.477  0.1199  0.0990 -0.1141
  123loPI   C2A 1960   9.262   1.022  10.110 -0.1108 -0.0295  0.0504
  123loPI   C3A 1961   9.306   0.926   9.667  0.2820  0.0137 -0.1112
  123loPI   C4A 1962   9.283   0.862   9.311 -0.0811  0.0238 -0.0780
  123loPI   C5A 1963   9.218   0.954   8.978  0.0043  0.4995 -0.1673
  123loPI   C6A 1964   9.337   0.936   8.588 -0.4050  0.1491  0.2551
  123loPI   C1B 1965   9.805   0.847  10.239  0.0527  0.2104  0.1530
  123loPI   C2B 1966   9.834   0.648   9.838 -0.3160 -0.2732  0.1056
  123loPI   C3B 1967   9.746   0.676   9.456  0.2184 -0.2967  0.0137
  123loPI   C4B 1968   9.690   0.689   8.992  0.3872 -0.1933 -0.1031
  124loPI    C1 1969   5.026  11.180  11.529  0.0135 -0.2049 -0.3107
  124loPI    C2 1970   5.316  11.440  11.620  0.0854 -0.2398 -0.4378
  124loPI    C3 1971   5.306  11.081  11.797 -0.0541 -0.1262 -0.2101
  124loPI   PO4 1972   4.986  11.230  11.263  0.2165  0.0211 -0.3932
  124loPI   GL1 1973   4.804  11.399  10.876 -0.0963  0.1285 -0.0806
  124loPI   GL2 1974   4.472  11.597  10.832  0.2441  0.0496  0.2003
  124loPI   C1A 1975   4.780  11.378  10.415 -0.3085 -0.0176  0.0614
  124loPI   C2A 1976   4.732  11.570  10.053  0.0884 -0.2444  0.2242
  124loPI   C3A 1977   4.411  11.771   9.787 -0.0249 -0.0835  0.1513
  124loPI   C4A 1978   4.438  11.779   9.263 -0.0706  0.0232  0.1231
  124loPI   C5A 1979   4.402  12.024   8.963  0.1727  0.3430 -0.1009
  124loPI   C6A 1980   4.535  12.231   8.550 -0.0898  0.2548  0.2348
  124loPI   C1B 1981   4.387  11.759  10.435  0.1765  0.3883 -0.1543
  124loPI   C2B 1982   4.373  12.146  10.321  0.3576  0.1633  0.1781
  124loPI   C3B 1983   4.382  12.333   9.835 -0.2040 -0.0168  0.1326
  124loPI   C4B 1984   4.321  12.347   9.438 -0.3380  0.2126  0.0728
  125loPI    C1 1985   9.690  11.656  11.193  0.2212  0.1814 -0.0759
  125loPI    C2 1986   9.877  11.801  11.516  0.0486  0.3446 -0.0473
  125loPI    C3 1987   9.477  11.799  11.501  0.0544  0.2254 -0.2102
  125loPI   PO4 1988   9.650  11.755  11.030 -0.0822  0.1930  0.1758
  125loPI   GL1 1989   9.820  11.810  10.603 -0.0671  0.0615 -0.5992
  125loPI   GL2 1990   9.577  11.990  10.499 -0.1227  0.1371  0.0184
  125loPI   C1A 1991   9.769  11.736  10.137  0.1733 -0.2545 -0.0331
  125loPI   C2A 1992   9.764  11.740   9.616  0.0196  0.0304  0.0052
  125loPI   C3A 1993   9.708  11.726   9.136  0.1091  0.3343 -0.3486
  125loPI   C4A 1994   9.696  11.718   8.699 -0.0631  0.2370 -0.0350
  125loPI   C5A 1995   9.370  11.775   8.516 -0.0736 -0.0430  0.0380
  125loPI   C6A 1996   9.102  12.176   8.571  0.1921  0.2528 -0.1379
  125loPI   C1B 1997   9.362  12.090  10.188 -0.1173  0.0256 -0.1020
  125loPI   C2B 1998   9.358  12.044   9.791 -0.4974  0.3322 -0.2666
  125loPI   C3B 1999   9.349  11.944   9.366  0.3444  0.2804 -0.1086
  125loPI   C4B 2000   9.337  12.047   9.000  0.3788 -0.1393  0.0800
  126loPI    C1 2001   7.952   3.684  11.035 -0.0244  0.0807  0.0858
  126loPI    C2 2002   7.577   3.554  11.083  0.0096 -0.0325  0.0467
  126loPI    C3 2003   7.875   3.387  11.291  0.0297  0.1000  0.1246
  126loPI   PO4 2004   7.976   3.744  10.753 -0.0613 -0.1807 -0.2437
  126loPI   GL1 2005   7.870   3.673  10.379  0.1464  0.4641  0.1482
  126loPI   GL2 2006   8.080   3.766  10.227  0.1274 -0.0870  0.1047
  126loPI   C1A 2007   7.731   3.973   9.933  0.0772 -0.0061  0.1234
  126loPI   C2A 2008   7.776   4.300   9.669  0.0275  0.2365  0.4225
  126loPI   C3A 2009   8.060   4.607   9.682  0.0665 -0.1101 -0.1733
  126loPI   C4A 2010   8.344   4.839   9.378  0.2589  0.0342  0.0674
  126loPI   C5A 2011   8.758   4.789   9.290 -0.0018 -0.0555 -0.2728
  126loPI   C6A 2012   8.971   5.143   9.300 -0.1595 -0.1155 -0.0464
  126loPI   C1B 2013   8.072   3.381   9.989  0.0132 -0.0740  0.0372
  126loPI   C2B 2014   8.104   3.166   9.599 -0.1137 -0.0707  0.1719
  126loPI   C3B 2015   8.278   2.917   9.213  0.0440  0.3783  0.1282
  126loPI   C4B 2016   8.694   2.824   8.906  0.0920 -0.1146 -0.5542
  127loPI    C1 2017  11.810  17.857  11.445 -0.2756 -0.0731 -0.2252
  127loPI    C2 2018  11.770  18.222  11.286 -0.0518 -0.0721 -0.2826
  127loPI    C3 2019  11.858  18.181  11.674 -0.2297 -0.0687 -0.2409
  127loPI   PO4 2020  11.927  17.762  11.181 -0.0818  0.0206 -0.4140
  127loPI   GL1 2021  11.818  17.524  10.951 -0.1548  0.0624 -0.3765
  127loPI   GL2 2022  11.558  17.560  10.716  0.2318 -0.3516  0.0006
  127loPI   C1A 2023  11.944  17.332  10.569 -0.0867 -0.0051  0.1187
  127loPI   C2A 2024  12.000  17.260  10.125  0.1467  0.1218  0.0033
  127loPI   C3A 2025  12.030  17.232   9.813 -0.2275 -0.1216  0.2432
  127loPI   C4A 2026  12.022  17.294   9.380  0.0311  0.0213 -0.2130
  127loPI   C5A 2027  12.077  17.261   9.023  0.1767  0.2755  0.1223
  127loPI   C6A 2028  12.250  17.476   8.717  0.1885  0.0210 -0.0766
  127loPI   C1B 2029  11.554  17.548  10.288 -0.0500 -0.1655  0.0105
  127loPI   C2B 2030  11.597  17.476   9.895  0.0785  0.0420  0.2101
  127loPI   C3B 2031  11.588  17.506   9.492  0.1133  0.2474  0.4793
  127loPI   C4B 2032  11.651  17.552   9.067  0.1288 -0.2225 -0.4205
  128loPI    C1 2033   6.888   2.484  10.994 -0.1852  0.0195  0.0811
  128loPI    C2 2034   6.813   2.123  11.148 -0.1282 -0.0344 -0.0167
  128loPI    C3 2035   7.141   2.323  11.258 -0.2926  0.1015  0.2361
  128loPI   PO4 2036   6.926   2.458  10.752 -0.2242 -0.0443 -0.2638
  128loPI   GL1 2037   7.156   2.599  10.527  0.0672 -0.1650 -0.1440
  128loPI   GL2 2038   7.430   2.487  10.375  0.1325 -0.0219  0.2861
  128loPI   C1A 2039   7.148   2.722   9.987  0.1303 -0.0180  0.0516
  128loPI   C2A 2040   6.998   2.885   9.604  0.2534  0.4309 -0.0049
  128loPI   C3A 2041   6.940   2.673   9.118  0.0234 -0.0078 -0.3533
  128loPI   C4A 2042   7.010   2.623   8.767 -0.0912  0.3024  0.0418
  128loPI   C5A 2043   6.631   2.621   8.539  0.0115  0.1041 -0.0547
  128loPI   C6A 2044   6.313   2.689   8.372 -0.1257  0.3712  0.1605
  128loPI   C1B 2045   7.502   2.375  10.028  0.2227  0.1053  0.1149
  128loPI   C2B 2046   7.934   2.232   9.941  0.1822  0.3000 -0.3178
  128loPI   C3B 2047   8.018   2.184   9.495 -0.3037  0.1018 -0.0228
  128loPI   C4B 2048   7.929   2.191   9.109  0.2279  0.3314  0.1907
  129loPI    C1 2049   3.300  13.051  11.928 -0.1807 -0.1912  0.0943
  129loPI    C2 2050   3.369  12.670  12.027  0.0610 -0.0884  0.3363
  129loPI    C3 2051   3.523  12.965  12.249 -0.1067  0.1517  0.1392
  129loPI   PO4 2052   3.365  13.066  11.670  0.2093 -0.0243  0.0417
  129loPI   GL1 2053   3.319  13.090  11.250  0.0554  0.4167  0.1897
  129loPI   GL2 2054   2.992  13.111  10.951  0.0019 -0.1358  0.0324
  129loPI   C1A 2055   3.446  12.841  10.793  0.0421 -0.1546 -0.3588
  129loPI   C2A 2056   3.533  12.843  10.311  0.2465  0.3006 -0.1452
  129loPI   C3A 2057   3.469  12.863   9.835 -0.0124 -0.3136 -0.3479
  129loPI   C4A 2058   3.550  12.798   9.410  0.0520  0.0512  0.1364
  129loPI   C5A 2059   3.577  12.856   8.990  0.0827 -0.1083 -0.3117
  129loPI   C6A 2060   3.416  13.179   8.821 -0.3179 -0.1694  0.4081
  129loPI   C1B 2061   2.935  13.091  10.488 -0.0375  0.0389 -0.1534
  129loPI   C2B 2062   3.073  13.077  10.039  0.4128  0.1112  0.1914
  129loPI   C3B 2063   3.097  13.157   9.711  0.2794  0.1123  0.0459
  129loPI   C4B 2064   3.100  13.009   9.269  0.2685  0.2378 -0.0611
  130loPI    C1 2065   0.753   6.724  11.119 -0.4540  0.1753  0.1237
  130loPI    C2 2066   0.496   6.533  11.359 -0.2204 -0.0476  0.2010
  130loPI    C3 2067   0.890   6.482  11.406 -0.1679  0.0095 -0.1460
  130loPI   PO4 2068   0.612   6.687  10.850 -0.4381 -0.0018  0.0183
  130loPI   GL1 2069   0.250   6.748  10.624 -0.0165  0.1307  0.3540
  130loPI   GL2 2070  -0.041   6.783  10.672 -0.2202 -0.0634  0.0293
  130loPI   C1A 2071   0.316   6.759  10.111 -0.0713  0.0772 -0.2810
  130loPI   C2A 2072   0.433   6.700   9.732  0.4571  0.1322 -0.3716
  130loPI   C3A 2073   0.465   6.753   9.275 -0.3641  0.0602 -0.2748
  130loPI   C4A 2074   0.638   6.621   9.014 -0.2245  0.1234  0.3492
  130loPI   C5A 2075   0.651   6.479   8.532 -0.0681 -0.2227  0.1465
  130loPI   C6A 2076   0.549   6.671   8.103  0.1437  0.1127  0.0477
  130loPI   C1B 2077  -0.095   6.587  10.277  0.2948 -0.1316 -0.2075
  130loPI   C2B 2078  -0.008   6.476   9.821 -0.0623 -0.0012 -0.4041
  130loPI   C3B 2079  -0.021   6.582   9.412 -0.2428 -0.1488  0.2207
  130loPI   C4B 2080   0.080   6.555   8.970  0.0410  0.1845 -0.0371
  131loPI    C1 2081  13.387   4.652  11.042 -0.0893  0.1492 -0.0520
  131loPI    C2 2082  13.114   4.414  11.212 -0.0025  0.2299  0.2042
  131loPI    C3 2083  13.353   4.640  11.440  0.2565  0.1864 -0.0182
  131loPI   PO4 2084  13.203   4.733  10.860 -0.0228 -0.0621  0.6340
  131loPI   GL1 2085  12.960   4.641  10.455 -0.1395 -0.0621 -0.0138
  131loPI   GL2 2086  13.284   4.805  10.387  0.0334 -0.2108  0.1121
  131loPI   C1A 2087  13.091   4.424  10.123 -0.0197 -0.3960  0.0702
  131loPI   C2A 2088  13.186   4.399   9.694 -0.0257 -0.3968  0.1767
  131loPI   C3A 2089  13.334   4.371   9.345  0.2360  0.1125 -0.2144
  131loPI   C4A 2090  13.388   4.389   8.951 -0.3350  0.1975  0.0728
  131loPI   C5A 2091  13.454   4.578   8.519 -0.4105  0.3386 -0.1171
  131loPI   C6A 2092  13.434   4.618   8.059 -0.0809  0.4561 -0.1196
  131loPI   C1B 2093  13.312   4.888   9.951 -0.2384  0.0274 -0.0049
  131loPI   C2B 2094  13.384   4.836   9.518  0.2743  0.0939 -0.1522
  131loPI   C3B 2095  13.363   4.884   9.152 -0.2889 -0.0794 -0.2804
  131loPI   C4B 2096  13.375   5.061   8.730 -0.0822  0.1702  0.1693
  132loPI    C1 2097  12.679  14.693  11.794 -0.3584 -0.1389 -0.1224
  132loPI    C2 2098  12.326  14.861  11.879 -0.1716  0.1004  0.2026
  132loPI    C3 2099  12.652  15.089  11.836 -0.0753 -0.1072 -0.2201
  132loPI   PO4 2100  12.728  14.509  11.590 -0.0022 -0.1697 -0.1069
  132loPI   GL1 2101  12.819  14.534  11.231  0.1598  0.4134  0.2032
  132loPI   GL2 2102  12.551  14.536  11.005 -0.0603 -0.1065  0.1256
  132loPI   C1A 2103  12.959  14.559  10.768  0.2537 -0.2294  0.1779
  132loPI   C2A 2104  12.904  14.570  10.318 -0.1603 -0.0172  0.0058
  132loPI   C3A 2105  12.883  14.635   9.881 -0.0097  0.2503 -0.1524
  132loPI   C4A 2106  12.958  14.599   9.580 -0.1337 -0.1043  0.4520
  132loPI   C5A 2107  12.962  14.560   9.128  0.4257  0.1726 -0.0028
  132loPI   C6A 2108  12.979  14.751   8.787  0.2205 -0.1441 -0.2184
  132loPI   C1B 2109  12.507  14.322  10.669  0.0146  0.0234 -0.0284
  132loPI   C2B 2110  12.469  14.335  10.225 -0.0041  0.4047  0.0250
  132loPI   C3B 2111  12.471  14.294   9.803  0.1585 -0.3873 -0.2469
  132loPI   C4B 2112  12.498  14.271   9.362 -0.0274 -0.3034  0.1349
  133loPI    C1 2113  11.071   1.206  11.486 -0.0090 -0.0207  0.1660
  133loPI    C2 2114  11.378   1.346  11.700  0.1576 -0.0270 -0.0654
  133loPI    C3 2115  11.267   0.963  11.736  0.1794 -0.0259  0.0157
  133loPI   PO4 2116  11.116   1.238  11.252  0.1316 -0.1489  0.0896
  133loPI   GL1 2117  11.190   1.151  10.853 -0.3452 -0.0740  0.0617
  133loPI   GL2 2118  11.528   1.401  10.746 -0.0645 -0.1439  0.1079
  133loPI   C1A 2119  11.129   0.981  10.467  0.1168  0.0952 -0.2508
  133loPI   C2A 2120  11.162   0.949  10.052  0.1594  0.0601  0.0697
  133loPI   C3A 2121  11.166   0.887   9.649 -0.0102  0.1082  0.0542
  133loPI   C4A 2122  11.120   0.808   9.260  0.0089  0.5499  0.1447
  133loPI   C5A 2123  11.106   0.921   8.858 -0.1800 -0.1045  0.0716
  133loPI   C6A 2124  10.864   0.966   8.483  0.1125 -0.3617 -0.1717
  133loPI   C1B 2125  11.602   1.236  10.287  0.1186 -0.1007  0.0384
  133loPI   C2B 2126  11.541   1.206   9.936 -0.0473 -0.0943 -0.1877
  133loPI   C3B 2127  11.670   1.137   9.549  0.0757 -0.1105  0.1589
  133loPI   C4B 2128  11.557   1.120   9.060  0.2307 -0.0504  0.4725
  134loPI    C1 2129   6.583   9.930  11.492 -0.1029 -0.0976  0.0101
  134loPI    C2 2130   6.254  10.130  11.600  0.1933  0.2796  0.2386
  134loPI    C3 2131   6.459   9.922  11.873  0.1407  0.0357  0.0947
  134loPI   PO4 2132   6.540   9.891  11.255 -0.2036 -0.1575  0.1581
  134loPI   GL1 2133   6.539   9.853  10.788 -0.0116  0.0864 -0.2184
  134loPI   GL2 2134   6.279   9.562  10.698  0.2087 -0.4693  0.2585
  134loPI   C1A 2135   6.671   9.897  10.416 -0.2287 -0.1390 -0.2350
  134loPI   C2A 2136   6.610   9.872  10.039 -0.2550 -0.1066  0.4443
  134loPI   C3A 2137   6.641   9.970   9.604  0.0871 -0.2358  0.3409
  134loPI   C4A 2138   6.570  10.044   9.203  0.0297  0.0089 -0.2707
  134loPI   C5A 2139   6.529  10.062   8.762 -0.3698  0.0688 -0.1058
  134loPI   C6A 2140   6.676  10.027   8.355 -0.2834  0.1992  0.2198
  134loPI   C1B 2141   6.175   9.597  10.236  0.1408  0.0482  0.1135
  134loPI   C2B 2142   6.229   9.650   9.866  0.1415  0.1183 -0.0488
  134loPI   C3B 2143   6.203   9.798   9.420 -0.3370  0.2097  0.1748
  134loPI   C4B 2144   6.134   9.740   8.957 -0.0835 -0.0028  0.4477
  135loPI    C1 2145   7.154   7.472  11.061  0.1098 -0.3838  0.0445
  135loPI    C2 2146   7.256   7.599  11.426  0.0144 -0.0398 -0.0445
  135loPI    C3 2147   6.873   7.605  11.312  0.0765  0.1318 -0.2506
  135loPI   PO4 2148   7.253   7.717  10.913  0.2425 -0.0631 -0.1264
  135loPI   GL1 2149   7.381   7.882  10.388 -0.0304 -0.0035  0.3280
  135loPI   GL2 2150   7.044   8.007  10.528 -0.1867 -0.0107  0.1073
  135loPI   C1A 2151   7.428   7.867   9.890  0.1060  0.1843 -0.4013
  135loPI   C2A 2152   7.323   7.824   9.416  0.1001 -0.3186 -0.1913
  135loPI   C3A 2153   7.175   7.580   9.027 -0.0625  0.0987  0.0558
  135loPI   C4A 2154   7.340   7.388   8.557  0.2625 -0.1159 -0.0109
  135loPI   C5A 2155   7.788   7.365   8.528  0.4335  0.3879  0.3178
  135loPI   C6A 2156   8.007   7.675   8.335 -0.1587 -0.1676  0.0551
  135loPI   C1B 2157   6.970   8.142  10.096  0.1183  0.0573 -0.3947
  135loPI   C2B 2158   7.028   8.177   9.686 -0.1332  0.1068  0.0142
  135loPI   C3B 2159   7.105   8.203   9.173 -0.0087  0.0290  0.0609
  135loPI   C4B 2160   7.323   8.062   8.888 -0.2194 -0.2173 -0.0186
  136loPI    C1 2161  12.518  12.010  11.714  0.1241  0.3953  0.1035
  136loPI    C2 2162  12.529  11.641  11.867 -0.2411  0.1695 -0.3888
  136loPI    C3 2163  12.423  11.950  12.098  0.1789 -0.0069  0.0584
  136loPI   PO4 2164  12.625  11.978  11.522 -0.0792 -0.1291 -0.0977
  136loPI   GL1 2165  12.569  12.118  11.115 -0.0943 -0.1049  0.3478
  136loPI   GL2 2166  12.621  12.372  11.011 -0.4041 -0.2654  0.1176
  136loPI   C1A 2167  12.511  12.109  10.609 -0.1775 -0.1538 -0.0865
  136loPI   C2A 2168  12.444  12.182  10.243  0.2216  0.0420  0.0717
  136loPI   C3A 2169  12.442  12.238   9.829  0.1443  0.1168 -0.1331
  136loPI   C4A 2170  12.487  12.301   9.319 -0.0377  0.0167  0.2034
  136loPI   C5A 2171  12.414  12.571   8.900 -0.1648  0.1278 -0.2217
  136loPI   C6A 2172  12.312  12.688   8.525 -0.1543  0.1314  0.2346
  136loPI   C1B 2173  12.469  12.623  10.663  0.1132 -0.0807  0.4905
  136loPI   C2B 2174  12.360  12.777  10.293 -0.0797 -0.4484  0.2037
  136loPI   C3B 2175  12.415  12.874   9.830  0.1496  0.1363  0.0971
  136loPI   C4B 2176  12.485  12.862   9.360 -0.0211  0.0305 -0.0679
  137loPI    C1 2177   5.846  12.715  11.893 -0.3765 -0.1220  0.0175
  137loPI    C2 2178   5.590  12.994  12.020 -0.0929  0.1927 -0.0861
  137loPI    C3 2179   5.938  12.942  12.209 -0.1445 -0.0975 -0.0658
  137loPI   PO4 2180   5.790  12.905  11.518  0.0724 -0.1205 -0.1713
  137loPI   GL1 2181   5.954  13.074  11.146  0.0469  0.3381  0.2340
  137loPI   GL2 2182   5.608  13.176  10.963 -0.0901  0.2210  0.5116
  137loPI   C1A 2183   6.077  12.942  10.661  0.1334 -0.0776  0.1072
  137loPI   C2A 2184   6.114  12.883  10.207  0.0355  0.0267 -0.3820
  137loPI   C3A 2185   6.229  12.834   9.837 -0.0288  0.0732  0.1202
  137loPI   C4A 2186   6.160  12.899   9.503  0.2794  0.2590  0.0378
  137loPI   C5A 2187   6.277  12.856   9.014 -0.5146  0.0601 -0.1188
  137loPI   C6A 2188   6.012  13.115   8.734 -0.0372 -0.2279  0.2827
  137loPI   C1B 2189   5.657  13.194  10.476  0.1806 -0.2865 -0.0466
  137loPI   C2B 2190   5.679  13.205  10.048 -0.1004 -0.0666  0.1020
  137loPI   C3B 2191   5.704  13.029   9.586 -0.0189 -0.0043 -0.1054
  137loPI   C4B 2192   5.822  13.069   9.165  0.0442  0.2508  0.0128
  138loPI    C1 2193   2.658  17.130  11.575  0.0727  0.1569 -0.0764
  138loPI    C2 2194   3.050  17.052  11.571  0.0136 -0.1737  0.1313
  138loPI    C3 2195   2.896  17.287  11.855  0.0546 -0.0703  0.0689
  138loPI   PO4 2196   2.641  17.127  11.273  0.0915 -0.0973 -0.0199
  138loPI   GL1 2197   2.538  17.192  10.921 -0.1983  0.0094  0.1852
  138loPI   GL2 2198   2.340  17.406  10.816 -0.2331 -0.4664  0.0313
  138loPI   C1A 2199   2.670  17.179  10.524  0.2654 -0.0307 -0.1218
  138loPI   C2A 2200   2.604  16.978  10.262  0.0926  0.0910 -0.4582
  138loPI   C3A 2201   2.662  17.024   9.825 -0.0462 -0.1286  0.2856
  138loPI   C4A 2202   2.612  17.044   9.351  0.3111  0.1092  0.3546
  138loPI   C5A 2203   2.647  16.978   8.951  0.1325  0.1859 -0.3795
  138loPI   C6A 2204   2.802  17.148   8.574  0.2420  0.0886 -0.2187
  138loPI   C1B 2205   2.201  17.315  10.361 -0.0289 -0.3824  0.0359
  138loPI   C2B 2206   2.208  17.278   9.937  0.0563 -0.1556  0.0150
  138loPI   C3B 2207   2.158  17.143   9.539 -0.1814 -0.3064  0.2624
  138loPI   C4B 2208   2.179  17.132   9.083  0.0137  0.0328 -0.1654
  139loPI    C1 2209  16.273   0.518  11.358 -0.2270 -0.0754  0.1001
  139loPI    C2 2210  16.238   0.907  11.271  0.0914 -0.0395  0.1206
  139loPI    C3 2211  16.143   0.774  11.636  0.0863  0.0371  0.1473
  139loPI   PO4 2212  16.317   0.420  11.102  0.1062 -0.3226 -0.0967
  139loPI   GL1 2213  16.314   0.692  10.802 -0.2538 -0.0306  0.1961
  139loPI   GL2 2214  15.992   0.770  10.626 -0.2233 -0.0359  0.2031
  139loPI   C1A 2215  16.583   0.412  10.433  0.2650  0.0537 -0.0268
  139loPI   C2A 2216  16.615   0.429  10.004 -0.0905  0.0895 -0.0807
  139loPI   C3A 2217  16.534   0.472   9.538 -0.1825 -0.0648  0.1944
  139loPI   C4A 2218  16.629   0.498   9.134 -0.2256 -0.0401 -0.2502
  139loPI   C5A 2219  16.529   0.622   8.750 -0.1500 -0.1479 -0.0954
  139loPI   C6A 2220  16.164   0.664   8.333  0.0024  0.0460 -0.0157
  139loPI   C1B 2221  16.186   0.635  10.226  0.0723 -0.1060  0.0255
  139loPI   C2B 2222  16.061   0.675   9.793  0.1882 -0.1474 -0.1881
  139loPI   C3B 2223  16.112   0.695   9.292  0.0026  0.3287  0.3980
  139loPI   C4B 2224  16.033   0.696   8.833 -0.0910  0.1070 -0.3163
  140loPI    C1 2225  11.516  13.513  11.526  0.2391 -0.0537  0.2289
  140loPI    C2 2226  11.517  13.895  11.647  0.0220  0.1348 -0.3333
  140loPI    C3 2227  11.202  13.660  11.726  0.1609  0.0617  0.0237
  140loPI   PO4 2228  11.476  13.534  11.276 -0.0465  0.3110  0.3397
  140loPI   GL1 2229  11.667  13.552  10.891  0.2434 -0.2532  0.1582
  140loPI   GL2 2230  11.356  13.420  10.707 -0.3910  0.2066  0.0362
  140loPI   C1A 2231  11.934  13.551  10.604 -0.1045  0.0617  0.2841
  140loPI   C2A 2232  11.957  13.621  10.164 -0.2990  0.0172 -0.0407
  140loPI   C3A 2233  12.033  13.623   9.794  0.1040  0.0468  0.1163
  140loPI   C4A 2234  12.021  13.549   9.376 -0.0278  0.0926 -0.1042
  140loPI   C5A 2235  12.147  13.561   8.972  0.2555 -0.0304 -0.2596
  140loPI   C6A 2236  11.940  13.460   8.602  0.2245 -0.0215  0.1245
  140loPI   C1B 2237  11.483  13.354  10.334  0.3378  0.4499  0.1650
  140loPI   C2B 2238  11.573  13.347   9.939 -0.0610  0.0337  0.0689
  140loPI   C3B 2239  11.584  13.306   9.499 -0.0600  0.1037 -0.0313
  140loPI   C4B 2240  11.667  13.288   9.066  0.0896  0.0292 -0.1682
  141loPI    C1 2241   9.069  16.783  11.265  0.1168  0.2655 -0.2912
  141loPI    C2 2242   9.178  16.691  11.639 -0.0948  0.5032 -0.1683
  141loPI    C3 2243   9.321  16.479  11.332  0.0069  0.2455  0.0529
  141loPI   PO4 2244   8.821  16.807  11.270  0.0265  0.0340 -0.1690
  141loPI   GL1 2245   8.562  16.579  10.998  0.1111  0.1385 -0.0103
  141loPI   GL2 2246   8.872  16.419  10.816 -0.1768  0.1242  0.2281
  141loPI   C1A 2247   8.412  16.314  10.572 -0.0526  0.2147  0.1629
  141loPI   C2A 2248   8.389  16.235  10.182 -0.0760 -0.0242 -0.2044
  141loPI   C3A 2249   8.439  16.232   9.818  0.0251  0.4431  0.0919
  141loPI   C4A 2250   8.423  16.089   9.302  0.2598  0.0074  0.1785
  141loPI   C5A 2251   8.405  15.929   8.889 -0.1471 -0.0684  0.1276
  141loPI   C6A 2252   8.624  15.646   8.754  0.0416 -0.0952 -0.1700
  141loPI   C1B 2253   8.862  16.484  10.341 -0.0552  0.2305  0.3700
  141loPI   C2B 2254   8.801  16.593   9.931 -0.2023 -0.2118  0.2843
  141loPI   C3B 2255   8.826  16.478   9.498 -0.1049 -0.0882 -0.2748
  141loPI   C4B 2256   8.803  16.442   9.062  0.1845 -0.2144  0.1158
  142loPI    C1 2257  14.488  11.200  11.488  0.0436 -0.0941 -0.0831
  142loPI    C2 2258  14.251  11.479  11.649 -0.1860 -0.2201 -0.1987
  142loPI    C3 2259  14.425  11.206  11.883 -0.1951 -0.1577 -0.1187
  142loPI   PO4 2260  14.582  11.214  11.175  0.2007 -0.0657  0.2296
  142loPI   GL1 2261  14.550  11.221  10.670 -0.2170 -0.1329  0.1071
  142loPI   GL2 2262  14.245  11.264  10.634  0.1504  0.1358  0.4560
  142loPI   C1A 2263  14.673  11.378  10.263  0.0029 -0.0917  0.2080
  142loPI   C2A 2264  14.700  11.285   9.872  0.5383 -0.0545  0.1459
  142loPI   C3A 2265  14.694  11.391   9.265 -0.1605  0.0151 -0.0638
  142loPI   C4A 2266  14.602  11.475   8.765 -0.2110 -0.0532  0.0934
  142loPI   C5A 2267  14.218  11.505   8.636  0.1347 -0.0937  0.2082
  142loPI   C6A 2268  13.945  11.840   8.522 -0.0274 -0.1515  0.1067
  142loPI   C1B 2269  14.286  11.070  10.244 -0.2048 -0.0320 -0.0264
  142loPI   C2B 2270  14.249  11.179   9.816  0.1293 -0.1883  0.0594
  142loPI   C3B 2271  14.160  11.110   9.310 -0.0524 -0.1680 -0.0861
  142loPI   C4B 2272  14.225  11.116   8.875  0.1662  0.2728  0.3796
  143loPI    C1 2273   6.551  14.581  11.701 -0.0172  0.0129 -0.1344
  143loPI    C2 2274   6.161  14.547  11.786  0.0159 -0.2408 -0.0761
  143loPI    C3 2275   6.423  14.626  12.078 -0.0162  0.1674 -0.1517
  143loPI   PO4 2276   6.680  14.741  11.463 -0.0784 -0.0591  0.0762
  143loPI   GL1 2277   6.795  15.116  11.141 -0.1533 -0.0344  0.1172
  143loPI   GL2 2278   6.993  15.282  11.038  0.1139 -0.3086  0.0301
  143loPI   C1A 2279   6.598  15.269  10.777 -0.0474 -0.2512 -0.0299
  143loPI   C2A 2280   6.514  15.102  10.435  0.1725 -0.2414 -0.2681
  143loPI   C3A 2281   6.533  15.288  10.121  0.0688  0.0352 -0.1387
  143loPI   C4A 2282   6.599  15.266   9.695  0.1052  0.0774  0.3874
  143loPI   C5A 2283   6.501  15.102   9.192 -0.2173 -0.1020  0.3431
  143loPI   C6A 2284   6.424  15.185   8.708 -0.2255 -0.1193 -0.3838
  143loPI   C1B 2285   7.052  15.474  10.653  0.0588  0.2027 -0.1681
  143loPI   C2B 2286   7.064  15.572  10.230 -0.1619  0.1085 -0.1812
  143loPI   C3B 2287   7.042  15.479   9.730  0.1990 -0.1491  0.2023
  143loPI   C4B 2288   6.966  15.464   9.328  0.1050  0.4208 -0.0316
  144loPI    C1 2289   9.142   5.623  11.206  0.1187 -0.0101 -0.2342
  144loPI    C2 2290   8.923   5.400  10.956 -0.0673  0.0970 -0.1693
  144loPI    C3 2291   8.988   5.275  11.330  0.0291  0.0397 -0.2048
  144loPI   PO4 2292   9.424   5.649  11.023 -0.1071  0.2514 -0.3548
  144loPI   GL1 2293   9.585   5.666  10.593 -0.1092 -0.2792 -0.2262
  144loPI   GL2 2294   9.306   5.860  10.323  0.1213 -0.1342 -0.0106
  144loPI   C1A 2295   9.685   5.542  10.165  0.0711 -0.3800 -0.0168
  144loPI   C2A 2296   9.905   5.397   9.748 -0.1470  0.2028  0.0614
  144loPI   C3A 2297  10.040   5.533   9.256 -0.2049  0.1806  0.0388
  144loPI   C4A 2298  10.345   5.388   8.923 -0.3457  0.2973 -0.3011
  144loPI   C5A 2299  10.343   5.587   8.521 -0.1775  0.0118 -0.1201
  144loPI   C6A 2300  10.664   5.868   8.358 -0.0134 -0.2275  0.3796
  144loPI   C1B 2301   9.277   5.751   9.947 -0.2131  0.1780  0.1139
  144loPI   C2B 2302   9.088   5.555   9.611 -0.0204 -0.2849  0.1482
  144loPI   C3B 2303   8.922   5.593   9.127 -0.1194 -0.0801  0.1743
  144loPI   C4B 2304   9.315   5.611   8.789 -0.2048  0.0191  0.2068
  145loPI    C1 2305   5.471   7.283  11.096  0.0817 -0.0576 -0.1254
  145loPI    C2 2306   5.126   7.471  11.020  0.0775 -0.0789 -0.1596
  145loPI    C3 2307   5.308   7.523  11.372  0.0319 -0.0791 -0.1359
  145loPI   PO4 2308   5.526   7.237  10.904  0.0563  0.0620  0.3477
  145loPI   GL1 2309   5.411   7.319  10.570  0.0912  0.1537  0.1552
  145loPI   GL2 2310   5.301   7.579  10.531 -0.0090 -0.1632 -0.0294
  145loPI   C1A 2311   5.339   7.245  10.104 -0.2938 -0.1142  0.4364
  145loPI   C2A 2312   5.281   7.241   9.632  0.3051 -0.2323 -0.1180
  145loPI   C3A 2313   5.270   7.188   9.207 -0.2589 -0.1245  0.2825
  145loPI   C4A 2314   5.355   7.130   8.795 -0.2152 -0.2036 -0.1057
  145loPI   C5A 2315   5.671   7.035   8.426 -0.0601  0.0627  0.1461
  145loPI   C6A 2316   6.133   7.253   8.390  0.0620 -0.1459 -0.1970
  145loPI   C1B 2317   5.217   7.734  10.155 -0.0166  0.4330 -0.0388
  145loPI   C2B 2318   5.310   7.718   9.691 -0.3885  0.0771 -0.2136
  145loPI   C3B 2319   5.274   7.694   9.315 -0.0388 -0.1739 -0.0299
  145loPI   C4B 2320   5.328   7.675   8.889  0.0621 -0.1160  0.1371
  146loPI    C1 2321   2.284   4.883  11.130 -0.0931  0.0503 -0.1672
  146loPI    C2 2322   2.179   4.737  11.488 -0.2223 -0.0721 -0.2542
  146loPI    C3 2323   2.215   5.132  11.436  0.0493 -0.0660 -0.0391
  146loPI   PO4 2324   2.182   4.576  10.933  0.2039  0.1129  0.0518
  146loPI   GL1 2325   2.066   4.686  10.586  0.1680 -0.2244 -0.1893
  146loPI   GL2 2326   2.117   4.316  10.512  0.1952 -0.2053 -0.0770
  146loPI   C1A 2327   2.150   4.775  10.225 -0.1225 -0.1373 -0.0616
  146loPI   C2A 2328   2.370   4.613   9.842  0.0993 -0.2313 -0.0384
  146loPI   C3A 2329   2.343   4.492   9.347  0.0066  0.0856 -0.0311
  146loPI   C4A 2330   2.411   4.594   8.912 -0.2189 -0.4384  0.2553
  146loPI   C5A 2331   2.758   4.645   8.627  0.1686 -0.1299 -0.0752
  146loPI   C6A 2332   2.910   4.865   8.385 -0.3292  0.1848 -0.0676
  146loPI   C1B 2333   2.192   4.209  10.115 -0.3459 -0.2236 -0.0081
  146loPI   C2B 2334   2.293   4.088   9.713 -0.1108 -0.1023 -0.0610
  146loPI   C3B 2335   2.405   4.032   9.297 -0.1684 -0.0006 -0.2118
  146loPI   C4B 2336   2.802   3.741   9.036  0.0704 -0.0423 -0.1189
  147loPI    C1 2337  17.775   6.575  11.272  0.1348 -0.1463 -0.0682
  147loPI    C2 2338  17.562   6.257  11.387  0.0035 -0.1156 -0.2222
  147loPI    C3 2339  17.962   6.250  11.411 -0.0092 -0.2067 -0.0143
  147loPI   PO4 2340  17.614   6.659  11.044 -0.0752  0.0057  0.0862
  147loPI   GL1 2341  17.428   6.544  10.629 -0.0348  0.0895 -0.0248
  147loPI   GL2 2342  17.384   6.884  10.599  0.3226 -0.0213  0.0532
  147loPI   C1A 2343  17.345   6.292  10.237  0.2364  0.3884 -0.0117
  147loPI   C2A 2344  17.460   6.250   9.949  0.0459 -0.3223 -0.1005
  147loPI   C3A 2345  17.420   6.253   9.504 -0.0033 -0.0013  0.2499
  147loPI   C4A 2346  17.492   6.299   9.101  0.0310  0.1146 -0.1070
  147loPI   C5A 2347  17.514   6.397   8.752  0.0191 -0.1138 -0.2323
  147loPI   C6A 2348  17.573   6.732   8.603  0.1700  0.0546 -0.0351
  147loPI   C1B 2349  17.277   6.771  10.196  0.0663  0.0517 -0.1023
  147loPI   C2B 2350  17.134   6.807   9.775  0.1218  0.0651 -0.0852
  147loPI   C3B 2351  17.369   6.764   9.422 -0.1160 -0.0324 -0.3185
  147loPI   C4B 2352  17.510   6.751   9.086 -0.1715 -0.2706 -0.0286
  148loPI    C1 2353  16.543   3.946  11.086  0.1324  0.2027  0.2200
  148loPI    C2 2354  16.237   3.910  11.342  0.0083 -0.4620 -0.0025
  148loPI    C3 2355  16.587   4.057  11.468 -0.3299  0.1170  0.3042
  148loPI   PO4 2356  16.594   3.577  11.023 -0.3754 -0.0397  0.0396
  148loPI   GL1 2357  16.760   3.459  10.684  0.0150  0.2369  0.0694
  148loPI   GL2 2358  16.998   3.677  10.477 -0.0051 -0.0425 -0.0595
  148loPI   C1A 2359  16.605   3.581  10.220  0.0411  0.2323  0.1727
  148loPI   C2A 2360  16.532   3.598   9.806 -0.0128  0.0951  0.0133
  148loPI   C3A 2361  16.519   3.687   9.296 -0.0215 -0.0994  0.0790
  148loPI   C4A 2362  16.425   3.583   8.858 -0.0319  0.0662 -0.0224
  148loPI   C5A 2363  16.541   3.257   8.618  0.2130 -0.0420 -0.1155
  148loPI   C6A 2364  16.730   2.777   8.686 -0.1162 -0.0169  0.1107
  148loPI   C1B 2365  17.043   3.819  10.046  0.3816 -0.1565 -0.1793
  148loPI   C2B 2366  16.967   3.824   9.526  0.0474  0.0250 -0.2221
  148loPI   C3B 2367  17.093   4.019   9.174 -0.0668 -0.4434 -0.1176
  148loPI   C4B 2368  17.121   3.953   8.763  0.2948  0.2816 -0.3651
  149loPI    C1 2369  12.363   4.160  10.973 -0.0653 -0.0428  0.0366
  149loPI    C2 2370  12.640   4.224  11.256  0.0407 -0.4005  0.0187
  149loPI    C3 2371  12.252   4.272  11.341  0.0947 -0.0901  0.1007
  149loPI   PO4 2372  12.435   4.237  10.745 -0.0725  0.0510  0.2561
  149loPI   GL1 2373  12.644   4.281  10.374  0.3873  0.1499  0.0918
  149loPI   GL2 2374  12.429   3.957  10.361 -0.1818  0.0534 -0.1808
  149loPI   C1A 2375  12.728   4.171   9.878 -0.0837  0.1385 -0.2561
  149loPI   C2A 2376  12.847   4.080   9.424  0.0121 -0.1846  0.1875
  149loPI   C3A 2377  12.954   4.064   8.967  0.0023 -0.3476 -0.0336
  149loPI   C4A 2378  13.120   4.221   8.636  0.2686  0.0705 -0.0984
  149loPI   C5A 2379  13.068   4.313   8.297 -0.0478  0.1156  0.2217
  149loPI   C6A 2380  12.845   4.363   8.000 -0.1224  0.3953  0.3968
  149loPI   C1B 2381  12.364   3.796  10.036 -0.1528  0.2853 -0.0079
  149loPI   C2B 2382  12.414   3.839   9.561 -0.1111 -0.0186 -0.0623
  149loPI   C3B 2383  12.443   3.623   9.179  0.0815  0.1231  0.2299
  149loPI   C4B 2384  12.412   3.225   8.887  0.2341 -0.0817 -0.1949
  150loPI    C1 2385  13.377   7.596  11.232  0.1801  0.2243 -0.0021
  150loPI    C2 2386  13.467   7.690  11.610  0.0530 -0.0264  0.0928
  150loPI    C3 2387  13.086   7.633  11.504  0.0737  0.2011 -0.1123
  150loPI   PO4 2388  13.527   7.390  11.185  0.0079  0.3020  0.0719
  150loPI   GL1 2389  13.678   7.382  10.731 -0.0948  0.0865 -0.0333
  150loPI   GL2 2390  13.938   7.238  10.523 -0.1060 -0.2160  0.1735
  150loPI   C1A 2391  13.412   7.381  10.353 -0.0133 -0.3336  0.0666
  150loPI   C2A 2392  13.373   7.319   9.980  0.1283 -0.0297  0.1221
  150loPI   C3A 2393  13.425   7.456   9.594 -0.3019 -0.1899  0.0149
  150loPI   C4A 2394  13.479   7.517   9.125 -0.1246  0.5287  0.1316
  150loPI   C5A 2395  13.567   7.561   8.684 -0.2128  0.0493 -0.0012
  150loPI   C6A 2396  13.302   7.764   8.407 -0.5367 -0.0498 -0.0178
  150loPI   C1B 2397  13.767   7.102  10.194 -0.0544  0.0547 -0.2488
  150loPI   C2B 2398  13.842   7.148   9.809 -0.0045 -0.2064  0.0633
  150loPI   C3B 2399  13.851   7.231   9.352  0.1294  0.1960  0.0358
  150loPI   C4B 2400  13.933   7.260   8.875  0.0451 -0.0355 -0.2128
  151loPI    C1 2401   9.914  17.775  11.185  0.1243 -0.0540  0.0922
  151loPI    C2 2402   9.727  17.479  11.378  0.2286 -0.1383  0.0646
  151loPI    C3 2403   9.849  17.802  11.579 -0.2817  0.0910  0.0199
  151loPI   PO4 2404  10.119  17.656  11.046 -0.2861 -0.2547  0.0274
  151loPI   GL1 2405  10.128  17.604  10.647 -0.2168 -0.3888 -0.0007
  151loPI   GL2 2406  10.189  17.301  10.642 -0.2408  0.0554 -0.1525
  151loPI   C1A 2407  10.219  17.780  10.187  0.2440 -0.1723 -0.0401
  151loPI   C2A 2408  10.203  17.763   9.749  0.3397 -0.3732 -0.0514
  151loPI   C3A 2409  10.215  17.738   9.313 -0.1538 -0.2119 -0.0795
  151loPI   C4A 2410  10.137  17.712   8.861 -0.0402  0.0498  0.1020
  151loPI   C5A 2411  10.066  17.941   8.470 -0.0612 -0.2624  0.1532
  151loPI   C6A 2412  10.096  18.171   8.044  0.2532  0.1939 -0.0839
  151loPI   C1B 2413  10.230  17.189  10.250 -0.1588  0.1830 -0.1890
  151loPI   C2B 2414  10.220  17.231   9.740  0.1816  0.0219 -0.1299
  151loPI   C3B 2415  10.208  17.149   9.318  0.1213  0.0484  0.2651
  151loPI   C4B 2416  10.198  17.188   8.927  0.0547  0.0756  0.4097
  152loPI    C1 2417  16.494  14.952  11.368  0.0432 -0.2960  0.1560
  152loPI    C2 2418  16.521  15.181  11.695 -0.1464 -0.1543  0.0743
  152loPI    C3 2419  16.185  14.976  11.621 -0.1190 -0.1542 -0.0524
  152loPI   PO4 2420  16.652  15.044  11.211  0.1782  0.1556 -0.3227
  152loPI   GL1 2421  16.757  14.921  10.833 -0.0926 -0.1920 -0.3241
  152loPI   GL2 2422  16.539  14.683  10.635 -0.2299 -0.1298  0.3120
  152loPI   C1A 2423  16.885  14.936  10.369 -0.2422 -0.3041 -0.3462
  152loPI   C2A 2424  16.890  14.915   9.903  0.1509  0.0063  0.0599
  152loPI   C3A 2425  16.934  14.907   9.453  0.0729 -0.2386  0.1048
  152loPI   C4A 2426  16.963  14.845   8.978  0.0584  0.0933 -0.2580
  152loPI   C5A 2427  16.900  15.147   8.638  0.0121 -0.1416  0.2497
  152loPI   C6A 2428  17.063  15.145   8.255  0.1845  0.0932  0.4404
  152loPI   C1B 2429  16.450  14.600  10.249  0.1830 -0.0220  0.2290
  152loPI   C2B 2430  16.470  14.668   9.757  0.0439  0.0277  0.1447
  152loPI   C3B 2431  16.496  14.566   9.284  0.0742  0.3133  0.2161
  152loPI   C4B 2432  16.415  14.667   8.868  0.1025 -0.0752  0.1210
  153loPI    C1 2433  14.788   3.770  11.385 -0.0719 -0.3151  0.0787
  153loPI    C2 2434  14.398   3.853  11.414 -0.0548 -0.3001  0.2888
  153loPI    C3 2435  14.535   3.495  11.528 -0.0003 -0.2886  0.2597
  153loPI   PO4 2436  14.860   3.856  11.084 -0.1731  0.2832  0.0268
  153loPI   GL1 2437  14.771   3.713  10.674  0.2150 -0.1516 -0.0260
  153loPI   GL2 2438  14.652   3.415  10.535  0.0765  0.3393  0.0197
  153loPI   C1A 2439  14.747   3.992  10.385 -0.3544 -0.1682  0.1455
  153loPI   C2A 2440  14.701   3.998   9.922  0.0641 -0.1717 -0.0975
  153loPI   C3A 2441  14.763   4.107   9.491  0.4466  0.0035 -0.0245
  153loPI   C4A 2442  14.725   4.236   9.094 -0.0596  0.0343  0.1113
  153loPI   C5A 2443  14.760   4.087   8.678 -0.1609 -0.0868 -0.2217
  153loPI   C6A 2444  15.027   3.776   8.598  0.0427  0.5139  0.0276
  153loPI   C1B 2445  14.678   3.501  10.168 -0.0734  0.2394  0.1227
  153loPI   C2B 2446  14.710   3.522   9.708  0.1949  0.2783  0.1085
  153loPI   C3B 2447  14.746   3.551   9.305  0.2209  0.2148  0.2431
  153loPI   C4B 2448  14.753   3.669   8.982 -0.1923  0.2253  0.0147
  154loPI    C1 2449  16.660  16.042  11.459 -0.0673 -0.0029  0.1773
  154loPI    C2 2450  16.916  16.346  11.502  0.0482 -0.0710 -0.0135
  154loPI    C3 2451  16.536  16.386  11.621  0.0750  0.1294  0.0093
  154loPI   PO4 2452  16.586  16.034  11.189 -0.0595  0.1088 -0.3046
  154loPI   GL1 2453  16.403  16.181  10.828 -0.2121 -0.1718 -0.1054
  154loPI   GL2 2454  16.323  15.754  10.883  0.0543 -0.0428  0.2841
  154loPI   C1A 2455  16.438  16.200  10.482 -0.2841 -0.0653 -0.2957
  154loPI   C2A 2456  16.468  16.179  10.106  0.0694  0.1335  0.0560
  154loPI   C3A 2457  16.542  16.115   9.623 -0.1424  0.2344  0.1393
  154loPI   C4A 2458  16.507  16.281   9.227 -0.3454  0.0532  0.2462
  154loPI   C5A 2459  16.414  16.287   8.836  0.6349  0.3167 -0.0129
  154loPI   C6A 2460  16.263  16.073   8.470  0.1121  0.2309  0.2318
  154loPI   C1B 2461  16.441  15.634  10.387  0.1825 -0.0041  0.1091
  154loPI   C2B 2462  16.394  15.710   9.944 -0.4028 -0.2293 -0.1637
  154loPI   C3B 2463  16.463  15.609   9.502 -0.1406  0.1747 -0.1626
  154loPI   C4B 2464  16.512  15.760   9.220 -0.3431  0.0129 -0.1795
  155loPI    C1 2465  15.622   7.064  10.978 -0.0334 -0.3784  0.0421
  155loPI    C2 2466  15.809   7.218  11.297  0.1071 -0.0695 -0.1839
  155loPI    C3 2467  15.410   7.190  11.293  0.0976  0.0301 -0.0265
  155loPI   PO4 2468  15.724   7.230  10.713  0.4270 -0.0051 -0.0008
  155loPI   GL1 2469  15.608   7.250  10.303  0.0981  0.2414 -0.2216
  155loPI   GL2 2470  15.981   7.390  10.237  0.1551  0.3376 -0.0864
  155loPI   C1A 2471  15.457   7.169   9.873  0.0261  0.0793 -0.2690
  155loPI   C2A 2472  15.562   7.298   9.374  0.0120  0.0723  0.1027
  155loPI   C3A 2473  15.720   7.328   8.946 -0.2009  0.1006 -0.0191
  155loPI   C4A 2474  15.676   7.477   8.510  0.3565  0.0989  0.1021
  155loPI   C5A 2475  15.959   7.645   8.135  0.0640 -0.1405 -0.1399
  155loPI   C6A 2476  16.124   7.359   7.822  0.0211  0.1772  0.0499
  155loPI   C1B 2477  15.967   7.453   9.815 -0.0489 -0.0953  0.1228
  155loPI   C2B 2478  15.998   7.519   9.365  0.0092 -0.0800  0.0256
  155loPI   C3B 2479  16.125   7.589   9.005  0.1131 -0.1194  0.1092
  155loPI   C4B 2480  16.115   7.668   8.579 -0.0987  0.0781  0.1418
  156loPI    C1 2481   1.539  10.004  11.377 -0.0992 -0.2323  0.0308
  156loPI    C2 2482   1.686   9.763  11.094  0.1909 -0.0627  0.0329
  156loPI    C3 2483   1.638   9.627  11.467  0.0192 -0.2203 -0.0456
  156loPI   PO4 2484   1.708  10.214  11.337 -0.1165  0.1492 -0.1081
  156loPI   GL1 2485   1.971  10.131  10.943 -0.1326 -0.0262 -0.0041
  156loPI   GL2 2486   2.235   9.922  10.839  0.0859  0.1495  0.0457
  156loPI   C1A 2487   2.060  10.522  10.687  0.1518 -0.0854  0.2171
  156loPI   C2A 2488   2.116  10.485  10.231 -0.1977  0.1502 -0.0136
  156loPI   C3A 2489   2.137  10.406   9.814  0.1572  0.0456  0.1638
  156loPI   C4A 2490   2.203  10.512   9.355 -0.1048  0.0271 -0.1072
  156loPI   C5A 2491   2.109  10.402   8.933  0.0409 -0.1646  0.1017
  156loPI   C6A 2492   1.667  10.253   8.749  0.0805 -0.1493 -0.3345
  156loPI   C1B 2493   2.125   9.948  10.371 -0.1806 -0.4589 -0.1289
  156loPI   C2B 2494   2.183   9.902   9.981  0.0723 -0.1072  0.1378
  156loPI   C3B 2495   2.127   9.937   9.598 -0.0523  0.0429  0.1002
  156loPI   C4B 2496   2.186   9.963   9.189  0.2986  0.3976  0.0484
  157loPI    C1 2497  17.101   6.719  11.083 -0.1253 -0.0653  0.1166
  157loPI    C2 2498  16.898   6.829  11.410 -0.3505 -0.3379  0.0719
  157loPI    C3 2499  17.138   6.509  11.421  0.1953  0.0608  0.1635
  157loPI   PO4 2500  16.999   7.047  10.902 -0.2174 -0.1104 -0.2123
  157loPI   GL1 2501  16.668   7.092  10.561  0.0964  0.0076 -0.0170
  157loPI   GL2 2502  16.436   7.180  10.384  0.2595  0.2095  0.0804
  157loPI   C1A 2503  16.842   7.036  10.173 -0.5968  0.3798  0.1693
  157loPI   C2A 2504  16.770   7.077   9.667 -0.2728  0.0594  0.1206
  157loPI   C3A 2505  17.006   7.059   9.200  0.0839  0.1413  0.3425
  157loPI   C4A 2506  17.044   7.123   8.793 -0.2647 -0.1931  0.0235
  157loPI   C5A 2507  17.207   7.145   8.415 -0.1047 -0.1135 -0.2624
  157loPI   C6A 2508  17.353   7.151   7.996 -0.1169 -0.0397  0.0602
  157loPI   C1B 2509  16.420   7.253  10.032 -0.1164 -0.4593  0.2468
  157loPI   C2B 2510  16.360   7.293   9.597  0.2566 -0.2980  0.0707
  157loPI   C3B 2511  16.578   7.306   9.190 -0.0422  0.2253 -0.4658
  157loPI   C4B 2512  16.575   7.407   8.761 -0.0775 -0.0927  0.1614
  158loPI    C1 2513   8.269  15.917  11.623 -0.0926  0.2415 -0.2539
  158loPI    C2 2514   7.908  15.757  11.685  0.1054 -0.1444 -0.0516
  158loPI    C3 2515   8.123  15.889  11.995  0.2095 -0.0746 -0.1529
  158loPI   PO4 2516   8.357  16.140  11.458 -0.0386  0.2759  0.2845
  158loPI   GL1 2517   8.156  16.276  11.074  0.3990  0.0048  0.0549
  158loPI   GL2 2518   8.055  16.524  10.961  0.1456  0.0827  0.3275
  158loPI   C1A 2519   7.893  16.010  10.649  0.0027 -0.2762 -0.2167
  158loPI   C2A 2520   7.926  15.982  10.291 -0.0940 -0.1304  0.2940
  158loPI   C3A 2521   7.925  16.044   9.869 -0.0691 -0.3853 -0.1007
  158loPI   C4A 2522   7.918  15.988   9.389  0.0217  0.0357  0.1150
  158loPI   C5A 2523   7.942  15.940   9.053  0.1819  0.1464  0.1673
  158loPI   C6A 2524   7.669  15.730   8.836  0.3504  0.2924  0.3802
  158loPI   C1B 2525   7.952  16.515  10.502  0.4342  0.0171  0.3043
  158loPI   C2B 2526   7.951  16.521  10.082 -0.0311 -0.3211  0.1219
  158loPI   C3B 2527   7.901  16.478   9.672 -0.3703 -0.1599 -0.2443
  158loPI   C4B 2528   7.910  16.442   9.157 -0.1617 -0.0026 -0.2931
  159loPI    C1 2529   1.163   5.997  11.332 -0.0518 -0.0110 -0.3126
  159loPI    C2 2530   1.413   5.740  11.508 -0.1271  0.1135 -0.0173
  159loPI    C3 2531   1.020   5.718  11.580 -0.1512  0.2100 -0.1167
  159loPI   PO4 2532   1.207   6.046  11.122  0.0148  0.0019 -0.3148
  159loPI   GL1 2533   1.189   5.997  10.732  0.4302 -0.5188 -0.0330
  159loPI   GL2 2534   0.886   5.808  10.663 -0.3325  0.0362  0.1930
  159loPI   C1A 2535   1.452   6.031  10.330 -0.2585  0.1508 -0.3359
  159loPI   C2A 2536   1.358   6.162  10.004 -0.0013  0.1850  0.1974
  159loPI   C3A 2537   1.338   6.316   9.658  0.1709 -0.1350  0.2044
  159loPI   C4A 2538   1.362   6.127   9.256 -0.2347  0.1816  0.1298
  159loPI   C5A 2539   1.542   6.139   8.748  0.1320  0.1707 -0.1862
  159loPI   C6A 2540   1.323   6.181   8.246  0.2481 -0.3567  0.2556
  159loPI   C1B 2541   0.983   5.971  10.303  0.0014  0.1222  0.1049
  159loPI   C2B 2542   0.912   6.037   9.805  0.0948  0.2979  0.1979
  159loPI   C3B 2543   0.870   6.024   9.370  0.2117 -0.0539 -0.0016
  159loPI   C4B 2544   0.974   5.849   9.025  0.3028 -0.2394 -0.1819
  160loPI    C1 2545  13.729  15.707  11.538  0.0282 -0.2217 -0.1618
  160loPI    C2 2546  13.999  15.517  11.763  0.1905  0.3031  0.1035
  160loPI    C3 2547  13.745  15.775  11.932 -0.2276  0.1043 -0.2036
  160loPI   PO4 2548  13.929  15.837  11.295  0.0245 -0.0707 -0.2468
  160loPI   GL1 2549  13.856  16.030  10.968 -0.1903  0.1015  0.2364
  160loPI   GL2 2550  14.097  15.875  10.703  0.0014  0.2469 -0.0643
  160loPI   C1A 2551  13.739  16.208  10.608  0.0502 -0.2433 -0.1686
  160loPI   C2A 2552  13.777  16.124  10.276  0.2075 -0.2009  0.1585
  160loPI   C3A 2553  13.765  16.162   9.869 -0.1907 -0.1919 -0.1120
  160loPI   C4A 2554  13.865  16.175   9.331 -0.1220 -0.0077  0.0555
  160loPI   C5A 2555  13.865  16.046   8.882 -0.0746 -0.2950 -0.0291
  160loPI   C6A 2556  13.859  16.067   8.367  0.2815 -0.3416 -0.2130
  160loPI   C1B 2557  14.196  15.894  10.280 -0.1952  0.1060  0.0346
  160loPI   C2B 2558  14.255  15.883   9.815  0.0664 -0.1241 -0.0135
  160loPI   C3B 2559  14.321  15.836   9.430 -0.1828  0.0996 -0.0865
  160loPI   C4B 2560  14.398  15.990   8.891  0.0463  0.1139 -0.0219
  161loPI    C1 2561   8.103  10.687  11.582  0.1613  0.1840 -0.1148
  161loPI    C2 2562   8.370  10.788  11.862  0.0290  0.1227  0.0356
  161loPI    C3 2563   7.982  10.764  11.956  0.0174 -0.1884 -0.0798
  161loPI   PO4 2564   8.211  10.468  11.376 -0.0470  0.0643  0.2415
  161loPI   GL1 2565   8.124  10.479  11.026 -0.0242  0.1853  0.0159
  161loPI   GL2 2566   7.999  10.710  10.930  0.2997 -0.0555 -0.1015
  161loPI   C1A 2567   8.426  10.374  10.701 -0.0540 -0.0434  0.4016
  161loPI   C2A 2568   8.506  10.297  10.251 -0.0171 -0.0763  0.1929
  161loPI   C3A 2569   8.469  10.435   9.876 -0.0841 -0.0402  0.1685
  161loPI   C4A 2570   8.462  10.447   9.404  0.0744 -0.0871  0.0714
  161loPI   C5A 2571   8.414  10.528   8.885  0.0251  0.0726 -0.5066
  161loPI   C6A 2572   8.788  10.728   8.583  0.2167  0.1558  0.0460
  161loPI   C1B 2573   8.009  10.670  10.479  0.0999 -0.3936  0.0614
  161loPI   C2B 2574   8.042  10.635  10.032  0.0541  0.1459  0.2252
  161loPI   C3B 2575   7.985  10.735   9.552  0.0772  0.0233 -0.0883
  161loPI   C4B 2576   7.986  10.731   9.100  0.1203 -0.0777 -0.0469
  162loPI    C1 2577   2.318   9.455  11.790 -0.4275 -0.1869  0.0474
  162loPI    C2 2578   2.538   9.420  12.122  0.1226  0.1761 -0.2619
  162loPI    C3 2579   2.209   9.647  12.123  0.1990  0.2889 -0.0038
  162loPI   PO4 2580   2.451   9.529  11.612 -0.0002 -0.1754  0.0441
  162loPI   GL1 2581   2.528   9.493  11.088 -0.1164  0.1133 -0.2052
  162loPI   GL2 2582   2.320   9.375  10.734 -0.1500  0.0383  0.5523
  162loPI   C1A 2583   2.694   9.654  10.629 -0.2179  0.0286 -0.2945
  162loPI   C2A 2584   2.585   9.728  10.230  0.1445  0.0147  0.1102
  162loPI   C3A 2585   2.610   9.637   9.877  0.1483 -0.0905  0.3355
  162loPI   C4A 2586   2.640   9.726   9.458  0.1914  0.0795 -0.1945
  162loPI   C5A 2587   2.612   9.680   9.055 -0.0488 -0.3345 -0.1089
  162loPI   C6A 2588   2.770   9.715   8.728  0.1208  0.0100  0.0569
  162loPI   C1B 2589   2.183   9.424  10.254 -0.1633  0.3172  0.0655
  162loPI   C2B 2590   2.102   9.318   9.826  0.0762 -0.1262 -0.1433
  162loPI   C3B 2591   2.204   9.414   9.347  0.1241  0.2451 -0.1257
  162loPI   C4B 2592   2.109   9.435   8.868 -0.1249  0.1051 -0.2683
  163loPI    C1 2593   7.901   6.585  11.008 -0.1143  0.1831  0.0447
  163loPI    C2 2594   7.931   6.339  11.322 -0.2764 -0.0831 -0.1447
  163loPI    C3 2595   8.251   6.544  11.197 -0.2270  0.0784  0.2338
  163loPI   PO4 2596   7.735   6.443  10.769 -0.0318 -0.4598  0.1088
  163loPI   GL1 2597   7.788   6.388  10.330 -0.2456 -0.3978  0.0403
  163loPI   GL2 2598   7.499   6.319  10.135  0.1856 -0.0222  0.1051
  163loPI   C1A 2599   8.030   6.606  10.004 -0.1173 -0.1681  0.2422
  163loPI   C2A 2600   8.269   6.952   9.943  0.2072 -0.1180  0.1130
  163loPI   C3A 2601   8.342   7.243   9.678  0.2170  0.2634 -0.1425
  163loPI   C4A 2602   8.340   7.429   9.292 -0.1250  0.2213 -0.3493
  163loPI   C5A 2603   8.638   7.331   8.982  0.0433  0.1195 -0.3796
  163loPI   C6A 2604   8.967   7.453   8.650  0.1162  0.0496  0.0725
  163loPI   C1B 2605   7.633   6.421   9.688 -0.1162 -0.0695 -0.2611
  163loPI   C2B 2606   7.462   6.165   9.333 -0.3010 -0.0428  0.2912
  163loPI   C3B 2607   7.179   5.910   9.363  0.1150  0.3657  0.0997
  163loPI   C4B 2608   7.013   5.508   9.377  0.0975 -0.0475 -0.0673
  164loPI    C1 2609   8.817   2.724  10.923  0.0350  0.2006 -0.1575
  164loPI    C2 2610   9.149   2.943  10.878  0.2609 -0.0702  0.1449
  164loPI    C3 2611   9.037   2.822  11.243  0.0587 -0.3331 -0.0007
  164loPI   PO4 2612   8.887   2.460  10.818  0.0287  0.0712  0.1755
  164loPI   GL1 2613   9.006   2.088  10.705 -0.1384  0.0007  0.2367
  164loPI   GL2 2614   9.336   2.250  10.552 -0.1416  0.2575 -0.1595
  164loPI   C1A 2615   9.019   1.839  10.358 -0.1242 -0.1266  0.0720
  164loPI   C2A 2616   8.862   1.782   9.924 -0.1159 -0.1382  0.0809
  164loPI   C3A 2617   8.789   1.673   9.533 -0.3366  0.1858 -0.2847
  164loPI   C4A 2618   8.922   1.588   9.108 -0.0145  0.1992  0.2178
  164loPI   C5A 2619   9.232   1.453   8.817 -0.1704  0.2633 -0.1166
  164loPI   C6A 2620   9.644   1.488   8.505  0.0932  0.1202 -0.0714
  164loPI   C1B 2621   9.327   2.155  10.126 -0.2780  0.5701  0.1881
  164loPI   C2B 2622   9.280   1.986   9.765  0.0184 -0.0813  0.0468
  164loPI   C3B 2623   9.210   1.912   9.317 -0.3872 -0.1720 -0.0613
  164loPI   C4B 2624   8.866   2.139   9.036  0.1445 -0.1188  0.0076
  165loPI    C1 2625  15.676  17.849  11.747  0.0721  0.0805 -0.0534
  165loPI    C2 2626  15.462  17.682  12.041 -0.3307  0.0997 -0.3277
  165loPI    C3 2627  15.690  18.003  12.117 -0.3255  0.0249 -0.0115
  165loPI   PO4 2628  15.527  17.881  11.583  0.0134 -0.0872  0.1317
  165loPI   GL1 2629  15.477  17.870  11.147 -0.0844  0.1821 -0.0842
  165loPI   GL2 2630  15.759  17.826  10.891  0.1364 -0.3411 -0.0025
  165loPI   C1A 2631  15.276  18.030  10.730  0.0816 -0.1785 -0.1570
  165loPI   C2A 2632  15.122  17.886  10.323 -0.0745 -0.0480 -0.1145
  165loPI   C3A 2633  15.178  17.965   9.887  0.2015 -0.2340  0.2766
  165loPI   C4A 2634  15.142  18.012   9.415  0.0904  0.0973 -0.1361
  165loPI   C5A 2635  15.151  17.988   8.942 -0.1305  0.1298  0.0800
  165loPI   C6A 2636  15.399  17.743   8.636 -0.2446 -0.2218  0.1121
  165loPI   C1B 2637  15.606  17.668  10.452 -0.1530  0.1949  0.0033
  165loPI   C2B 2638  15.662  17.686  10.008  0.1121  0.0129 -0.1930
  165loPI   C3B 2639  15.643  17.829   9.587 -0.1523  0.1046  0.0783
  165loPI   C4B 2640  15.635  17.877   9.139 -0.2245  0.0522  0.0848
  166loPI    C1 2641   2.770  15.010  11.382  0.0955  0.0548 -0.0682
  166loPI    C2 2642   2.715  15.352  11.581 -0.1300  0.0406 -0.1022
  166loPI    C3 2643   2.460  15.049  11.631  0.1726 -0.1918  0.0696
  166loPI   PO4 2644   2.849  15.111  11.142  0.0458  0.1941  0.1335
  166loPI   GL1 2645   3.181  15.017  10.883  0.1063  0.1505 -0.1610
  166loPI   GL2 2646   3.455  14.870  10.692 -0.0431  0.3557 -0.1292
  166loPI   C1A 2647   3.051  15.156  10.469 -0.0772  0.1300  0.1322
  166loPI   C2A 2648   3.047  15.233  10.033  0.3303  0.0428  0.0309
  166loPI   C3A 2649   3.126  15.274   9.605  0.0358  0.3463  0.0560
  166loPI   C4A 2650   3.065  15.273   9.150 -0.0359  0.3501  0.1168
  166loPI   C5A 2651   3.102  15.177   8.716  0.1323 -0.1512  0.0061
  166loPI   C6A 2652   3.023  15.009   8.403  0.2808 -0.1153  0.0206
  166loPI   C1B 2653   3.459  14.925  10.341 -0.0157 -0.0835  0.0250
  166loPI   C2B 2654   3.471  14.912   9.880 -0.1885 -0.1283  0.0732
  166loPI   C3B 2655   3.533  15.022   9.407  0.0501  0.2645  0.0221
  166loPI   C4B 2656   3.460  14.900   8.937 -0.2221 -0.0702  0.2208
  167loPI    C1 2657   3.998   9.111  11.368  0.0203  0.1547 -0.1659
  167loPI    C2 2658   4.317   9.247  11.568  0.1564 -0.0531 -0.2382
  167loPI    C3 2659   4.002   9.104  11.768  0.0943  0.1818 -0.1659
  167loPI   PO4 2660   4.111   8.970  11.140  0.0550  0.1698 -0.2552
  167loPI   GL1 2661   3.905   8.722  10.818  0.0933  0.0855  0.1590
  167loPI   GL2 2662   4.056   8.520  10.751  0.0033  0.1111  0.2964
  167loPI   C1A 2663   3.916   8.939  10.422 -0.0720 -0.0092 -0.0406
  167loPI   C2A 2664   3.902   8.966   9.910 -0.0717 -0.2136 -0.1078
  167loPI   C3A 2665   3.950   8.971   9.528  0.3628 -0.1243  0.1306
  167loPI   C4A 2666   3.946   9.014   9.098 -0.1044  0.0460  0.0309
  167loPI   C5A 2667   3.968   9.301   8.772  0.1898 -0.1923 -0.3934
  167loPI   C6A 2668   4.182   9.553   8.503  0.0536  0.2351  0.0899
  167loPI   C1B 2669   3.938   8.425  10.284  0.0626 -0.1183  0.0950
  167loPI   C2B 2670   3.926   8.442   9.828 -0.1851  0.1675  0.0671
  167loPI   C3B 2671   3.921   8.478   9.357 -0.1948  0.3359  0.3403
  167loPI   C4B 2672   3.954   8.381   8.910 -0.0383  0.0634 -0.0600
  168loPI    C1 2673   3.906   1.320  11.598  0.0712 -0.1123 -0.0258
  168loPI    C2 2674   3.662   1.553  11.813  0.0918 -0.1419  0.0298
  168loPI    C3 2675   4.056   1.558  11.882  0.0956 -0.1702  0.0098
  168loPI   PO4 2676   3.875   1.384  11.325  0.4752  0.0112  0.1087
  168loPI   GL1 2677   3.928   1.613  10.958  0.1301 -0.0353 -0.3406
  168loPI   GL2 2678   3.680   1.777  10.942  0.1773 -0.0583  0.2724
  168loPI   C1A 2679   3.985   1.546  10.535 -0.0933 -0.2928 -0.2002
  168loPI   C2A 2680   4.032   1.434  10.153 -0.1361 -0.2297  0.1564
  168loPI   C3A 2681   4.017   1.444   9.704 -0.1691  0.1842  0.0127
  168loPI   C4A 2682   3.926   1.357   9.250 -0.1890  0.0371 -0.1318
  168loPI   C5A 2683   3.789   1.419   8.815  0.4526  0.0787  0.1917
  168loPI   C6A 2684   4.074   1.416   8.356 -0.2552 -0.0645 -0.0927
  168loPI   C1B 2685   3.508   1.823  10.534 -0.3711  0.2143 -0.0719
  168loPI   C2B 2686   3.578   1.683  10.045  0.0562 -0.2390 -0.4014
  168loPI   C3B 2687   3.556   1.692   9.604  0.0046  0.0401 -0.1470
  168loPI   C4B 2688   3.524   1.643   9.193 -0.3097 -0.3016  0.1852
  169loPI    C1 2689  15.456  11.237  11.234  0.3000  0.3872  0.2497
  169loPI    C2 2690  15.143  11.403  11.418 -0.1186 -0.1506  0.0496
  169loPI    C3 2691  15.390  11.162  11.621  0.0509  0.1097  0.1573
  169loPI   PO4 2692  15.417  11.133  10.982 -0.1625  0.1426 -0.1930
  169loPI   GL1 2693  15.223  11.042  10.656 -0.0427 -0.4310 -0.1519
  169loPI   GL2 2694  14.946  10.848  10.689  0.2626 -0.0495 -0.0474
  169loPI   C1A 2695  15.216  11.135  10.215 -0.1856  0.0796  0.0358
  169loPI   C2A 2696  15.233  11.216   9.767  0.2582  0.2428 -0.2361
  169loPI   C3A 2697  15.141  11.159   9.349 -0.0071  0.2351  0.0448
  169loPI   C4A 2698  15.087  11.102   8.853  0.2031 -0.3073  0.2061
  169loPI   C5A 2699  14.883  11.098   8.463 -0.1535  0.2323 -0.1674
  169loPI   C6A 2700  14.769  11.090   8.066  0.0447 -0.3901  0.2234
  169loPI   C1B 2701  15.096  10.688  10.389  0.2639  0.1569 -0.2201
  169loPI   C2B 2702  15.058  10.605  10.033 -0.2038  0.2357  0.1014
  169loPI   C3B 2703  15.126  10.738   9.617 -0.1418  0.0558 -0.1185
  169loPI   C4B 2704  15.149  10.683   9.147  0.2334  0.0156 -0.0988
  170loPI    C1 2705  13.467   0.348  11.373 -0.0056 -0.1245  0.1519
  170loPI    C2 2706  13.654   0.283  11.720  0.2527  0.0703  0.0519
  170loPI    C3 2707  13.648  -0.003  11.440 -0.3884 -0.2813  0.4019
  170loPI   PO4 2708  13.502   0.564  11.252  0.0513 -0.0701  0.2379
  170loPI   GL1 2709  13.582   0.853  11.005  0.0973 -0.1211  0.0716
  170loPI   GL2 2710  13.352   0.629  10.814  0.3990  0.2393  0.0025
  170loPI   C1A 2711  13.723   0.918  10.519  0.1706 -0.1253  0.1201
  170loPI   C2A 2712  13.833   0.843  10.172 -0.1446 -0.0799  0.1551
  170loPI   C3A 2713  13.890   0.928   9.690 -0.0900 -0.2453  0.0072
  170loPI   C4A 2714  13.827   0.859   9.219  0.2159 -0.0322  0.1426
  170loPI   C5A 2715  13.930   0.693   8.819  0.2884  0.3331 -0.1763
  170loPI   C6A 2716  14.277   0.471   8.560 -0.0434  0.1701 -0.1347
  170loPI   C1B 2717  13.408   0.556  10.323  0.3465 -0.1455  0.1685
  170loPI   C2B 2718  13.466   0.639   9.923  0.1400  0.3324 -0.2245
  170loPI   C3B 2719  13.449   0.723   9.487 -0.0832 -0.0915 -0.1074
  170loPI   C4B 2720  13.392   0.569   9.097  0.2453 -0.0218 -0.1325
  171loPI    C1 2721   7.616   9.699  11.460 -0.2059 -0.0911  0.0091
  171loPI    C2 2722   7.427   9.572  11.789 -0.0712  0.1742  0.1927
  171loPI    C3 2723   7.503   9.962  11.739  0.0055  0.1243 -0.1039
  171loPI   PO4 2724   7.626   9.537  11.225 -0.2231 -0.0588  0.1832
  171loPI   GL1 2725   7.558   9.483  10.923 -0.0545  0.4024 -0.0147
  171loPI   GL2 2726   7.324   9.233  10.896  0.1853 -0.1067 -0.0271
  171loPI   C1A 2727   7.550   9.376  10.448 -0.0382  0.2206 -0.1576
  171loPI   C2A 2728   7.550   9.402  10.010  0.0954 -0.2055 -0.1486
  171loPI   C3A 2729   7.477   9.485   9.570  0.0165 -0.0328 -0.4549
  171loPI   C4A 2730   7.469   9.495   9.166 -0.0146 -0.0091 -0.2779
  171loPI   C5A 2731   7.604   9.486   8.664  0.3991 -0.1136 -0.0620
  171loPI   C6A 2732   7.418   9.539   8.296  0.0336  0.1682 -0.2467
  171loPI   C1B 2733   7.089   9.188  10.608 -0.1208 -0.1233  0.0245
  171loPI   C2B 2734   7.085   9.074  10.201  0.0029  0.1034  0.1588
  171loPI   C3B 2735   7.088   9.098   9.799  0.0911 -0.1570 -0.2263
  171loPI   C4B 2736   7.011   9.304   9.304 -0.1448 -0.0551 -0.1521
  172loPI    C1 2737   1.422   7.100  11.021 -0.4165  0.2693  0.2139
  172loPI    C2 2738   1.447   6.861  11.341 -0.1351 -0.0758 -0.0570
  172loPI    C3 2739   1.729   7.136  11.275 -0.2569  0.0772  0.0517
  172loPI   PO4 2740   1.147   6.977  10.935 -0.2408  0.0238  0.1322
  172loPI   GL1 2741   1.024   6.794  10.517 -0.4044 -0.2844  0.2181
  172loPI   GL2 2742   0.961   6.491  10.570 -0.1793  0.0388 -0.0915
  172loPI   C1A 2743   1.231   7.084  10.244  0.0972  0.2163  0.2902
  172loPI   C2A 2744   1.296   7.318   9.847 -0.0498  0.3990 -0.3691
  172loPI   C3A 2745   1.346   7.277   9.363  0.1025 -0.0438 -0.1798
  172loPI   C4A 2746   1.393   7.291   8.926 -0.1107  0.0082  0.1140
  172loPI   C5A 2747   1.443   7.041   8.532 -0.5372 -0.1162  0.1626
  172loPI   C6A 2748   1.382   6.939   8.047 -0.3800 -0.3189  0.1176
  172loPI   C1B 2749   0.757   6.509  10.059  0.0714  0.0405 -0.0875
  172loPI   C2B 2750   0.893   6.595   9.586  0.1232  0.2110  0.0748
  172loPI   C3B 2751   1.050   6.466   9.249 -0.0425  0.0772 -0.2384
  172loPI   C4B 2752   1.081   6.340   8.771 -0.1675 -0.2950  0.2128
  173loPI    C1 2753   5.268  13.513  11.352  0.0723  0.1342  0.2115
  173loPI    C2 2754   5.492  13.320  11.621  0.3212  0.5266  0.2944
  173loPI    C3 2755   5.190  13.552  11.743 -0.0598  0.0999  0.1889
  173loPI   PO4 2756   5.421  13.587  11.185 -0.1905 -0.3047 -0.2392
  173loPI   GL1 2757   5.617  13.731  10.678 -0.1370  0.0374 -0.3531
  173loPI   GL2 2758   5.704  14.011  10.803 -0.1051  0.1700 -0.3654
  173loPI   C1A 2759   5.609  13.663  10.269  0.1788  0.0264  0.4003
  173loPI   C2A 2760   5.644  13.654   9.833  0.0273  0.1187 -0.0596
  173loPI   C3A 2761   5.691  13.525   9.451 -0.3188 -0.0213  0.0945
  173loPI   C4A 2762   5.788  13.584   9.044 -0.2200  0.2534  0.1674
  173loPI   C5A 2763   5.942  13.667   8.622  0.2946  0.3302  0.1721
  173loPI   C6A 2764   5.812  13.852   8.282  0.0332  0.3839  0.1797
  173loPI   C1B 2765   5.731  14.199  10.343 -0.0001 -0.1254 -0.2477
  173loPI   C2B 2766   5.692  14.152   9.878  0.0810 -0.3875 -0.0423
  173loPI   C3B 2767   5.816  14.101   9.465 -0.1066 -0.3222  0.1744
  173loPI   C4B 2768   5.807  14.061   8.967 -0.2124 -0.1868  0.2384
  174loPI    C1 2769  11.498   5.738  10.986  0.0359  0.0040 -0.1756
  174loPI    C2 2770  11.406   5.808  11.369  0.1189 -0.1224 -0.1318
  174loPI    C3 2771  11.416   5.432  11.231  0.3397 -0.0952 -0.1932
  174loPI   PO4 2772  11.370   5.913  10.839 -0.0201 -0.1832  0.3123
  174loPI   GL1 2773  11.321   6.274  10.710 -0.0222 -0.1341 -0.0446
  174loPI   GL2 2774  11.238   6.554  10.769  0.0157 -0.3139 -0.0128
  174loPI   C1A 2775  11.459   6.421  10.311 -0.2660 -0.4218  0.3848
  174loPI   C2A 2776  11.454   6.406   9.852  0.2680  0.1464 -0.1486
  174loPI   C3A 2777  11.483   6.359   9.493  0.1445  0.0002  0.0857
  174loPI   C4A 2778  11.602   6.614   9.031  0.1678 -0.1005 -0.1086
  174loPI   C5A 2779  11.645   6.724   8.540  0.1507  0.1976 -0.4042
  174loPI   C6A 2780  11.707   7.062   8.274 -0.3230 -0.5916 -0.2494
  174loPI   C1B 2781  11.152   6.827  10.380 -0.0171 -0.1045  0.0508
  174loPI   C2B 2782  11.030   7.087  10.043 -0.1901 -0.0744 -0.1601
  174loPI   C3B 2783  11.036   7.240   9.617  0.0992  0.4086 -0.2831
  174loPI   C4B 2784  11.046   7.295   9.178  0.2932 -0.4600 -0.2058
  175loPI    C1 2785   1.404   8.011  10.974  0.0233 -0.0446 -0.0959
  175loPI    C2 2786   1.470   8.303  11.239 -0.1872  0.0109 -0.1026
  175loPI    C3 2787   1.151   8.066  11.279 -0.1260 -0.0907 -0.2103
  175loPI   PO4 2788   1.382   8.079  10.691  0.2775  0.0478 -0.2510
  175loPI   GL1 2789   1.247   7.761  10.346 -0.3290  0.0168 -0.0767
  175loPI   GL2 2790   0.898   7.555  10.234 -0.1033 -0.5830 -0.0653
  175loPI   C1A 2791   1.270   7.804   9.915  0.0928 -0.4467  0.1144
  175loPI   C2A 2792   1.437   7.807   9.550  0.1946  0.0373 -0.1415
  175loPI   C3A 2793   1.300   7.754   9.124  0.0437 -0.0803 -0.0139
  175loPI   C4A 2794   1.419   7.679   8.663  0.2465  0.1636  0.4225
  175loPI   C5A 2795   1.559   7.779   8.328 -0.0078 -0.3077 -0.0584
  175loPI   C6A 2796   1.580   8.178   8.256  0.2338 -0.0239 -0.1855
  175loPI   C1B 2797   0.813   7.568   9.850 -0.0493 -0.2908  0.1199
  175loPI   C2B 2798   0.811   7.600   9.470 -0.1154  0.0737  0.2831
  175loPI   C3B 2799   0.914   7.518   9.041  0.0034 -0.0689 -0.2097
  175loPI   C4B 2800   0.971   7.317   8.674  0.1095 -0.3396  0.4755
  176loPI    C1 2801  15.210  11.828  11.107 -0.0592 -0.0074 -0.0460
  176loPI    C2 2802  15.476  11.646  10.871 -0.1373 -0.2438  0.0448
  176loPI    C3 2803  15.581  11.759  11.240 -0.0773 -0.0660 -0.0256
  176loPI   PO4 2804  15.039  11.922  10.905 -0.0605  0.1317  0.1931
  176loPI   GL1 2805  15.174  11.991  10.587 -0.4610 -0.0633  0.1095
  176loPI   GL2 2806  15.177  11.689  10.470  0.1514  0.1548 -0.0374
  176loPI   C1A 2807  15.184  12.100  10.185  0.0453  0.0338 -0.2253
  176loPI   C2A 2808  15.189  12.215   9.753 -0.1000  0.0850  0.2226
  176loPI   C3A 2809  15.166  12.165   9.389  0.0399 -0.1615 -0.2834
  176loPI   C4A 2810  15.107  12.288   9.019  0.1093 -0.2447 -0.2263
  176loPI   C5A 2811  15.118  12.334   8.554 -0.0395 -0.3062  0.1528
  176loPI   C6A 2812  14.801  12.398   8.233 -0.2971  0.1005  0.1966
  176loPI   C1B 2813  15.129  11.614  10.089  0.2681 -0.0008 -0.1476
  176loPI   C2B 2814  15.134  11.678   9.590 -0.0073 -0.0266 -0.1773
  176loPI   C3B 2815  15.169  11.711   9.182  0.5411 -0.1004 -0.0131
  176loPI   C4B 2816  15.146  11.565   8.750 -0.2700  0.0595  0.1161
  177loPI    C1 2817   9.497   4.513  10.933  0.1904  0.0333 -0.0351
  177loPI    C2 2818   9.351   4.744  11.225 -0.1366  0.1419 -0.2787
  177loPI    C3 2819   9.135   4.438  11.086  0.2930 -0.3230  0.0419
  177loPI   PO4 2820   9.665   4.734  10.794  0.0409 -0.3304  0.1811
  177loPI   GL1 2821   9.737   5.166  10.420  0.3673 -0.2695 -0.1167
  177loPI   GL2 2822   9.755   4.786  10.278 -0.0318  0.1933 -0.1211
  177loPI   C1A 2823   9.612   5.024   9.891 -0.1996 -0.1946  0.2933
  177loPI   C2A 2824   9.805   4.841   9.590 -0.1973 -0.0801  0.0139
  177loPI   C3A 2825   9.656   4.971   9.163  0.2473 -0.1722 -0.2320
  177loPI   C4A 2826   9.392   4.943   8.870  0.0876 -0.2119  0.0511
  177loPI   C5A 2827   9.074   4.732   8.751  0.3020  0.1906  0.1532
  177loPI   C6A 2828   8.701   4.590   8.853  0.3110 -0.2379  0.1388
  177loPI   C1B 2829   9.872   4.512   9.913 -0.0912  0.2453  0.0700
  177loPI   C2B 2830   9.909   4.173   9.613  0.0141 -0.2720  0.0958
  177loPI   C3B 2831   9.832   3.909   9.209 -0.0883  0.0810 -0.0517
  177loPI   C4B 2832   9.869   3.605   8.978 -0.1105  0.0667  0.1476
  178loPI    C1 2833   3.506   2.105  11.556 -0.0044  0.2786  0.1350
  178loPI    C2 2834   3.820   2.329  11.661  0.0933  0.2046  0.0051
  178loPI    C3 2835   3.686   2.044  11.908  0.0897  0.2766  0.0870
  178loPI   PO4 2836   3.430   2.078  11.260 -0.0765  0.0313  0.1000
  178loPI   GL1 2837   3.187   1.755  10.938  0.0585  0.1290  0.0547
  178loPI   GL2 2838   3.164   2.106  10.793  0.2889  0.0762 -0.1505
  178loPI   C1A 2839   3.093   1.527  10.595  0.1974  0.0702 -0.4239
  178loPI   C2A 2840   3.103   1.470  10.167 -0.1572 -0.4575  0.0807
  178loPI   C3A 2841   3.099   1.510   9.731 -0.3128 -0.1399 -0.0698
  178loPI   C4A 2842   3.067   1.445   9.280 -0.0170 -0.2159 -0.0796
  178loPI   C5A 2843   3.163   1.466   8.953 -0.1954  0.3142  0.0592
  178loPI   C6A 2844   2.925   1.502   8.552  0.3596 -0.1806  0.1117
  178loPI   C1B 2845   3.141   2.066  10.377 -0.2148  0.1685 -0.2036
  178loPI   C2B 2846   3.152   2.018   9.936 -0.1943  0.2292 -0.1082
  178loPI   C3B 2847   3.154   1.952   9.438  0.0932 -0.0634  0.0637
  178loPI   C4B 2848   3.072   1.902   9.072 -0.0335  0.0939  0.1484
  179loPI    C1 2849  12.266   0.992  11.476 -0.1357 -0.1608 -0.0148
  179loPI    C2 2850  12.427   0.708  11.708 -0.1750 -0.0009  0.2101
  179loPI    C3 2851  12.210   1.002  11.872 -0.1695  0.1366 -0.0256
  179loPI   PO4 2852  12.355   1.132  11.290  0.0514  0.1848 -0.0815
  179loPI   GL1 2853  12.409   0.972  10.868 -0.2688  0.1105  0.3010
  179loPI   GL2 2854  12.495   0.714  10.786 -0.0009  0.1196 -0.1577
  179loPI   C1A 2855  12.548   1.150  10.459 -0.0945 -0.0444  0.0114
  179loPI   C2A 2856  12.537   1.134  10.042 -0.1364  0.1264  0.0539
  179loPI   C3A 2857  12.541   1.092   9.649  0.1076  0.1134  0.3318
  179loPI   C4A 2858  12.543   1.165   9.191 -0.1037 -0.0225 -0.1252
  179loPI   C5A 2859  12.599   1.105   8.693  0.3649  0.1259 -0.3881
  179loPI   C6A 2860  12.309   1.027   8.343  0.2097 -0.1673 -0.0018
  179loPI   C1B 2861  12.494   0.649  10.322  0.1895  0.0364  0.1253
  179loPI   C2B 2862  12.561   0.672   9.901 -0.3326 -0.1454 -0.0087
  179loPI   C3B 2863  12.570   0.629   9.460 -0.0480  0.1277  0.1860
  179loPI   C4B 2864  12.608   0.696   9.009  0.0719  0.1831  0.2693
  180loPI    C1 2865   2.426   8.370  11.199 -0.1935 -0.0209  0.2359
  180loPI    C2 2866   2.732   8.619  11.137 -0.1687 -0.1483 -0.1821
  180loPI    C3 2867   2.544   8.618  11.490  0.3499 -0.1134  0.1047
  180loPI   PO4 2868   2.364   8.332  10.924 -0.3234  0.1610 -0.0368
  180loPI   GL1 2869   2.625   8.648  10.611 -0.1349 -0.0761  0.2015
  180loPI   GL2 2870   2.766   8.470  10.669 -0.2340 -0.1556  0.1752
  180loPI   C1A 2871   2.642   8.699  10.152 -0.0797  0.0221  0.0852
  180loPI   C2A 2872   2.601   8.608   9.693 -0.0258  0.0396 -0.0666
  180loPI   C3A 2873   2.629   8.633   9.290  0.3382 -0.2483  0.1088
  180loPI   C4A 2874   2.523   8.724   8.745 -0.0843  0.2591 -0.0531
  180loPI   C5A 2875   2.644   9.013   8.461 -0.0003 -0.2513 -0.3534
  180loPI   C6A 2876   2.966   9.316   8.537  0.0131 -0.0540  0.1332
  180loPI   C1B 2877   2.662   8.171  10.259  0.1386  0.0379  0.2463
  180loPI   C2B 2878   2.689   8.160   9.788 -0.2262 -0.0067 -0.2880
  180loPI   C3B 2879   2.696   8.091   9.344  0.2167  0.2074  0.1752
  180loPI   C4B 2880   2.624   8.132   8.937 -0.2152  0.1983  0.2095
  181loPI    C1 2881  12.208  16.274  11.232  0.1417 -0.1259 -0.0023
  181loPI    C2 2882  12.231  16.640  11.071 -0.0855 -0.2114 -0.2360
  181loPI    C3 2883  12.542  16.390  11.044  0.0238 -0.0816 -0.1882
  181loPI   PO4 2884  12.019  16.144  11.099 -0.1523  0.1451  0.0776
  181loPI   GL1 2885  11.933  16.290  10.802 -0.0166 -0.3761  0.2972
  181loPI   GL2 2886  11.901  16.231  10.488 -0.1836  0.1496 -0.4207
  181loPI   C1A 2887  12.358  16.458  10.571 -0.1445  0.0911  0.0137
  181loPI   C2A 2888  12.395  16.439  10.106  0.0312 -0.0183  0.1541
  181loPI   C3A 2889  12.497  16.486   9.630  0.1774  0.3502 -0.0958
  181loPI   C4A 2890  12.528  16.455   9.161  0.0180  0.1388 -0.2086
  181loPI   C5A 2891  12.517  16.629   8.803 -0.3368 -0.3157 -0.2638
  181loPI   C6A 2892  12.454  16.506   8.383  0.0420  0.2564 -0.0422
  181loPI   C1B 2893  11.992  16.115  10.064 -0.0412 -0.2112 -0.0711
  181loPI   C2B 2894  12.078  16.213   9.665  0.0485 -0.0149 -0.2576
  181loPI   C3B 2895  12.038  16.277   9.232 -0.1362 -0.2654 -0.1995
  181loPI   C4B 2896  12.142  16.221   8.832 -0.1757 -0.1883  0.4848
  182loPI    C1 2897  11.486  11.587  11.552  0.1553  0.3082  0.1731
  182loPI    C2 2898  11.532  11.744  11.917  0.2011  0.3044  0.1690
  182loPI    C3 2899  11.179  11.771  11.730  0.1373  0.1859  0.2706
  182loPI   PO4 2900  11.682  11.661  11.368 -0.1988 -0.3325 -0.2023
  182loPI   GL1 2901  11.853  11.568  10.968  0.2102  0.0787 -0.1933
  182loPI   GL2 2902  11.618  11.726  10.744 -0.0110  0.0548  0.0549
  182loPI   C1A 2903  12.075  11.362  10.637 -0.0995  0.0126 -0.1456
  182loPI   C2A 2904  12.057  11.388  10.128  0.2533 -0.1259 -0.0140
  182loPI   C3A 2905  12.074  11.453   9.654 -0.1261  0.1212  0.2393
  182loPI   C4A 2906  12.019  11.467   9.203  0.0998  0.1881  0.1044
  182loPI   C5A 2907  12.003  11.739   8.774 -0.1518 -0.1003  0.1930
  182loPI   C6A 2908  12.255  11.621   8.302 -0.3191 -0.0458 -0.0806
  182loPI   C1B 2909  11.615  11.550  10.324 -0.2233  0.0077 -0.1881
  182loPI   C2B 2910  11.672  11.618   9.826  0.2631 -0.2206  0.0949
  182loPI   C3B 2911  11.529  11.793   9.299 -0.0275 -0.3867 -0.0084
  182loPI   C4B 2912  11.524  11.740   8.888 -0.0588  0.2403  0.2823
  183loPI    C1 2913  14.725   6.827  10.966 -0.0695  0.0984  0.0191
  183loPI    C2 2914  14.793   6.569  11.264  0.0925  0.0934 -0.0215
  183loPI    C3 2915  14.953   6.936  11.276  0.0933  0.0958 -0.0984
  183loPI   PO4 2916  14.731   6.730  10.739 -0.3594  0.0344 -0.0657
  183loPI   GL1 2917  14.684   6.643  10.267  0.1749  0.0420 -0.1583
  183loPI   GL2 2918  14.732   6.247  10.421  0.2897 -0.0116  0.3018
  183loPI   C1A 2919  14.629   6.651   9.821 -0.0090 -0.0550 -0.0711
  183loPI   C2A 2920  14.666   6.732   9.384 -0.0994  0.0366  0.0364
  183loPI   C3A 2921  14.764   6.855   8.922 -0.0805  0.1842  0.0719
  183loPI   C4A 2922  14.869   7.039   8.595  0.1451 -0.1182 -0.1446
  183loPI   C5A 2923  15.002   7.288   8.264  0.1872 -0.1569 -0.0538
  183loPI   C6A 2924  15.329   7.500   8.101  0.2069  0.1652  0.0659
  183loPI   C1B 2925  14.649   6.190   9.911  0.0537  0.1867  0.0264
  183loPI   C2B 2926  14.752   6.275   9.492  0.1475  0.1792 -0.1562
  183loPI   C3B 2927  14.732   6.357   9.050  0.1313 -0.4022  0.2107
  183loPI   C4B 2928  14.727   6.137   8.704 -0.3665 -0.0489  0.1438
  184loPI    C1 2929  12.583   8.153  11.324 -0.0724 -0.1191  0.2341
  184loPI    C2 2930  12.928   8.352  11.358  0.0392 -0.2461 -0.1080
  184loPI    C3 2931  12.858   8.031  11.587  0.0292 -0.0584  0.1566
  184loPI   PO4 2932  12.625   8.131  11.042  0.1933  0.2307 -0.2062
  184loPI   GL1 2933  12.503   8.216  10.617  0.0570 -0.1623 -0.1161
  184loPI   GL2 2934  12.484   7.909  10.559 -0.1956  0.0007 -0.1264
  184loPI   C1A 2935  12.502   8.447  10.262 -0.1093 -0.5796  0.0231
  184loPI   C2A 2936  12.547   8.500   9.766  0.1472 -0.0497  0.3458
  184loPI   C3A 2937  12.432   8.568   9.385  0.2116  0.0800  0.2371
  184loPI   C4A 2938  12.540   8.622   9.022  0.0401  0.1694  0.0358
  184loPI   C5A 2939  12.648   8.602   8.644  0.0316 -0.0413 -0.0843
  184loPI   C6A 2940  13.067   8.582   8.567 -0.0570  0.2959  0.0540
  184loPI   C1B 2941  12.568   7.913  10.116 -0.1263 -0.0173  0.0485
  184loPI   C2B 2942  12.477   7.907   9.632 -0.0633  0.0098  0.1503
  184loPI   C3B 2943  12.477   8.120   9.222  0.2187 -0.2284 -0.1201
  184loPI   C4B 2944  12.539   8.112   8.794  0.1491  0.0257  0.1213
  185loPI    C1 2945   0.259  10.142  11.090 -0.0022 -0.0310  0.2684
  185loPI    C2 2946   0.205  10.525  10.988  0.0006 -0.1150 -0.0614
  185loPI    C3 2947   0.317  10.431  11.360 -0.0092  0.2027  0.0248
  185loPI   PO4 2948   0.325  10.117  10.766  0.3233  0.1042 -0.1488
  185loPI   GL1 2949   0.218   9.981  10.398 -0.0744  0.1602  0.2441
  185loPI   GL2 2950  -0.084   9.961  10.325 -0.0534 -0.0165  0.1903
  185loPI   C1A 2951   0.416   9.846  10.122 -0.0542 -0.0418 -0.0051
  185loPI   C2A 2952   0.418   9.869   9.658 -0.1382 -0.4414  0.0315
  185loPI   C3A 2953   0.452   9.899   9.185  0.0417  0.0635  0.0855
  185loPI   C4A 2954   0.351   9.924   8.755 -0.0232  0.0025  0.0601
  185loPI   C5A 2955   0.325   9.928   8.307  0.1469 -0.1770  0.1916
  185loPI   C6A 2956   0.443   9.601   7.960 -0.4895  0.1800  0.0440
  185loPI   C1B 2957  -0.020  10.047   9.880  0.0641  0.0359 -0.1571
  185loPI   C2B 2958  -0.002  10.123   9.439  0.4094 -0.0266  0.0980
  185loPI   C3B 2959  -0.035  10.161   8.972 -0.0216 -0.1024 -0.0243
  185loPI   C4B 2960  -0.138  10.154   8.570  0.1141 -0.0879 -0.0080
  186loPI    C1 2961   5.907   3.681  11.443 -0.1140 -0.1758  0.0418
  186loPI    C2 2962   5.511   3.741  11.447 -0.0913 -0.0252  0.1482
  186loPI    C3 2963   5.720   3.760  11.788  0.0358  0.0918  0.0650
  186loPI   PO4 2964   5.983   3.876  11.232 -0.0361  0.2741 -0.0770
  186loPI   GL1 2965   6.194   3.950  10.769 -0.0170 -0.0791  0.0680
  186loPI   GL2 2966   5.847   4.010  10.683  0.0711  0.1102  0.2132
  186loPI   C1A 2967   6.157   3.951  10.210 -0.1734  0.1329  0.2768
  186loPI   C2A 2968   6.208   3.926   9.777  0.1732  0.0111  0.1205
  186loPI   C3A 2969   6.295   3.944   9.344  0.3883  0.1143  0.2029
  186loPI   C4A 2970   6.337   4.017   8.864  0.2641 -0.0198  0.0979
  186loPI   C5A 2971   6.529   4.040   8.454  0.0915 -0.1829  0.2230
  186loPI   C6A 2972   6.886   4.348   8.367 -0.1388 -0.1595 -0.2200
  186loPI   C1B 2973   5.716   3.801  10.338 -0.1915 -0.0522 -0.0564
  186loPI   C2B 2974   5.624   3.734  10.012 -0.0802  0.0035  0.0516
  186loPI   C3B 2975   5.721   3.795   9.555 -0.0266  0.2098 -0.2379
  186loPI   C4B 2976   5.817   3.621   9.191 -0.0705 -0.0055  0.1821
  187loPI    C1 2977   5.567   3.149  11.120  0.1399  0.0295 -0.2714
  187loPI    C2 2978   5.942   3.180  11.256  0.0306  0.1608  0.0094
  187loPI    C3 2979   5.634   3.241  11.504 -0.1765  0.2521 -0.2652
  187loPI   PO4 2980   5.558   3.126  10.932 -0.0117  0.0998  0.0438
  187loPI   GL1 2981   5.659   3.274  10.585  0.2740  0.1693  0.0029
  187loPI   GL2 2982   5.445   3.312  10.367 -0.0003 -0.0306  0.0716
  187loPI   C1A 2983   5.805   3.284  10.125  0.2517 -0.0440 -0.0863
  187loPI   C2A 2984   6.016   3.450   9.856  0.0952 -0.1719  0.0021
  187loPI   C3A 2985   6.149   3.434   9.486 -0.5342 -0.4326 -0.2255
  187loPI   C4A 2986   6.303   3.442   9.111 -0.0357 -0.1392  0.0148
  187loPI   C5A 2987   6.138   3.535   8.717 -0.1730 -0.2397 -0.0436
  187loPI   C6A 2988   5.804   3.582   8.423  0.0936  0.3670 -0.2854
  187loPI   C1B 2989   5.222   3.519  10.159 -0.0600  0.1383 -0.0313
  187loPI   C2B 2990   5.213   3.563   9.724  0.0099  0.1814  0.1590
  187loPI   C3B 2991   5.014   3.675   9.360 -0.2594  0.2537 -0.2120
  187loPI   C4B 2992   4.848   4.092   9.297  0.1207  0.1115  0.2091
  188loPI    C1 2993   7.765   4.082  11.209 -0.0361  0.1756 -0.0968
  188loPI    C2 2994   7.559   3.869  11.477 -0.0098 -0.1378 -0.3202
  188loPI    C3 2995   7.958   3.875  11.491 -0.0178  0.1176 -0.1515
  188loPI   PO4 2996   7.633   4.090  10.980 -0.0295 -0.0814  0.1283
  188loPI   GL1 2997   7.624   4.004  10.578  0.2472 -0.2217 -0.1537
  188loPI   GL2 2998   7.880   4.179  10.541  0.1027 -0.0758 -0.2524
  188loPI   C1A 2999   7.304   3.859  10.348  0.0180 -0.0524  0.2477
  188loPI   C2A 3000   7.116   3.631   9.961 -0.0541  0.2920 -0.2813
  188loPI   C3A 3001   7.116   3.438   9.630 -0.2123  0.0644  0.0069
  188loPI   C4A 3002   7.182   3.545   9.310 -0.0309 -0.1622  0.3193
  188loPI   C5A 3003   7.425   3.775   9.010 -0.1501  0.1172  0.1894
  188loPI   C6A 3004   7.805   3.649   8.778  0.0909 -0.1475  0.0586
  188loPI   C1B 3005   7.707   4.512  10.178 -0.0303  0.1121  0.0238
  188loPI   C2B 3006   7.608   4.768   9.781  0.2405 -0.0099  0.1116
  188loPI   C3B 3007   7.678   4.782   9.294  0.1486 -0.1118 -0.2794
  188loPI   C4B 3008   8.007   4.346   9.249  0.1236  0.2805  0.0870
  189loPI    C1 3009   5.546   8.638  11.301 -0.0911 -0.2864 -0.3087
  189loPI    C2 3010   5.887   8.470  11.424  0.0189  0.2528  0.1625
  189loPI    C3 3011   5.548   8.406  11.626 -0.0874  0.0246 -0.0825
  189loPI   PO4 3012   5.611   8.805  11.140  0.1188  0.2366 -0.0916
  189loPI   GL1 3013   5.552   8.878  10.772  0.1529  0.1668  0.1451
  189loPI   GL2 3014   5.311   8.758  10.660 -0.0538  0.2015  0.2172
  189loPI   C1A 3015   5.732   8.917  10.396  0.4475  0.0414  0.1009
  189loPI   C2A 3016   5.668   8.950   9.968 -0.4422 -0.0013 -0.1342
  189loPI   C3A 3017   5.770   8.939   9.464  0.0405  0.2474  0.1036
  189loPI   C4A 3018   5.775   8.933   8.977 -0.0020  0.0861  0.2102
  189loPI   C5A 3019   5.464   8.704   8.790  0.0664  0.4872  0.2323
  189loPI   C6A 3020   5.171   9.050   8.695  0.0547  0.0657  0.0367
  189loPI   C1B 3021   5.287   8.699  10.280 -0.0697 -0.1247  0.1116
  189loPI   C2B 3022   5.256   8.682   9.832  0.1380  0.1633 -0.1947
  189loPI   C3B 3023   5.262   8.706   9.528 -0.1171  0.2101 -0.0303
  189loPI   C4B 3024   5.355   8.852   9.215  0.3190  0.1582 -0.1440
  190loPI    C1 3025  16.369   2.751  11.552 -0.0831  0.0410 -0.1307
  190loPI    C2 3026  16.637   3.048  11.561 -0.1260  0.0807 -0.1512
  190loPI    C3 3027  16.399   2.984  11.876 -0.0173 -0.0245 -0.0893
  190loPI   PO4 3028  16.286   2.762  11.328  0.1154 -0.2501 -0.1913
  190loPI   GL1 3029  16.159   2.819  10.904  0.2764 -0.1008  0.1177
  190loPI   GL2 3030  16.393   2.559  10.810  0.1187 -0.0753  0.0465
  190loPI   C1A 3031  16.030   2.766  10.485 -0.0190  0.1022 -0.0470
  190loPI   C2A 3032  16.108   2.850  10.035  0.0563 -0.3359  0.0664
  190loPI   C3A 3033  16.053   2.804   9.703  0.2678 -0.2044  0.1466
  190loPI   C4A 3034  16.084   2.798   9.313  0.2072 -0.0456  0.1397
  190loPI   C5A 3035  16.248   2.629   8.834  0.2081 -0.2691  0.1450
  190loPI   C6A 3036  16.478   2.356   8.579 -0.0373  0.1602  0.0446
  190loPI   C1B 3037  16.430   2.570  10.295  0.1689 -0.3187 -0.1193
  190loPI   C2B 3038  16.554   2.630   9.954  0.0220 -0.0637 -0.0623
  190loPI   C3B 3039  16.512   2.400   9.614 -0.0774  0.4186  0.2284
  190loPI   C4B 3040  16.543   2.578   9.227 -0.0126 -0.0898 -0.1773
  191loPI    C1 3041   6.587  12.602  11.380  0.0070 -0.0556  0.1924
  191loPI    C2 3042   6.337  12.914  11.411  0.0513 -0.0260  0.2534
  191loPI    C3 3043   6.583  12.823  11.713  0.1665 -0.0106  0.1650
  191loPI   PO4 3044   6.551  12.412  11.318 -0.0573 -0.1887  0.4170
  191loPI   GL1 3045   6.536  12.197  10.928 -0.3001  0.2652  0.2352
  191loPI   GL2 3046   6.307  11.904  10.928  0.4062 -0.1127  0.2863
  191loPI   C1A 3047   6.697  12.141  10.501  0.3152  0.1553 -0.1159
  191loPI   C2A 3048   6.682  12.136  10.117 -0.0031 -0.0119  0.0402
  191loPI   C3A 3049   6.671  12.123   9.703  0.2624 -0.1376 -0.2450
  191loPI   C4A 3050   6.668  11.976   9.263  0.3556 -0.1488  0.2277
  191loPI   C5A 3051   6.921  12.114   8.884 -0.4115 -0.0598 -0.1069
  191loPI   C6A 3052   6.971  12.373   8.590 -0.1683  0.1602  0.4883
  191loPI   C1B 3053   6.189  11.889  10.503  0.1555 -0.1077 -0.2182
  191loPI   C2B 3054   6.125  11.845  10.082 -0.0541 -0.0137 -0.1560
  191loPI   C3B 3055   6.137  11.812   9.613 -0.1396 -0.0417 -0.2769
  191loPI   C4B 3056   6.212  11.842   9.144 -0.1331 -0.3543  0.0979
  192loPI    C1 3057   1.923  10.813  11.737  0.0457  0.0607  0.2423
  192loPI    C2 3058   1.971  10.419  11.789  0.0584  0.0351  0.0428
  192loPI    C3 3059   1.910  10.657  12.105  0.2272 -0.1028  0.1808
  192loPI   PO4 3060   1.990  10.764  11.421  0.2701 -0.0606 -0.3224
  192loPI   GL1 3061   1.946  11.039  10.974 -0.0293  0.0813  0.0270
  192loPI   GL2 3062   1.675  10.843  10.836 -0.0672 -0.0760 -0.1242
  192loPI   C1A 3063   2.122  11.019  10.625  0.1961 -0.0425 -0.0439
  192loPI   C2A 3064   2.147  11.010  10.177  0.1019 -0.2932  0.1034
  192loPI   C3A 3065   2.151  10.940   9.791  0.0863  0.0268 -0.0333
  192loPI   C4A 3066   2.184  11.062   9.436 -0.0076  0.0214 -0.2359
  192loPI   C5A 3067   2.122  11.025   8.977 -0.1533 -0.1381  0.1476
  192loPI   C6A 3068   2.107  11.178   8.653 -0.1552 -0.0098 -0.0124
  192loPI   C1B 3069   1.732  10.777  10.387  0.1010 -0.0820  0.2101
  192loPI   C2B 3070   1.734  10.754   9.989 -0.0284 -0.0062  0.2291
  192loPI   C3B 3071   1.690  10.662   9.501 -0.1197 -0.2538  0.0668
  192loPI   C4B 3072   1.686  10.682   9.080  0.1080  0.0335  0.0743
  193loPI    C1 3073   1.456  15.434  11.383 -0.2911 -0.1600 -0.2208
  193loPI    C2 3074   1.273  15.140  11.583  0.0148 -0.2056 -0.0011
  193loPI    C3 3075   1.628  15.277  11.708 -0.1177  0.2529 -0.1055
  193loPI   PO4 3076   1.392  15.366  11.083 -0.0140 -0.1399 -0.1805
  193loPI   GL1 3077   1.222  15.227  10.620  0.1461  0.0323  0.0715
  193loPI   GL2 3078   1.282  14.936  10.875  0.0166  0.1987  0.0853
  193loPI   C1A 3079   1.228  15.112  10.265 -0.0846  0.0334  0.0150
  193loPI   C2A 3080   1.238  15.153   9.774 -0.0459 -0.0926  0.4169
  193loPI   C3A 3081   1.277  15.202   9.224 -0.1955 -0.2085 -0.1327
  193loPI   C4A 3082   1.182  14.971   8.914 -0.0152  0.0959  0.1217
  193loPI   C5A 3083   1.048  14.516   8.705 -0.1177 -0.0977 -0.2023
  193loPI   C6A 3084   1.016  14.156   8.561 -0.3079  0.0737 -0.1076
  193loPI   C1B 3085   1.251  14.656  10.420 -0.3207  0.0875 -0.2301
  193loPI   C2B 3086   1.223  14.663   9.984  0.1386  0.0153  0.0368
  193loPI   C3B 3087   1.205  14.753   9.509  0.3198  0.0295  0.0575
  193loPI   C4B 3088   1.367  14.553   9.233  0.1917 -0.3143  0.0104
  194loPI    C1 3089   2.440  16.612  11.563  0.2861  0.2019  0.0115
  194loPI    C2 3090   2.181  16.914  11.605 -0.0296 -0.0350 -0.1901
  194loPI    C3 3091   2.299  16.705  11.925 -0.1822 -0.0016 -0.1111
  194loPI   PO4 3092   2.461  16.668  11.217  0.5542  0.3521  0.0157
  194loPI   GL1 3093   2.370  16.496  10.866 -0.1370  0.1172  0.0034
  194loPI   GL2 3094   2.086  16.310  10.771 -0.2473  0.0724  0.0041
  194loPI   C1A 3095   2.599  16.545  10.530 -0.2893  0.0580  0.2508
  194loPI   C2A 3096   2.620  16.504  10.163 -0.1289 -0.1364 -0.0427
  194loPI   C3A 3097   2.561  16.477   9.756  0.0671  0.1364  0.0457
  194loPI   C4A 3098   2.551  16.569   9.316 -0.3576  0.0034  0.0008
  194loPI   C5A 3099   2.710  16.434   8.927  0.3755  0.0888 -0.3249
  194loPI   C6A 3100   2.775  16.106   8.671 -0.2523 -0.2561  0.1305
  194loPI   C1B 3101   2.111  16.149  10.331  0.0195 -0.0737  0.1074
  194loPI   C2B 3102   2.070  16.140   9.927 -0.0255  0.0984 -0.1224
  194loPI   C3B 3103   2.120  16.203   9.489  0.1324 -0.1213 -0.1164
  194loPI   C4B 3104   2.134  16.203   9.121  0.0076 -0.0401  0.3887
  195loPI    C1 3105   9.606   9.244  11.596 -0.2343  0.0370  0.0009
  195loPI    C2 3106   9.377   8.920  11.640 -0.0380 -0.0476  0.4536
  195loPI    C3 3107   9.272   9.264  11.814 -0.1242  0.0735  0.1680
  195loPI   PO4 3108   9.612   9.236  11.275 -0.0502  0.0144  0.1285
  195loPI   GL1 3109   9.487   9.415  10.959 -0.1877 -0.0142 -0.1517
  195loPI   GL2 3110   9.703   9.624  10.968 -0.0135 -0.0473  0.0405
  195loPI   C1A 3111   9.256   9.279  10.520  0.0992 -0.0964  0.0261
  195loPI   C2A 3112   9.315   9.302  10.178  0.2173 -0.0558 -0.2172
  195loPI   C3A 3113   9.293   9.374   9.649 -0.0553 -0.1819  0.2800
  195loPI   C4A 3114   9.278   9.374   9.231 -0.0717 -0.1714 -0.1382
  195loPI   C5A 3115   9.230   9.470   8.774  0.1076 -0.2091  0.2366
  195loPI   C6A 3116   9.219   9.282   8.450 -0.0031  0.0337  0.0798
  195loPI   C1B 3117   9.712   9.550  10.518 -0.1826  0.1559 -0.0148
  195loPI   C2B 3118   9.694   9.593  10.041  0.3590 -0.0677 -0.0344
  195loPI   C3B 3119   9.800   9.581   9.709 -0.0427 -0.0766  0.0964
  195loPI   C4B 3120   9.731   9.631   9.335 -0.0801 -0.1203  0.1413
  196loPI    C1 3121  16.872   9.377  10.898 -0.2516  0.3613 -0.1035
  196loPI    C2 3122  16.770   9.747  11.008 -0.2393  0.3370 -0.0099
  196loPI    C3 3123  16.868   9.476  11.285 -0.3037  0.2473 -0.0745
  196loPI   PO4 3124  16.734   9.311  10.749  0.0686  0.1760 -0.0656
  196loPI   GL1 3125  16.691   9.375  10.365 -0.0378  0.0378 -0.0703
  196loPI   GL2 3126  16.903   9.129  10.353 -0.1124  0.0386  0.2287
  196loPI   C1A 3127  16.896   9.564  10.057 -0.2866 -0.1228 -0.0474
  196loPI   C2A 3128  16.939   9.744   9.655  0.0020 -0.2787 -0.0303
  196loPI   C3A 3129  16.922   9.702   9.191  0.2504 -0.1350  0.1152
  196loPI   C4A 3130  17.078   9.620   8.844 -0.3731 -0.3032  0.0543
  196loPI   C5A 3131  16.985   9.434   8.378 -0.0090 -0.3801 -0.0001
  196loPI   C6A 3132  16.990   9.565   7.985  0.0447  0.1896  0.1604
  196loPI   C1B 3133  16.915   9.057   9.957  0.0933 -0.1570  0.3594
  196loPI   C2B 3134  17.078   9.113   9.617 -0.0221 -0.1811  0.3929
  196loPI   C3B 3135  17.006   9.162   9.174  0.1373  0.0395 -0.1013
  196loPI   C4B 3136  17.133   9.156   8.790  0.0823  0.2534  0.0546
  197loPI    C1 3137  14.653   3.053  11.295 -0.1615  0.2075 -0.2234
  197loPI    C2 3138  14.913   2.809  11.112 -0.2557  0.0476 -0.1468
  197loPI    C3 3139  14.911   2.836  11.511 -0.3300  0.0783 -0.1490
  197loPI   PO4 3140  14.390   2.962  11.068 -0.2884 -0.1264 -0.3573
  197loPI   GL1 3141  14.260   3.144  10.716 -0.2955  0.0585  0.1927
  197loPI   GL2 3142  13.937   2.969  10.814  0.2446 -0.0765  0.2797
  197loPI   C1A 3143  14.232   2.868  10.381  0.2135  0.0196 -0.1844
  197loPI   C2A 3144  14.275   2.671   9.974  0.0061 -0.1057 -0.0465
  197loPI   C3A 3145  14.307   2.835   9.516  0.3753 -0.0940 -0.0288
  197loPI   C4A 3146  14.286   2.767   9.060 -0.0094  0.0661 -0.1396
  197loPI   C5A 3147  14.376   2.857   8.625  0.0552  0.0360 -0.1190
  197loPI   C6A 3148  14.693   3.015   8.379  0.0840  0.0755  0.0821
  197loPI   C1B 3149  13.808   3.105  10.427 -0.1151  0.0517  0.1061
  197loPI   C2B 3150  13.854   2.961   9.968  0.0602 -0.2238  0.1733
  197loPI   C3B 3151  13.836   2.999   9.485  0.2066  0.0479 -0.1977
  197loPI   C4B 3152  13.905   3.101   9.061 -0.0883 -0.1833 -0.0761
  198loPI    C1 3153  13.089  12.617  11.615  0.0258 -0.0258  0.0353
  198loPI    C2 3154  13.403  12.820  11.758  0.0116 -0.0564  0.1106
  198loPI    C3 3155  13.234  12.532  11.978 -0.2165  0.1194  0.1693
  198loPI   PO4 3156  13.105  12.691  11.231 -0.1504  0.1034 -0.1255
  198loPI   GL1 3157  13.206  12.769  10.760  0.0713  0.0507 -0.3055
  198loPI   GL2 3158  13.178  13.095  10.841 -0.1058 -0.3548  0.1947
  198loPI   C1A 3159  13.268  12.652  10.332 -0.1292  0.1271  0.5193
  198loPI   C2A 3160  13.331  12.654   9.846 -0.0160  0.3317  0.1220
  198loPI   C3A 3161  13.450  12.801   9.462 -0.1731  0.0208 -0.0948
  198loPI   C4A 3162  13.412  12.852   9.031  0.3238  0.0450 -0.2310
  198loPI   C5A 3163  13.301  13.082   8.676  0.2118 -0.2096 -0.2159
  198loPI   C6A 3164  13.265  13.027   8.293 -0.3436 -0.0671  0.1679
  198loPI   C1B 3165  13.277  13.288  10.380  0.2162 -0.0074 -0.3953
  198loPI   C2B 3166  13.330  13.144   9.942  0.1545 -0.0210 -0.3252
  198loPI   C3B 3167  13.502  13.350   9.618 -0.1081  0.0989 -0.1206
  198loPI   C4B 3168  13.434  13.329   9.209 -0.1225  0.0596 -0.0074
  199loPI    C1 3169  16.031  14.306  11.148  0.0257  0.0966 -0.0609
  199loPI    C2 3170  15.718  14.552  11.187  0.0928  0.1686  0.0315
  199loPI    C3 3171  16.027  14.581  11.439  0.0939 -0.0224  0.0539
  199loPI   PO4 3172  16.114  14.291  10.960 -0.0687 -0.2597 -0.0079
  199loPI   GL1 3173  16.068  14.555  10.573 -0.0493 -0.0597  0.0955
  199loPI   GL2 3174  15.978  14.894  10.526 -0.1222 -0.0317 -0.1300
  199loPI   C1A 3175  15.970  14.388  10.229  0.3519 -0.0860  0.0282
  199loPI   C2A 3176  16.054  14.265   9.855  0.2230  0.2418 -0.1871
  199loPI   C3A 3177  16.071  14.276   9.445  0.0549 -0.4808 -0.2925
  199loPI   C4A 3178  16.072  14.366   9.006 -0.0262  0.2640 -0.1722
  199loPI   C5A 3179  16.053  14.315   8.613 -0.0653 -0.1781 -0.4232
  199loPI   C6A 3180  16.456  14.288   8.447 -0.1453 -0.0578 -0.0150
  199loPI   C1B 3181  16.028  14.842  10.123  0.0186  0.1884  0.2843
  199loPI   C2B 3182  16.002  14.800   9.636 -0.0478  0.1303  0.1592
  199loPI   C3B 3183  16.031  14.831   9.202 -0.1320 -0.0186 -0.0335
  199loPI   C4B 3184  15.944  14.870   8.758  0.0283 -0.0692  0.0839
  200loPI    C1 3185  12.311  16.979  11.690  0.0752 -0.2819  0.2218
  200loPI    C2 3186  11.959  16.890  11.522  0.0924 -0.1389  0.1080
  200loPI    C3 3187  12.190  16.598  11.667  0.0490 -0.2588 -0.0608
  200loPI   PO4 3188  12.419  17.097  11.409  0.0612  0.0955 -0.0715
  200loPI   GL1 3189  12.615  16.931  11.080  0.1261  0.0389  0.2082
  200loPI   GL2 3190  12.749  17.178  10.839  0.1005 -0.0116  0.1200
  200loPI   C1A 3191  12.334  16.966  10.585 -0.3614  0.1810 -0.1650
  200loPI   C2A 3192  12.400  16.914  10.160  0.2217 -0.1940 -0.1014
  200loPI   C3A 3193  12.510  16.988   9.731 -0.0493 -0.2620 -0.0649
  200loPI   C4A 3194  12.540  17.049   9.269  0.0558 -0.3634 -0.3173
  200loPI   C5A 3195  12.577  17.158   8.920  0.4316 -0.2740  0.1639
  200loPI   C6A 3196  12.697  17.063   8.537  0.0505 -0.1067  0.1559
  200loPI   C1B 3197  12.906  17.080  10.410  0.0970 -0.0888 -0.1314
  200loPI   C2B 3198  12.946  17.246  10.054 -0.1676 -0.0610  0.0516
  200loPI   C3B 3199  12.974  17.168   9.599 -0.0666  0.0359  0.1442
  200loPI   C4B 3200  13.009  17.253   9.146 -0.2513  0.0595  0.3448
  201loPI    C1 3201   0.983  13.517  11.357  0.1266 -0.1681 -0.1805
  201loPI    C2 3202   1.109  13.170  11.512  0.0988 -0.0404  0.1371
  201loPI    C3 3203   1.360  13.480  11.486  0.0039  0.0477  0.2608
  201loPI   PO4 3204   0.914  13.444  11.075  0.1565 -0.1503 -0.3970
  201loPI   GL1 3205   1.302  13.271  10.933 -0.4144  0.0449 -0.0188
  201loPI   GL2 3206   1.392  12.975  11.018 -0.0173  0.2030  0.1118
  201loPI   C1A 3207   1.241  13.196  10.477  0.2861 -0.0686  0.1269
  201loPI   C2A 3208   1.369  13.046  10.061 -0.1904  0.1004 -0.1016
  201loPI   C3A 3209   1.321  13.028   9.744 -0.1919  0.0018  0.3986
  201loPI   C4A 3210   1.250  13.137   9.292 -0.4247 -0.1631  0.1668
  201loPI   C5A 3211   1.193  13.170   8.939 -0.2602  0.2330 -0.2257
  201loPI   C6A 3212   1.344  13.356   8.498 -0.2341  0.0278  0.2319
  201loPI   C1B 3213   1.640  12.885  10.615  0.0146  0.0386 -0.0229
  201loPI   C2B 3214   1.726  12.749  10.235  0.0178  0.0547 -0.0978
  201loPI   C3B 3215   1.813  12.869   9.762  0.2386  0.0391 -0.3478
  201loPI   C4B 3216   1.765  12.879   9.319 -0.2324 -0.0621 -0.0305
  202loPI    C1 3217  13.453  15.301  11.460  0.1776 -0.1020  0.1523
  202loPI    C2 3218  13.643  15.219  11.802  0.0071  0.0251  0.2794
  202loPI    C3 3219  13.360  15.501  11.793  0.0594  0.0722  0.0168
  202loPI   PO4 3220  13.574  15.000  11.294 -0.0596  0.0379  0.1430
  202loPI   GL1 3221  13.602  15.048  10.929  0.0179  0.1804  0.0546
  202loPI   GL2 3222  13.350  14.851  10.836 -0.0183  0.0681 -0.1368
  202loPI   C1A 3223  13.852  15.120  10.563 -0.1463  0.2113  0.0320
  202loPI   C2A 3224  13.822  15.199  10.109  0.1133 -0.1150  0.2630
  202loPI   C3A 3225  13.836  15.112   9.701  0.1859  0.2239 -0.1777
  202loPI   C4A 3226  13.798  15.094   9.275 -0.0261  0.3328 -0.1655
  202loPI   C5A 3227  13.995  15.194   8.871  0.1821 -0.1195  0.0450
  202loPI   C6A 3228  14.313  15.019   8.637 -0.0081  0.2669  0.1001
  202loPI   C1B 3229  13.459  14.798  10.399  0.1793  0.0666 -0.0051
  202loPI   C2B 3230  13.328  14.839   9.953 -0.0120 -0.0073 -0.4942
  202loPI   C3B 3231  13.369  14.844   9.452  0.1579 -0.0276 -0.2369
  202loPI   C4B 3232  13.358  14.846   9.137 -0.0496  0.1093  0.2452
  203loPI    C1 3233  14.698   1.269  11.379 -0.1272 -0.0125 -0.0271
  203loPI    C2 3234  14.425   0.984  11.448  0.2506 -0.2967  0.3438
  203loPI    C3 3235  14.480   1.277  11.715 -0.0202  0.0385  0.0416
  203loPI   PO4 3236  14.636   1.450  11.142 -0.1945  0.0078  0.2349
  203loPI   GL1 3237  14.706   1.428  10.672  0.0032 -0.0472  0.0462
  203loPI   GL2 3238  14.665   1.705  10.674  0.3060  0.0159  0.1101
  203loPI   C1A 3239  14.707   1.352  10.159 -0.1450  0.0410  0.1642
  203loPI   C2A 3240  14.776   1.466   9.694 -0.1444  0.2823  0.1278
  203loPI   C3A 3241  14.697   1.433   9.234  0.0791 -0.3793  0.2086
  203loPI   C4A 3242  14.739   1.541   8.743 -0.0965 -0.1131  0.1572
  203loPI   C5A 3243  14.354   1.401   8.551  0.1620  0.1463  0.1317
  203loPI   C6A 3244  14.064   1.550   8.199  0.0808 -0.0517 -0.0903
  203loPI   C1B 3245  14.696   1.816  10.296  0.3285 -0.2789 -0.1732
  203loPI   C2B 3246  14.724   2.016  10.016  0.1691 -0.2163 -0.3381
  203loPI   C3B 3247  14.767   2.019   9.494  0.1080  0.1333  0.3660
  203loPI   C4B 3248  14.680   2.001   9.077 -0.0715  0.1684 -0.3380
  204loPI    C1 3249  16.869   0.505  11.524 -0.0593 -0.1584  0.0976
  204loPI    C2 3250  16.657   0.838  11.589  0.1414  0.0154 -0.1185
  204loPI    C3 3251  16.611   0.521  11.829 -0.1167  0.1661  0.0357
  204loPI   PO4 3252  16.849   0.447  11.324 -0.2745 -0.0504 -0.1183
  204loPI   GL1 3253  16.770   0.362  10.917 -0.2066  0.1398  0.0266
  204loPI   GL2 3254  16.964   0.645  10.727 -0.0896  0.0224 -0.2003
  204loPI   C1A 3255  17.044   0.179  10.519  0.2465  0.0744 -0.2111
  204loPI   C2A 3256  17.031   0.196  10.140 -0.1359  0.1561 -0.1765
  204loPI   C3A 3257  16.983   0.252   9.753  0.1826 -0.4298  0.2142
  204loPI   C4A 3258  16.974   0.238   9.300  0.2756 -0.1050 -0.0527
  204loPI   C5A 3259  16.938   0.234   8.846 -0.3235 -0.3402  0.0258
  204loPI   C6A 3260  17.123   0.441   8.393  0.2351  0.0700 -0.1190
  204loPI   C1B 3261  16.963   0.766  10.324  0.1053  0.3779  0.0920
  204loPI   C2B 3262  17.015   0.743   9.939 -0.1930  0.1373  0.0329
  204loPI   C3B 3263  16.982   0.672   9.453 -0.2288 -0.0805  0.1018
  204loPI   C4B 3264  17.019   0.699   8.992  0.0041 -0.3076  0.1691
  205loPI    C1 3265  16.127  10.342  11.169  0.0196 -0.0161  0.0238
  205loPI    C2 3266  15.860  10.482  11.432  0.2507  0.0066  0.2497
  205loPI    C3 3267  15.939  10.090  11.416 -0.1518 -0.0664 -0.1552
  205loPI   PO4 3268  15.999  10.429  10.872  0.2905  0.2501  0.0575
  205loPI   GL1 3269  16.062  10.447  10.536  0.0197 -0.0702  0.2696
  205loPI   GL2 3270  16.454  10.405  10.380  0.0716  0.1393 -0.1204
  205loPI   C1A 3271  16.009  10.634  10.102  0.3298  0.0438 -0.0022
  205loPI   C2A 3272  16.099  10.771   9.711 -0.2294 -0.3215  0.1997
  205loPI   C3A 3273  16.045  10.788   9.292  0.2629 -0.1678  0.2110
  205loPI   C4A 3274  15.730  10.593   8.908 -0.2899  0.1558 -0.3554
  205loPI   C5A 3275  15.401  10.646   8.677 -0.1668 -0.1580 -0.1550
  205loPI   C6A 3276  14.974  10.660   8.691 -0.1698  0.3302  0.0946
  205loPI   C1B 3277  16.455  10.478   9.946  0.3478 -0.2397 -0.0213
  205loPI   C2B 3278  16.639  10.503   9.499 -0.3961  0.5045 -0.1661
  205loPI   C3B 3279  16.446  10.554   9.133  0.2606  0.0597  0.3749
  205loPI   C4B 3280  16.535  10.338   8.717  0.2644 -0.0068  0.0646
  206loPI    C1 3281   3.921   4.814  11.353  0.1303  0.2537  0.0124
  206loPI    C2 3282   3.571   5.005  11.329 -0.0197 -0.0016  0.1313
  206loPI    C3 3283   3.762   4.980  11.680 -0.0465 -0.1470  0.1361
  206loPI   PO4 3284   3.858   4.617  11.118 -0.2137 -0.1315 -0.0290
  206loPI   GL1 3285   3.803   4.491  10.745 -0.2541 -0.0801  0.0625
  206loPI   GL2 3286   3.822   4.822  10.492 -0.0475 -0.1021 -0.3451
  206loPI   C1A 3287   3.972   4.416  10.304 -0.2474  0.0742  0.2861
  206loPI   C2A 3288   3.829   4.331   9.875  0.1849 -0.1018 -0.0867
  206loPI   C3A 3289   3.696   4.212   9.459 -0.1017  0.1327 -0.1351
  206loPI   C4A 3290   3.435   4.378   9.106 -0.2142  0.0932 -0.1341
  206loPI   C5A 3291   3.167   4.338   8.800 -0.1463 -0.0695  0.1518
  206loPI   C6A 3292   2.874   4.120   8.676  0.2312 -0.1618  0.3607
  206loPI   C1B 3293   3.868   5.084  10.203 -0.1558 -0.1298 -0.3410
  206loPI   C2B 3294   3.970   5.121   9.772 -0.0062 -0.3303  0.1978
  206loPI   C3B 3295   3.893   5.269   9.395  0.0934 -0.0572  0.4233
  206loPI   C4B 3296   3.882   5.484   8.987  0.1381  0.3428 -0.2136
  207loPI    C1 3297  10.575   8.123  11.112 -0.1817  0.1521  0.0973
  207loPI    C2 3298  10.655   8.479  11.274  0.0737  0.1809 -0.0859
  207loPI    C3 3299  10.556   8.171  11.508 -0.1371  0.3670  0.0744
  207loPI   PO4 3300  10.835   8.151  10.973 -0.1305 -0.1367  0.1750
  207loPI   GL1 3301  11.007   8.278  10.657  0.1724  0.3786  0.1933
  207loPI   GL2 3302  11.053   7.838  10.615  0.0716 -0.2203 -0.0690
  207loPI   C1A 3303  11.059   8.211  10.240  0.0195  0.3884  0.1431
  207loPI   C2A 3304  11.097   8.251   9.855  0.1216 -0.2815  0.4774
  207loPI   C3A 3305  11.207   8.221   9.503  0.2539  0.1109 -0.0639
  207loPI   C4A 3306  11.024   8.277   9.089  0.0465 -0.0038 -0.0420
  207loPI   C5A 3307  10.943   8.087   8.663 -0.1347  0.0144  0.0690
  207loPI   C6A 3308  11.323   7.937   8.405 -0.0482  0.0792 -0.0431
  207loPI   C1B 3309  11.051   7.707  10.176  0.4535 -0.1183  0.0855
  207loPI   C2B 3310  11.163   7.772   9.667 -0.2065 -0.0268 -0.2907
  207loPI   C3B 3311  11.035   7.785   9.181 -0.0416  0.1363  0.1124
  207loPI   C4B 3312  11.133   7.649   8.864 -0.2054 -0.2228  0.1625
  208loPI    C1 3313  14.177  14.077  11.366 -0.2877 -0.0668  0.0961
  208loPI    C2 3314  14.473  14.105  11.634 -0.0389 -0.4231 -0.1327
  208loPI    C3 3315  14.214  13.800  11.652 -0.2952 -0.2041 -0.0347
  208loPI   PO4 3316  14.327  14.242  11.177 -0.0250 -0.3509  0.0573
  208loPI   GL1 3317  14.267  14.452  10.834 -0.0112  0.1921  0.0959
  208loPI   GL2 3318  14.523  14.759  10.877  0.0748 -0.3003  0.2722
  208loPI   C1A 3319  14.316  14.245  10.520  0.0733  0.0926 -0.0495
  208loPI   C2A 3320  14.173  14.263  10.155 -0.0149  0.3260 -0.0451
  208loPI   C3A 3321  14.144  14.414   9.780 -0.4199 -0.0771  0.0360
  208loPI   C4A 3322  14.350  14.350   9.404 -0.0747  0.0840 -0.3247
  208loPI   C5A 3323  14.229  14.272   9.026 -0.2042 -0.2618  0.1652
  208loPI   C6A 3324  14.269  13.862   8.734 -0.1258  0.3735 -0.3112
  208loPI   C1B 3325  14.326  14.859  10.563  0.1918  0.0599 -0.1315
  208loPI   C2B 3326  14.216  14.852  10.114  0.2439  0.0172  0.1505
  208loPI   C3B 3327  14.219  14.867   9.584 -0.0346 -0.1119  0.1166
  208loPI   C4B 3328  14.291  14.803   9.128 -0.0515  0.0056  0.3005
  209loPI    C1 3329   6.139  17.104  11.752 -0.1390  0.0541  0.0449
  209loPI    C2 3330   6.271  16.767  11.924 -0.0057 -0.0198 -0.1978
  209loPI    C3 3331   5.976  16.977  12.095 -0.0201 -0.2048  0.0079
  209loPI   PO4 3332   6.109  17.102  11.562  0.0569 -0.3861 -0.1378
  209loPI   GL1 3333   6.112  17.032  11.142  0.1448 -0.0186  0.2102
  209loPI   GL2 3334   5.742  16.833  11.170  0.2274 -0.0824  0.0729
  209loPI   C1A 3335   6.183  17.034  10.688 -0.1116  0.0212  0.0197
  209loPI   C2A 3336   6.249  17.024  10.189 -0.3064  0.0748  0.2473
  209loPI   C3A 3337   6.236  17.077   9.736  0.0777  0.3329  0.3437
  209loPI   C4A 3338   6.160  16.997   9.271 -0.5301 -0.0964 -0.0629
  209loPI   C5A 3339   5.822  16.825   8.986  0.1024 -0.0270  0.0056
  209loPI   C6A 3340   5.624  17.036   8.590  0.1559 -0.1408 -0.1306
  209loPI   C1B 3341   5.679  16.789  10.763  0.0796 -0.1447  0.3961
  209loPI   C2B 3342   5.779  16.812  10.394  0.2376 -0.0107 -0.0674
  209loPI   C3B 3343   5.780  16.878   9.885  0.1141  0.1796  0.2128
  209loPI   C4B 3344   5.720  16.745   9.472 -0.0956 -0.1164  0.0967
  210loPI    C1 3345   3.237   9.787  11.701 -0.0487  0.0550 -0.1598
  210loPI    C2 3346   3.177   9.393  11.743  0.0535  0.0820  0.2965
  210loPI    C3 3347   2.918   9.653  11.903 -0.1859  0.2099 -0.2712
  210loPI   PO4 3348   3.400   9.840  11.411 -0.1846 -0.0498 -0.4401
  210loPI   GL1 3349   3.408   9.938  10.946  0.0401 -0.2061  0.1769
  210loPI   GL2 3350   3.302   9.591  10.949 -0.1502  0.0896 -0.0192
  210loPI   C1A 3351   3.461  10.177  10.596  0.1849 -0.0098  0.2392
  210loPI   C2A 3352   3.472  10.244   9.981 -0.2739  0.1103  0.1393
  210loPI   C3A 3353   3.470  10.262   9.540 -0.1886 -0.0851  0.0539
  210loPI   C4A 3354   3.419  10.304   9.140 -0.1278 -0.2321 -0.1998
  210loPI   C5A 3355   3.194  10.423   8.776  0.0956  0.2057 -0.0210
  210loPI   C6A 3356   3.168  10.486   8.362  0.3144 -0.2985  0.1837
  210loPI   C1B 3357   3.575   9.536  10.643 -0.0581  0.0103  0.1545
  210loPI   C2B 3358   3.525   9.715  10.226 -0.3499 -0.2670 -0.0532
  210loPI   C3B 3359   3.424   9.696   9.785  0.0958 -0.2047  0.1212
  210loPI   C4B 3360   3.474   9.766   9.329  0.2517 -0.0330 -0.1049
  211loPI    C1 3361  15.717   0.713  11.386  0.0581 -0.0229 -0.1270
  211loPI    C2 3362  15.421   0.449  11.330  0.1026 -0.0738 -0.1224
  211loPI    C3 3363  15.618   0.459  11.679 -0.0518  0.1199 -0.0387
  211loPI   PO4 3364  15.828   0.662  11.132 -0.0287  0.5195  0.1562
  211loPI   GL1 3365  15.602   0.516  10.789  0.0230  0.0809 -0.0621
  211loPI   GL2 3366  15.243   0.646  10.880 -0.1383 -0.2510 -0.1396
  211loPI   C1A 3367  15.674   0.303  10.456  0.1930  0.3867 -0.0669
  211loPI   C2A 3368  15.559   0.259  10.087 -0.3717  0.0478 -0.1516
  211loPI   C3A 3369  15.633   0.464   9.728 -0.0791 -0.3672 -0.0911
  211loPI   C4A 3370  15.649   0.502   9.310 -0.1541 -0.3049  0.2003
  211loPI   C5A 3371  15.564   0.473   8.872  0.0972 -0.0403 -0.0358
  211loPI   C6A 3372  15.289   0.420   8.574 -0.0209  0.0812  0.0492
  211loPI   C1B 3373  15.108   0.553  10.504  0.0218 -0.0777 -0.1521
  211loPI   C2B 3374  15.150   0.625  10.043 -0.1255  0.0887  0.0289
  211loPI   C3B 3375  15.218   0.677   9.614  0.0356 -0.0728 -0.0339
  211loPI   C4B 3376  15.221   0.721   9.192  0.1624  0.0019 -0.1682
  212loPI    C1 3377   4.711   3.269  11.091  0.2570  0.4192  0.0091
  212loPI    C2 3378   4.693   3.209  11.486  0.1177 -0.1555 -0.0755
  212loPI    C3 3379   4.559   3.552  11.329  0.1000  0.0454  0.3644
  212loPI   PO4 3380   4.630   3.053  10.937  0.1838  0.4073 -0.0461
  212loPI   GL1 3381   4.369   3.117  10.630 -0.2271 -0.3265  0.1819
  212loPI   GL2 3382   4.160   2.908  10.510  0.2050 -0.3603  0.0510
  212loPI   C1A 3383   4.533   2.825  10.220  0.1094  0.2965 -0.0938
  212loPI   C2A 3384   4.567   2.814   9.766  0.0730 -0.2654 -0.2668
  212loPI   C3A 3385   4.646   2.627   9.421  0.1488 -0.0313  0.0058
  212loPI   C4A 3386   4.561   2.532   8.990 -0.1884  0.3467 -0.1910
  212loPI   C5A 3387   4.834   2.500   8.606  0.1618  0.0565  0.0739
  212loPI   C6A 3388   5.202   2.619   8.363 -0.1669  0.1048  0.0922
  212loPI   C1B 3389   4.090   2.910   9.980 -0.2011 -0.2878  0.1083
  212loPI   C2B 3390   4.190   2.982   9.494  0.0847 -0.0390  0.1218
  212loPI   C3B 3391   4.060   2.987   9.052 -0.1843  0.0058  0.4038
  212loPI   C4B 3392   4.148   2.762   8.672 -0.0142  0.0702  0.0113
  213loPI    C1 3393   8.466   6.900  10.879  0.0027 -0.0011  0.0492
  213loPI    C2 3394   8.117   7.082  10.946  0.0309 -0.0154  0.2419
  213loPI    C3 3395   8.378   7.036  11.245  0.0382 -0.3432  0.1893
  213loPI   PO4 3396   8.398   6.739  10.659 -0.1449  0.0030  0.0015
  213loPI   GL1 3397   8.628   6.592  10.375 -0.2741  0.2773  0.0954
  213loPI   GL2 3398   8.974   6.608  10.189  0.0786  0.2333 -0.1576
  213loPI   C1A 3399   8.564   6.525   9.882 -0.0812  0.5232  0.2063
  213loPI   C2A 3400   8.889   6.476   9.639  0.2366 -0.1712  0.1266
  213loPI   C3A 3401   9.287   6.322   9.576 -0.0833 -0.1204 -0.1758
  213loPI   C4A 3402   9.358   6.089   9.330  0.5225  0.0183  0.0295
  213loPI   C5A 3403   9.493   5.619   9.312  0.0672  0.1289  0.2884
  213loPI   C6A 3404   9.503   5.276   9.519  0.1049 -0.2967  0.4643
  213loPI   C1B 3405   9.229   6.752   9.893 -0.1713 -0.1244 -0.0668
  213loPI   C2B 3406   9.580   6.698   9.707 -0.1363 -0.0073  0.0035
  213loPI   C3B 3407   9.813   6.462   9.481  0.2384 -0.2559 -0.0595
  213loPI   C4B 3408   9.868   6.536   9.005 -0.0978 -0.1213 -0.2529
  214loPI    C1 3409   9.236   6.352  10.892 -0.2003  0.1031  0.0629
  214loPI    C2 3410   9.551   6.123  10.800 -0.3164  0.0537 -0.2242
  214loPI    C3 3411   9.414   6.133  11.176  0.1546  0.2380 -0.0493
  214loPI   PO4 3412   9.175   6.355  10.580 -0.2015 -0.1875  0.0961
  214loPI   GL1 3413   9.586   6.286  10.309 -0.1944 -0.2252  0.0599
  214loPI   GL2 3414   9.410   6.337  10.099  0.1541 -0.2252  0.0931
  214loPI   C1A 3415   9.890   6.401  10.045 -0.0830 -0.1067 -0.4195
  214loPI   C2A 3416  10.165   6.302   9.746  0.0695  0.0630  0.2949
  214loPI   C3A 3417  10.252   6.204   9.271  0.1801  0.0495  0.1260
  214loPI   C4A 3418  10.264   6.116   8.892 -0.1469  0.0536  0.3645
  214loPI   C5A 3419  10.249   6.170   8.429 -0.2051  0.0454  0.3674
  214loPI   C6A 3420  10.287   6.058   8.077  0.2314  0.0053  0.2227
  214loPI   C1B 3421   9.648   6.044   9.832  0.1111  0.1920  0.1311
  214loPI   C2B 3422   9.843   5.883   9.546  0.1008  0.1624  0.1815
  214loPI   C3B 3423   9.808   6.024   9.071 -0.1621  0.1244  0.1057
  214loPI   C4B 3424   9.711   6.188   8.648 -0.0784  0.1018 -0.3592
  215loPI    C1 3425   2.389  17.610  11.385  0.0721  0.2656  0.1443
  215loPI    C2 3426   2.524  17.662  11.758  0.0210  0.1276  0.1828
  215loPI    C3 3427   2.212  17.422  11.690  0.1918 -0.0530  0.0214
  215loPI   PO4 3428   2.520  17.620  11.214  0.0755 -0.2262 -0.1442
  215loPI   GL1 3429   2.633  17.848  10.872 -0.0139  0.0731 -0.0450
  215loPI   GL2 3430   2.925  17.835  10.985  0.1403 -0.0473  0.0979
  215loPI   C1A 3431   2.680  17.654  10.468  0.0349 -0.2336 -0.1358
  215loPI   C2A 3432   2.671  17.478  10.081  0.0525  0.1395  0.0629
  215loPI   C3A 3433   2.620  17.523   9.617  0.2834 -0.0327  0.2448
  215loPI   C4A 3434   2.608  17.478   9.088 -0.1282 -0.1644  0.1055
  215loPI   C5A 3435   2.446  17.413   8.737  0.0208 -0.3583 -0.1210
  215loPI   C6A 3436   2.380  17.489   8.361  0.1310  0.1046 -0.0620
  215loPI   C1B 3437   3.129  17.849  10.597 -0.1638  0.1277  0.0811
  215loPI   C2B 3438   3.135  17.843  10.245  0.0660 -0.0512  0.2599
  215loPI   C3B 3439   2.949  17.816   9.856  0.0825 -0.0870  0.1266
  215loPI   C4B 3440   3.097  17.765   9.501 -0.1268 -0.0854  0.1463
  216loPI    C1 3441   5.081  12.525  11.475 -0.1228  0.1811  0.1047
  216loPI    C2 3442   5.416  12.632  11.667  0.0930 -0.3622  0.0498
  216loPI    C3 3443   5.121  12.448  11.866  0.0019 -0.2585  0.0116
  216loPI   PO4 3444   4.945  12.680  11.352 -0.0811  0.4690  0.0933
  216loPI   GL1 3445   4.742  12.633  10.848 -0.0119  0.3912 -0.0516
  216loPI   GL2 3446   5.094  12.773  10.912 -0.4524 -0.1073 -0.0967
  216loPI   C1A 3447   4.822  12.536  10.384 -0.0733 -0.1249  0.0274
  216loPI   C2A 3448   4.853  12.609   9.969  0.2663  0.3302  0.0476
  216loPI   C3A 3449   4.822  12.487   9.549 -0.2169 -0.0423 -0.0603
  216loPI   C4A 3450   4.892  12.429   9.028  0.2139  0.0333  0.1570
  216loPI   C5A 3451   4.955  12.176   8.863 -0.1926  0.2892  0.3328
  216loPI   C6A 3452   5.015  11.884   8.608 -0.1357  0.1381 -0.1744
  216loPI   C1B 3453   5.301  12.904  10.608  0.1613 -0.3706 -0.0264
  216loPI   C2B 3454   5.283  12.877  10.092  0.2652  0.1617 -0.0891
  216loPI   C3B 3455   5.217  12.908   9.669  0.0081 -0.0327 -0.1957
  216loPI   C4B 3456   5.311  12.918   9.290 -0.1691 -0.0518 -0.3910
  217loPI    C1 3457  11.549  16.111  11.245  0.1546 -0.1985 -0.1130
  217loPI    C2 3458  11.778  16.092  11.572  0.0626  0.0694 -0.0311
  217loPI    C3 3459  11.414  16.258  11.591 -0.0865 -0.2306 -0.1914
  217loPI   PO4 3460  11.625  15.876  11.142 -0.0916  0.1676 -0.2684
  217loPI   GL1 3461  11.682  15.755  10.759 -0.0005  0.3665  0.0919
  217loPI   GL2 3462  11.918  15.731  10.530  0.0480  0.2242 -0.0708
  217loPI   C1A 3463  11.499  15.918  10.255  0.0501 -0.1391  0.0860
  217loPI   C2A 3464  11.524  15.978   9.794 -0.1426  0.1299 -0.2020
  217loPI   C3A 3465  11.680  15.972   9.493 -0.1213 -0.2284 -0.0445
  217loPI   C4A 3466  11.627  15.950   9.087 -0.1625 -0.3324  0.1297
  217loPI   C5A 3467  11.635  15.977   8.707 -0.2322 -0.0659 -0.0682
  217loPI   C6A 3468  11.880  16.047   8.391  0.0105 -0.1930  0.1093
  217loPI   C1B 3469  12.038  15.607  10.037 -0.0399 -0.2351  0.1307
  217loPI   C2B 3470  11.972  15.572   9.669  0.2213  0.1480 -0.1658
  217loPI   C3B 3471  12.049  15.715   9.274  0.1460  0.0473  0.1023
  217loPI   C4B 3472  12.107  15.740   8.792  0.0262  0.2523 -0.1529
  218loPI    C1 3473  16.271   4.416  11.123 -0.0997  0.4726 -0.1068
  218loPI    C2 3474  15.933   4.506  11.317 -0.1461 -0.2031  0.1550
  218loPI    C3 3475  16.258   4.400  11.523  0.0367 -0.1834 -0.1181
  218loPI   PO4 3476  16.193   4.194  10.916 -0.0422  0.0370 -0.2374
  218loPI   GL1 3477  16.494   3.905  10.579  0.2459 -0.0127 -0.2017
  218loPI   GL2 3478  16.233   3.905  10.512  0.2742 -0.1847 -0.0090
  218loPI   C1A 3479  16.470   4.037  10.084  0.1486  0.0831  0.0786
  218loPI   C2A 3480  16.511   4.097   9.700 -0.1377 -0.2401  0.2194
  218loPI   C3A 3481  16.569   4.210   9.251 -0.0594  0.1099  0.0108
  218loPI   C4A 3482  16.591   4.050   8.881 -0.1940  0.2600  0.3050
  218loPI   C5A 3483  16.789   4.157   8.461 -0.0545  0.1151 -0.1965
  218loPI   C6A 3484  16.808   4.014   8.107  0.1552  0.1547  0.4510
  218loPI   C1B 3485  16.034   3.783  10.140 -0.1430 -0.0707  0.1988
  218loPI   C2B 3486  16.017   3.828   9.618 -0.2363 -0.0095  0.3519
  218loPI   C3B 3487  16.054   3.934   9.203  0.3004 -0.2715 -0.2536
  218loPI   C4B 3488  15.987   3.814   8.757 -0.1106  0.1521  0.0867
  219loPI    C1 3489  14.940  14.482  11.331 -0.0367 -0.3554 -0.3952
  219loPI    C2 3490  15.272  14.295  11.210  0.1947 -0.1614 -0.0762
  219loPI    C3 3491  15.270  14.693  11.249 -0.0397 -0.1721  0.0392
  219loPI   PO4 3492  14.810  14.491  11.128 -0.1920 -0.1948 -0.0124
  219loPI   GL1 3493  14.860  14.210  10.800  0.1748  0.0207  0.0021
  219loPI   GL2 3494  15.126  14.329  10.670 -0.4501 -0.0569 -0.1456
  219loPI   C1A 3495  14.722  14.557  10.461 -0.1540  0.3254 -0.2046
  219loPI   C2A 3496  14.678  14.709  10.076 -0.0041  0.2086 -0.2195
  219loPI   C3A 3497  14.731  14.594   9.655 -0.0063  0.1502 -0.2292
  219loPI   C4A 3498  14.718  14.610   9.141 -0.2927 -0.2954 -0.0718
  219loPI   C5A 3499  14.577  14.609   8.741  0.3217 -0.3886 -0.0076
  219loPI   C6A 3500  14.247  14.342   8.538 -0.0355 -0.1481  0.1954
  219loPI   C1B 3501  15.148  14.390  10.219 -0.2140  0.1511  0.2154
  219loPI   C2B 3502  15.144  14.334   9.812 -0.4107 -0.3700 -0.0992
  219loPI   C3B 3503  15.162  14.289   9.348 -0.2094  0.1052  0.0520
  219loPI   C4B 3504  15.122  14.366   8.940 -0.1160 -0.0370 -0.0693
  220loPI    C1 3505   9.242  13.783  11.469  0.2689  0.0742  0.0295
  220loPI    C2 3506   9.515  13.522  11.600 -0.1413 -0.3631  0.0445
  220loPI    C3 3507   9.232  13.657  11.848 -0.1127 -0.1352 -0.0442
  220loPI   PO4 3508   9.358  13.872  11.227  0.1694  0.0651 -0.0027
  220loPI   GL1 3509   9.534  13.601  10.968 -0.0034 -0.2344  0.2229
  220loPI   GL2 3510   9.700  13.780  10.747  0.1886  0.0485 -0.1182
  220loPI   C1A 3511   9.247  13.651  10.595  0.0324  0.0339 -0.1380
  220loPI   C2A 3512   9.295  13.699  10.159 -0.1399  0.2296  0.0314
  220loPI   C3A 3513   9.255  13.687   9.749 -0.2227 -0.3362 -0.0166
  220loPI   C4A 3514   9.433  13.589   9.361 -0.1244  0.0780  0.3520
  220loPI   C5A 3515   9.296  13.548   8.920 -0.0593 -0.1941  0.0387
  220loPI   C6A 3516   8.969  13.442   8.542  0.1142 -0.4562  0.0109
  220loPI   C1B 3517   9.695  13.919  10.356  0.2902 -0.4785 -0.0178
  220loPI   C2B 3518   9.790  13.859  10.006  0.3217 -0.1184 -0.0369
  220loPI   C3B 3519   9.782  13.861   9.603  0.0469  0.1863 -0.0006
  220loPI   C4B 3520   9.875  13.826   9.198  0.3705 -0.0441 -0.1901
  221loPI    C1 3521   8.714  15.338  11.601  0.1035  0.2218  0.1469
  221loPI    C2 3522   8.700  15.719  11.481 -0.1745  0.2111  0.1382
  221loPI    C3 3523   8.617  15.626  11.861  0.0574  0.1750  0.1818
  221loPI   PO4 3524   8.696  15.214  11.338 -0.1248 -0.1211  0.1167
  221loPI   GL1 3525   8.575  15.429  11.009 -0.0346 -0.4239  0.1236
  221loPI   GL2 3526   8.881  15.425  10.835 -0.0011 -0.2648 -0.3785
  221loPI   C1A 3527   8.360  15.298  10.644 -0.3256 -0.0444  0.2934
  221loPI   C2A 3528   8.358  15.263  10.214 -0.0371 -0.0887 -0.0180
  221loPI   C3A 3529   8.382  15.181   9.832  0.3146 -0.1162  0.1785
  221loPI   C4A 3530   8.421  15.087   9.450  0.1255  0.1603  0.1759
  221loPI   C5A 3531   8.310  15.263   9.075  0.0861 -0.3148 -0.0517
  221loPI   C6A 3532   8.113  15.562   8.722  0.0351  0.3180  0.2528
  221loPI   C1B 3533   8.800  15.488  10.442  0.1315 -0.3648 -0.2250
  221loPI   C2B 3534   8.820  15.502  10.034  0.2319 -0.1130  0.0612
  221loPI   C3B 3535   8.840  15.384   9.660  0.2204  0.0831 -0.1130
  221loPI   C4B 3536   8.845  15.354   9.151  0.2755  0.1859 -0.0786
  222loPI    C1 3537  12.764  13.504  11.552 -0.3029 -0.3076 -0.1038
  222loPI    C2 3538  12.549  13.531  11.888 -0.0518  0.0062  0.0373
  222loPI    C3 3539  12.923  13.391  11.901 -0.0613 -0.0352 -0.1213
  222loPI   PO4 3540  12.708  13.670  11.439 -0.0567  0.0212 -0.2294
  222loPI   GL1 3541  12.331  13.546  11.046 -0.1242  0.0788 -0.1541
  222loPI   GL2 3542  12.212  13.211  10.962 -0.1242  0.2979  0.2297
  222loPI   C1A 3543  12.449  13.791  10.670 -0.0199  0.1546  0.2970
  222loPI   C2A 3544  12.355  13.868  10.302 -0.2580 -0.1596 -0.1023
  222loPI   C3A 3545  12.456  13.820   9.886 -0.0063 -0.0461  0.4399
  222loPI   C4A 3546  12.491  13.810   9.439  0.2671  0.0905  0.0609
  222loPI   C5A 3547  12.756  13.670   9.040  0.0952  0.1524 -0.3325
  222loPI   C6A 3548  13.145  13.690   8.904 -0.0110 -0.2724 -0.0516
  222loPI   C1B 3549  12.352  13.227  10.469  0.1172 -0.3398  0.0636
  222loPI   C2B 3550  12.401  13.354  10.040 -0.3141  0.2581  0.0764
  222loPI   C3B 3551  12.488  13.328   9.608  0.0858  0.0745  0.1008
  222loPI   C4B 3552  12.483  13.351   9.300 -0.2780 -0.0280  0.0171
  223loPI    C1 3553  12.705   7.217  11.317 -0.1416 -0.1742  0.0954
  223loPI    C2 3554  12.568   7.592  11.350  0.0846 -0.0672 -0.1409
  223loPI    C3 3555  12.607   7.363  11.676 -0.1041  0.0959 -0.0016
  223loPI   PO4 3556  12.978   7.278  11.182 -0.4432 -0.0348 -0.1617
  223loPI   GL1 3557  13.071   7.443  10.764 -0.1122  0.1675 -0.0950
  223loPI   GL2 3558  13.284   7.723  10.722 -0.0452 -0.1033  0.1303
  223loPI   C1A 3559  12.925   7.634  10.370  0.1588 -0.0066 -0.1136
  223loPI   C2A 3560  12.920   7.691   9.866  0.3150  0.1418 -0.4401
  223loPI   C3A 3561  12.908   7.731   9.458 -0.1276  0.1895 -0.1956
  223loPI   C4A 3562  12.961   7.865   9.006  0.0167  0.5665 -0.1444
  223loPI   C5A 3563  13.104   8.126   8.670 -0.1639  0.0208 -0.0645
  223loPI   C6A 3564  13.513   8.227   8.634 -0.0714  0.0977 -0.2251
  223loPI   C1B 3565  13.375   7.883  10.413  0.0098 -0.1195 -0.3876
  223loPI   C2B 3566  13.380   7.830   9.989 -0.1313 -0.1528  0.3060
  223loPI   C3B 3567  13.399   7.961   9.497  0.2370  0.0251 -0.1511
  223loPI   C4B 3568  13.420   8.033   9.086 -0.0616 -0.1737 -0.3231
  224loPI    C1 3569   9.389  14.934  11.367  0.2491  0.0371  0.0904
  224loPI    C2 3570   9.079  15.004  11.610  0.1015 -0.1806 -0.0315
  224loPI    C3 3571   9.451  15.090  11.730 -0.0176  0.2419  0.0503
  224loPI   PO4 3572   9.350  15.067  11.071  0.2005 -0.0726 -0.1832
  224loPI   GL1 3573   9.080  14.996  10.804 -0.2195 -0.1858  0.1828
  224loPI   GL2 3574   8.729  14.969  10.794 -0.1425  0.0235  0.1392
  224loPI   C1A 3575   9.223  15.300  10.401  0.0516  0.2206  0.0316
  224loPI   C2A 3576   9.263  15.233   9.935  0.0531  0.4673 -0.2176
  224loPI   C3A 3577   9.288  15.097   9.460 -0.3127 -0.0108  0.0511
  224loPI   C4A 3578   9.339  15.125   9.083 -0.2211 -0.3517  0.0979
  224loPI   C5A 3579   9.147  15.276   8.686  0.1448  0.1021  0.0222
  224loPI   C6A 3580   9.211  15.498   8.290 -0.0776  0.2177 -0.3773
  224loPI   C1B 3581   8.776  14.938  10.356  0.2832  0.0745  0.3523
  224loPI   C2B 3582   8.791  14.981   9.944 -0.0873  0.0601 -0.1753
  224loPI   C3B 3583   8.840  14.883   9.564 -0.3287  0.1370  0.2497
  224loPI   C4B 3584   8.805  14.864   9.162 -0.2141 -0.2062 -0.0321
  225loPI    C1 3585  17.571  10.461  11.316  0.0565 -0.3866 -0.1418
  225loPI    C2 3586  17.454  10.719  11.599 -0.0126 -0.3292 -0.2220
  225loPI    C3 3587  17.749  10.459  11.674  0.1669 -0.1204 -0.1933
  225loPI   PO4 3588  17.647  10.628  11.089 -0.0607  0.0892 -0.2990
  225loPI   GL1 3589  17.725  10.615  10.643 -0.0096 -0.0802 -0.0331
  225loPI   GL2 3590  18.021  10.532  10.525  0.2338 -0.0351  0.0183
  225loPI   C1A 3591  17.779  10.763  10.175  0.1873 -0.0604 -0.2872
  225loPI   C2A 3592  17.981  10.847   9.802  0.0396 -0.3443  0.0392
  225loPI   C3A 3593  17.823  10.754   9.317  0.1503 -0.2866  0.0307
  225loPI   C4A 3594  17.861  10.669   8.865  0.0184  0.0388  0.1582
  225loPI   C5A 3595  17.935  10.588   8.470 -0.2612  0.0597 -0.0863
  225loPI   C6A 3596  17.921  10.364   8.043 -0.2034  0.2672  0.2346
  225loPI   C1B 3597  18.206  10.422  10.107 -0.2571  0.3537  0.0361
  225loPI   C2B 3598  18.253  10.421   9.637 -0.3987 -0.1555  0.0044
  225loPI   C3B 3599  18.201  10.443   9.201 -0.2405 -0.3096  0.0188
  225loPI   C4B 3600  18.329  10.429   8.833  0.0911  0.1223 -0.3693
  226loPI    C1 3601   6.845  15.819  11.453 -0.1186 -0.1428 -0.1778
  226loPI    C2 3602   6.924  15.638  11.800 -0.0739 -0.1913 -0.2131
  226loPI    C3 3603   6.581  15.838  11.752  0.0137 -0.0035 -0.0679
  226loPI   PO4 3604   6.823  15.649  11.265  0.1022  0.0421 -0.2524
  226loPI   GL1 3605   6.636  15.722  10.961  0.2684  0.1250  0.0011
  226loPI   GL2 3606   6.286  15.536  11.098  0.0404 -0.1783 -0.3268
  226loPI   C1A 3607   6.561  15.734  10.577 -0.3686  0.0737  0.0074
  226loPI   C2A 3608   6.563  15.810  10.157  0.0853 -0.0066  0.1574
  226loPI   C3A 3609   6.534  15.804   9.852  0.4314  0.3116  0.3958
  226loPI   C4A 3610   6.576  15.700   9.450  0.0425  0.6522 -0.0769
  226loPI   C5A 3611   6.517  15.575   9.048 -0.1006  0.0958 -0.1431
  226loPI   C6A 3612   6.046  15.427   8.947 -0.0152  0.1855 -0.1909
  226loPI   C1B 3613   6.082  15.438  10.687 -0.0026  0.2842  0.1004
  226loPI   C2B 3614   6.097  15.492  10.320 -0.0100 -0.1344 -0.0633
  226loPI   C3B 3615   6.156  15.506   9.923 -0.0954 -0.0129 -0.1460
  226loPI   C4B 3616   6.125  15.438   9.436 -0.2250 -0.2111  0.0703
  227loPI    C1 3617   4.499  10.359  11.244 -0.0508  0.0529 -0.2309
  227loPI    C2 3618   4.598  10.371  11.631 -0.0059  0.1696 -0.2457
  227loPI    C3 3619   4.231  10.481  11.515 -0.0660 -0.0029 -0.2208
  227loPI   PO4 3620   4.791  10.321  11.191 -0.0256 -0.3602  0.0455
  227loPI   GL1 3621   4.876  10.451  10.783 -0.0657  0.0920  0.0143
  227loPI   GL2 3622   4.792  10.143  10.764  0.0208  0.1464 -0.1831
  227loPI   C1A 3623   4.863  10.462  10.269  0.2768  0.0763  0.1405
  227loPI   C2A 3624   4.874  10.537   9.855 -0.4076 -0.4212  0.1571
  227loPI   C3A 3625   4.725  10.510   9.389  0.1604  0.1185  0.1595
  227loPI   C4A 3626   4.709  10.828   9.046 -0.2002 -0.0609  0.1011
  227loPI   C5A 3627   4.857  10.787   8.668 -0.1451  0.3005 -0.0583
  227loPI   C6A 3628   4.888  10.757   8.229  0.0995 -0.2239 -0.0857
  227loPI   C1B 3629   4.886   9.974  10.448 -0.0673 -0.1431 -0.0903
  227loPI   C2B 3630   4.918  10.028  10.008  0.2125 -0.0947 -0.2267
  227loPI   C3B 3631   4.824  10.035   9.587  0.2730 -0.0182 -0.0765
  227loPI   C4B 3632   4.722   9.970   9.062 -0.2546 -0.2480  0.0431
  228loPI    C1 3633  10.229   5.716  10.875 -0.0044  0.4530 -0.0719
  228loPI    C2 3634  10.274   5.881  11.236  0.0294  0.0695  0.1047
  228loPI    C3 3635   9.908   5.797  11.099  0.0308 -0.0631  0.1807
  228loPI   PO4 3636  10.351   5.864  10.737  0.0657  0.0839  0.0921
  228loPI   GL1 3637  10.234   6.132  10.357 -0.1056  0.2110  0.1306
  228loPI   GL2 3638   9.950   5.957  10.404 -0.3598  0.0340 -0.0620
  228loPI   C1A 3639  10.524   6.062  10.038  0.1418 -0.5026  0.0936
  228loPI   C2A 3640  10.644   6.318   9.742 -0.1617  0.1091 -0.0253
  228loPI   C3A 3641  10.660   6.538   9.401 -0.0157 -0.2124  0.3003
  228loPI   C4A 3642  10.440   6.598   9.084  0.0476  0.1189 -0.0402
  228loPI   C5A 3643  10.315   6.589   8.622 -0.1094 -0.1888 -0.0456
  228loPI   C6A 3644   9.953   6.699   8.525  0.0251  0.0406 -0.0234
  228loPI   C1B 3645  10.064   5.839  10.018  0.2588  0.2556  0.0125
  228loPI   C2B 3646  10.309   5.723   9.614  0.0917  0.0331  0.1021
  228loPI   C3B 3647  10.640   5.718   9.298  0.1348  0.1852 -0.1058
  228loPI   C4B 3648  10.711   5.751   8.850  0.1205 -0.0356  0.1169
  229loPI    C1 3649  11.515   0.946  11.321 -0.1115 -0.3632 -0.1617
  229loPI    C2 3650  11.817   1.178  11.445 -0.2199 -0.1799 -0.2365
  229loPI    C3 3651  11.797   0.796  11.563  0.0333 -0.1904 -0.2208
  229loPI   PO4 3652  11.539   0.960  11.109 -0.0599  0.1085 -0.2996
  229loPI   GL1 3653  11.721   0.774  10.729  0.1373 -0.2099 -0.0646
  229loPI   GL2 3654  11.974   0.919  10.629 -0.1368 -0.1047 -0.0398
  229loPI   C1A 3655  11.577   0.712  10.360 -0.3868  0.1288 -0.0313
  229loPI   C2A 3656  11.557   0.713   9.906  0.2047 -0.1521 -0.1477
  229loPI   C3A 3657  11.599   0.632   9.465 -0.0047  0.1823  0.4535
  229loPI   C4A 3658  11.638   0.624   9.058  0.1921 -0.0349  0.0250
  229loPI   C5A 3659  11.617   0.758   8.657  0.0069  0.0420 -0.1640
  229loPI   C6A 3660  11.447   1.034   8.447 -0.0406 -0.0097  0.1728
  229loPI   C1B 3661  12.007   0.903  10.177 -0.1345 -0.0133 -0.1859
  229loPI   C2B 3662  12.120   0.889   9.738 -0.1718 -0.1151  0.4468
  229loPI   C3B 3663  12.093   0.974   9.267 -0.1591 -0.2779 -0.0238
  229loPI   C4B 3664  12.152   0.862   8.866 -0.1643 -0.2693  0.2234
  230loPI    C1 3665   6.281   6.683  10.845 -0.1019  0.2204  0.0416
  230loPI    C2 3666   5.957   6.573  10.640 -0.0235 -0.0836  0.0761
  230loPI    C3 3667   6.001   6.458  11.020 -0.1083  0.3719  0.2290
  230loPI   PO4 3668   6.388   6.964  10.760  0.0315  0.0583 -0.2039
  230loPI   GL1 3669   6.489   6.956  10.254  0.3465  0.0464  0.0301
  230loPI   GL2 3670   6.289   6.697  10.263  0.1317  0.4290  0.0469
  230loPI   C1A 3671   6.580   6.972   9.822 -0.4613  0.0689 -0.0357
  230loPI   C2A 3672   6.567   7.341   9.467  0.0483 -0.0526 -0.1200
  230loPI   C3A 3673   6.694   7.389   9.013  0.1778 -0.1701  0.2144
  230loPI   C4A 3674   6.735   7.485   8.580 -0.2331  0.1438  0.1725
  230loPI   C5A 3675   6.703   8.002   8.547  0.2517  0.0218 -0.3252
  230loPI   C6A 3676   7.018   8.302   8.495 -0.0943 -0.1211  0.0686
  230loPI   C1B 3677   6.182   6.492   9.895 -0.2795 -0.0546  0.1713
  230loPI   C2B 3678   6.237   6.709   9.629 -0.0728  0.4218 -0.2178
  230loPI   C3B 3679   6.075   7.111   9.482 -0.1716 -0.0994  0.2326
  230loPI   C4B 3680   5.757   7.453   9.379 -0.1346  0.3137 -0.0689
  231loPI    C1 3681  14.188   0.202  11.605  0.0437  0.2212  0.0770
  231loPI    C2 3682  14.037  -0.071  11.855  0.2126 -0.0420 -0.1027
  231loPI    C3 3683  14.284   0.212  11.993 -0.2229  0.2287  0.1442
  231loPI   PO4 3684  14.111   0.106  11.415 -0.0998  0.0382  0.2326
  231loPI   GL1 3685  14.089   0.067  11.053 -0.3070  0.1869 -0.0423
  231loPI   GL2 3686  13.805   0.322  10.972  0.0067 -0.1595 -0.1024
  231loPI   C1A 3687  14.246   0.132  10.654 -0.1942  0.0230 -0.2216
  231loPI   C2A 3688  14.258   0.003  10.201 -0.1036  0.0514 -0.1412
  231loPI   C3A 3689  14.321   0.193   9.658 -0.1524 -0.2328 -0.1222
  231loPI   C4A 3690  14.285   0.010   9.256 -0.1617 -0.2077 -0.2552
  231loPI   C5A 3691  14.423   0.099   8.826 -0.0920 -0.2993  0.0703
  231loPI   C6A 3692  14.386  -0.093   8.433  0.0059  0.0207 -0.1509
  231loPI   C1B 3693  13.761   0.347  10.576 -0.0071  0.2240  0.0870
  231loPI   C2B 3694  13.905   0.322  10.204 -0.1214 -0.2465  0.0950
  231loPI   C3B 3695  13.874   0.347   9.799 -0.0143 -0.2511  0.1034
  231loPI   C4B 3696  13.880   0.328   9.347 -0.1950  0.1635  0.0005
  232loPI    C1 3697  11.036  13.682  11.282  0.2343  0.1968  0.3843
  232loPI    C2 3698  10.988  13.288  11.233  0.0603  0.2508  0.0945
  232loPI    C3 3699  10.734  13.493  11.464 -0.0536  0.2471 -0.0264
  232loPI   PO4 3700  11.117  13.721  11.010  0.1613  0.1193  0.2327
  232loPI   GL1 3701  10.988  13.677  10.555  0.3667  0.3289 -0.2011
  232loPI   GL2 3702  11.054  14.048  10.362 -0.0749  0.0812 -0.0338
  232loPI   C1A 3703  11.086  13.540  10.119  0.0483  0.0665 -0.0055
  232loPI   C2A 3704  11.148  13.556   9.652  0.0556  0.2439  0.1457
  232loPI   C3A 3705  11.141  13.458   9.182 -0.7039  0.0296 -0.3773
  232loPI   C4A 3706  11.321  13.387   8.748 -0.0148 -0.0739  0.0291
  232loPI   C5A 3707  11.568  13.150   8.484  0.0276  0.1308 -0.0052
  232loPI   C6A 3708  11.993  13.029   8.238 -0.0759  0.3301 -0.1710
  232loPI   C1B 3709  11.100  14.079   9.924 -0.2108 -0.1287  0.0854
  232loPI   C2B 3710  11.109  14.042   9.519 -0.0537  0.1307  0.2934
  232loPI   C3B 3711  11.136  13.941   9.012  0.0475  0.1012  0.0098
  232loPI   C4B 3712  11.389  14.074   8.587 -0.3992 -0.1382 -0.0925
  233loPI    C1 3713   4.447  13.957  11.409 -0.1096 -0.0541  0.0322
  233loPI    C2 3714   4.182  14.254  11.448  0.0001  0.0104  0.3083
  233loPI    C3 3715   4.247  14.001  11.752 -0.0267 -0.2434  0.1067
  233loPI   PO4 3716   4.363  13.815  11.127  0.2643  0.3203  0.0310
  233loPI   GL1 3717   4.499  13.828  10.759 -0.2883  0.0011  0.1227
  233loPI   GL2 3718   4.754  13.587  10.635 -0.0473  0.0286 -0.3820
  233loPI   C1A 3719   4.399  13.929  10.415  0.1514 -0.0320 -0.0811
  233loPI   C2A 3720   4.398  13.970   9.967 -0.1866  0.0125  0.0004
  233loPI   C3A 3721   4.390  13.926   9.603  0.0463 -0.1325  0.3419
  233loPI   C4A 3722   4.438  13.901   9.145 -0.0214 -0.2554 -0.0969
  233loPI   C5A 3723   4.343  13.616   8.894  0.1883 -0.3127 -0.0869
  233loPI   C6A 3724   4.441  13.439   8.512  0.2275 -0.0864  0.0434
  233loPI   C1B 3725   4.817  13.641  10.226  0.2786  0.4209  0.0234
  233loPI   C2B 3726   4.836  13.670   9.824 -0.0371 -0.1687  0.0372
  233loPI   C3B 3727   4.821  13.506   9.356  0.1136  0.4612 -0.0506
  233loPI   C4B 3728   4.942  13.827   8.948 -0.0346 -0.0260 -0.1721
  234loPI    C1 3729   1.624   0.988  11.586 -0.1998  0.2868 -0.0977
  234loPI    C2 3730   1.814   0.894  11.925 -0.2805  0.2330 -0.0668
  234loPI    C3 3731   1.438   1.030  11.938 -0.3208  0.1302 -0.1414
  234loPI   PO4 3732   1.723   0.858  11.378  0.1092  0.0743 -0.0357
  234loPI   GL1 3733   1.530   0.766  10.988 -0.1602 -0.3149  0.1818
  234loPI   GL2 3734   1.324   1.043  11.080 -0.3488 -0.0976  0.1370
  234loPI   C1A 3735   1.743   0.829  10.564  0.1418 -0.0794  0.1876
  234loPI   C2A 3736   1.776   0.781  10.120 -0.3459  0.1204 -0.0561
  234loPI   C3A 3737   1.807   0.739   9.763  0.2116 -0.0761 -0.1839
  234loPI   C4A 3738   1.774   0.603   9.338 -0.0261  0.1403  0.2020
  234loPI   C5A 3739   1.630   0.489   8.936 -0.3252 -0.2492  0.1281
  234loPI   C6A 3740   1.789   0.267   8.510 -0.2108  0.3492 -0.0649
  234loPI   C1B 3741   1.353   1.068  10.621  0.1731 -0.1152 -0.0443
  234loPI   C2B 3742   1.331   1.023  10.265 -0.0218  0.1905  0.0396
  234loPI   C3B 3743   1.381   1.009   9.803  0.1298  0.1237  0.2394
  234loPI   C4B 3744   1.352   0.862   9.341 -0.1441  0.0744  0.0178
  235loPI    C1 3745   5.126   6.449  11.078  0.1065  0.1335  0.0715
  235loPI    C2 3746   4.915   6.174  11.277  0.1088 -0.0094 -0.1202
  235loPI    C3 3747   5.094   6.472  11.476 -0.1501  0.0301  0.0586
  235loPI   PO4 3748   5.160   6.374  10.858 -0.1109  0.1461  0.1713
  235loPI   GL1 3749   5.182   6.393  10.490  0.0904 -0.1476  0.2032
  235loPI   GL2 3750   5.526   6.369  10.249  0.1572  0.0709  0.0599
  235loPI   C1A 3751   4.977   6.362  10.043  0.0640 -0.0116  0.2455
  235loPI   C2A 3752   4.678   6.159   9.758  0.0810  0.2631 -0.1226
  235loPI   C3A 3753   4.329   6.162   9.429  0.3435 -0.1747 -0.3046
  235loPI   C4A 3754   3.875   6.144   9.511 -0.0945  0.0237 -0.0982
  235loPI   C5A 3755   3.574   6.038   9.795  0.0655  0.0495  0.1591
  235loPI   C6A 3756   3.232   5.857   9.965 -0.2329  0.5383 -0.0971
  235loPI   C1B 3757   5.671   6.272   9.846 -0.2192 -0.0170  0.1671
  235loPI   C2B 3758   5.510   6.199   9.423 -0.2058 -0.2286  0.2112
  235loPI   C3B 3759   5.677   6.155   8.985  0.0405 -0.1520  0.4182
  235loPI   C4B 3760   5.718   6.096   8.495  0.0390  0.0171 -0.0568
  236loPI    C1 3761   8.178   7.723  10.914  0.1822  0.0568  0.0730
  236loPI    C2 3762   8.130   8.114  10.848  0.1364  0.0512  0.0727
  236loPI    C3 3763   8.075   7.966  11.215 -0.0851  0.0081  0.0236
  236loPI   PO4 3764   8.017   7.579  10.712 -0.2387 -0.1102 -0.1577
  236loPI   GL1 3765   7.880   7.699  10.395 -0.2851 -0.0353 -0.2383
  236loPI   GL2 3766   7.935   8.110  10.335  0.3443  0.1832  0.0873
  236loPI   C1A 3767   7.981   7.464   9.967  0.2805  0.1888  0.2610
  236loPI   C2A 3768   7.924   7.721   9.609 -0.1010 -0.0904 -0.1130
  236loPI   C3A 3769   7.930   7.663   9.121 -0.0267 -0.0295  0.2101
  236loPI   C4A 3770   7.600   7.653   8.876 -0.2796  0.1004 -0.2735
  236loPI   C5A 3771   7.530   7.889   8.436 -0.0129  0.1422 -0.2652
  236loPI   C6A 3772   7.696   7.870   8.023  0.2224 -0.0684  0.1018
  236loPI   C1B 3773   7.865   8.156   9.898 -0.0103 -0.3255  0.4472
  236loPI   C2B 3774   7.738   8.096   9.356  0.0088 -0.0050 -0.0614
  236loPI   C3B 3775   7.827   8.126   8.908 -0.1388  0.0777  0.2889
  236loPI   C4B 3776   8.133   8.017   8.688 -0.1271 -0.2666  0.1743
  237loPI    C1 3777  10.438   3.475  11.157  0.3182 -0.0146 -0.0775
  237loPI    C2 3778  10.465   3.640  11.521  0.1484 -0.0038 -0.0689
  237loPI    C3 3779  10.527   3.247  11.473  0.1244 -0.0135 -0.0207
  237loPI   PO4 3780  10.284   3.697  10.989  0.0480  0.0367  0.1102
  237loPI   GL1 3781  10.237   3.734  10.631  0.1699  0.2087  0.1002
  237loPI   GL2 3782  10.006   3.851  10.552  0.2784 -0.0802 -0.3051
  237loPI   C1A 3783  10.349   3.644  10.151 -0.0535 -0.1578  0.1697
  237loPI   C2A 3784  10.467   3.569   9.839 -0.2305 -0.1338 -0.1039
  237loPI   C3A 3785  10.678   3.538   9.470 -0.2821  0.2189  0.0563
  237loPI   C4A 3786  11.044   3.533   9.270  0.0818 -0.1188 -0.0895
  237loPI   C5A 3787  11.292   3.291   8.998 -0.0314  0.0230  0.0708
  237loPI   C6A 3788  11.502   3.196   8.672  0.0470  0.0130 -0.2770
  237loPI   C1B 3789   9.838   3.420  10.227  0.0096 -0.1251 -0.2316
  237loPI   C2B 3790   9.479   3.186   9.981 -0.3953 -0.0311 -0.0665
  237loPI   C3B 3791   9.397   2.935   9.671  0.0002 -0.3113  0.0936
  237loPI   C4B 3792   9.575   2.764   9.296 -0.2475 -0.0148 -0.0287
  238loPI    C1 3793  10.156   7.915  11.311 -0.2365 -0.1130 -0.1891
  238loPI    C2 3794  10.410   7.611  11.371 -0.2085 -0.1291 -0.3801
  238loPI    C3 3795  10.143   7.709  11.653 -0.0517 -0.1709 -0.2158
  238loPI   PO4 3796  10.131   7.887  11.017  0.1567  0.0060 -0.3213
  238loPI   GL1 3797  10.189   8.090  10.625 -0.0609 -0.1130 -0.0622
  238loPI   GL2 3798  10.449   8.036  10.659 -0.2506  0.1508  0.2563
  238loPI   C1A 3799  10.197   8.233  10.151 -0.0399  0.0445 -0.1528
  238loPI   C2A 3800  10.180   8.371   9.627 -0.1972  0.1448  0.0222
  238loPI   C3A 3801  10.138   8.421   9.115 -0.1378  0.2038 -0.2641
  238loPI   C4A 3802  10.269   8.397   8.733 -0.1691 -0.1712 -0.0685
  238loPI   C5A 3803  10.465   8.159   8.384  0.0964 -0.2090  0.1546
  238loPI   C6A 3804  10.812   7.842   8.228  0.2238 -0.2611 -0.3904
  238loPI   C1B 3805  10.552   7.973  10.275 -0.2435  0.0462 -0.2068
  238loPI   C2B 3806  10.684   7.941   9.865 -0.0377 -0.2575 -0.1240
  238loPI   C3B 3807  10.734   8.033   9.451 -0.3073 -0.2096  0.0021
  238loPI   C4B 3808  10.551   8.094   9.065  0.0477  0.0312 -0.1087
  239loPI    C1 3809  12.556   3.749  11.195  0.0915 -0.1495 -0.0088
  239loPI    C2 3810  12.168   3.787  11.289  0.1434  0.1444  0.0984
  239loPI    C3 3811  12.390   3.504  11.464 -0.0622 -0.1438 -0.0972
  239loPI   PO4 3812  12.674   3.762  10.989  0.3337 -0.0823 -0.0440
  239loPI   GL1 3813  12.836   3.687  10.619 -0.3129 -0.1235 -0.0928
  239loPI   GL2 3814  13.190   3.783  10.524  0.1536 -0.1625  0.0458
  239loPI   C1A 3815  12.775   3.568  10.202  0.0593  0.2327  0.3547
  239loPI   C2A 3816  12.843   3.659   9.715 -0.1430 -0.1817  0.0085
  239loPI   C3A 3817  13.003   3.600   9.274 -0.1925 -0.2457 -0.0523
  239loPI   C4A 3818  12.860   3.579   8.805  0.2044 -0.2055 -0.0366
  239loPI   C5A 3819  12.583   3.462   8.526 -0.0153 -0.2349 -0.1542
  239loPI   C6A 3820  12.415   3.279   8.183 -0.0635  0.1448 -0.2659
  239loPI   C1B 3821  13.303   3.927  10.220 -0.2248 -0.1478  0.1233
  239loPI   C2B 3822  13.288   3.938   9.695  0.3368 -0.0733  0.0488
  239loPI   C3B 3823  13.435   3.923   9.251 -0.1141  0.5539  0.3364
  239loPI   C4B 3824  13.338   3.701   8.842  0.0351  0.1344  0.2037
  240loPI    C1 3825   0.442  17.567  11.368 -0.0397  0.0076  0.2870
  240loPI    C2 3826   0.417  17.184  11.479 -0.0502 -0.0047  0.2423
  240loPI    C3 3827   0.512  17.465  11.748  0.1804 -0.0673  0.2281
  240loPI   PO4 3828   0.187  17.615  11.220 -0.0338 -0.1446 -0.1199
  240loPI   GL1 3829   0.077  17.466  10.787  0.0090  0.2395  0.0994
  240loPI   GL2 3830   0.352  17.352  10.618 -0.3351  0.2327  0.0818
  240loPI   C1A 3831  -0.037  17.580  10.389 -0.1041  0.0766  0.5687
  240loPI   C2A 3832  -0.197  17.555   9.960 -0.4173 -0.2279  0.1118
  240loPI   C3A 3833  -0.089  17.448   9.555 -0.0431  0.2338 -0.0025
  240loPI   C4A 3834  -0.085  17.529   9.101 -0.0691  0.3395 -0.0294
  240loPI   C5A 3835   0.066  17.658   8.701 -0.2073 -0.0081 -0.3099
  240loPI   C6A 3836  -0.161  17.722   8.287 -0.0633 -0.2888  0.0713
  240loPI   C1B 3837   0.333  17.287  10.198 -0.3554  0.0122 -0.1684
  240loPI   C2B 3838   0.330  17.224   9.784 -0.1458  0.0535 -0.4877
  240loPI   C3B 3839   0.358  17.254   9.312  0.0586 -0.4731 -0.0923
  240loPI   C4B 3840   0.468  17.354   8.811  0.1003 -0.2380 -0.1216
  241loPI    C1 3841  13.559   4.193  11.297 -0.1189 -0.1120 -0.1371
  241loPI    C2 3842  13.292   4.119  11.585 -0.0200 -0.0968 -0.0406
  241loPI    C3 3843  13.672   4.197  11.681 -0.0115  0.0230 -0.1693
  241loPI   PO4 3844  13.435   4.073  11.010  0.0461 -0.1513 -0.1390
  241loPI   GL1 3845  13.620   3.926  10.711  0.4753 -0.0718  0.1512
  241loPI   GL2 3846  13.803   4.102  10.453  0.1406  0.1824  0.2434
  241loPI   C1A 3847  13.674   3.569  10.342  0.0846  0.2535  0.0582
  241loPI   C2A 3848  13.744   3.650   9.859  0.1532  0.1699  0.3081
  241loPI   C3A 3849  13.905   3.612   9.370  0.2088 -0.1809  0.1321
  241loPI   C4A 3850  13.863   3.601   8.937  0.3552 -0.1856 -0.0942
  241loPI   C5A 3851  13.733   3.691   8.557 -0.2441  0.1895 -0.0033
  241loPI   C6A 3852  13.441   3.995   8.331 -0.0554  0.1091 -0.5193
  241loPI   C1B 3853  13.783   4.077  10.017 -0.1087 -0.5594  0.0544
  241loPI   C2B 3854  13.784   4.123   9.532  0.0424  0.0064 -0.2028
  241loPI   C3B 3855  13.819   4.152   9.080 -0.1496 -0.0146  0.0705
  241loPI   C4B 3856  13.814   4.245   8.678  0.0800  0.3345  0.6086
  242loPI    C1 3857   5.196   4.427  11.238  0.1342  0.1103  0.0246
  242loPI    C2 3858   5.523   4.433  11.469  0.0667 -0.3019  0.1399
  242loPI    C3 3859   5.240   4.158  11.531 -0.0517 -0.2883 -0.3030
  242loPI   PO4 3860   5.233   4.465  11.002 -0.1326  0.1869  0.0937
  242loPI   GL1 3861   5.380   4.096  10.625 -0.0536  0.3052 -0.0231
  242loPI   GL2 3862   5.237   3.854  10.565 -0.0529 -0.0273 -0.2991
  242loPI   C1A 3863   5.439   4.164  10.233 -0.0875 -0.2519 -0.1033
  242loPI   C2A 3864   5.363   4.518   9.950 -0.0686 -0.2295  0.1746
  242loPI   C3A 3865   5.214   4.670   9.605 -0.3626 -0.0081  0.0134
  242loPI   C4A 3866   5.102   4.583   9.182  0.1268  0.3952 -0.1774
  242loPI   C5A 3867   5.082   4.671   8.801  0.0891  0.0089  0.0701
  242loPI   C6A 3868   4.674   4.555   8.588 -0.0035  0.0906 -0.2633
  242loPI   C1B 3869   5.009   3.979  10.215  0.1773  0.2098  0.1685
  242loPI   C2B 3870   5.077   4.030   9.741  0.2516  0.2762  0.1671
  242loPI   C3B 3871   5.417   4.213   9.464 -0.2959  0.0692  0.4932
  242loPI   C4B 3872   5.559   4.556   9.246  0.1673 -0.0464 -0.0943
  243loPI    C1 3873   7.771  13.376  11.370 -0.1176  0.2811  0.0795
  243loPI    C2 3874   7.888  13.575  11.697  0.1467  0.1988  0.0379
  243loPI    C3 3875   7.708  13.219  11.733 -0.0791  0.3173  0.1020
  243loPI   PO4 3876   7.635  13.504  11.236  0.0513  0.2307  0.1881
  243loPI   GL1 3877   7.812  13.483  10.821 -0.3862 -0.2073  0.0692
  243loPI   GL2 3878   7.482  13.610  10.781 -0.0165  0.4101 -0.1884
  243loPI   C1A 3879   7.870  13.389  10.509  0.1665  0.0665 -0.2926
  243loPI   C2A 3880   7.928  13.350  10.078 -0.3140  0.1938 -0.3135
  243loPI   C3A 3881   7.993  13.349   9.682 -0.1834  0.0792  0.0244
  243loPI   C4A 3882   8.046  13.396   9.224 -0.3116  0.2502  0.0446
  243loPI   C5A 3883   8.008  13.502   8.766  0.0718 -0.1087  0.1283
  243loPI   C6A 3884   8.309  13.377   8.505 -0.2679  0.0457 -0.1623
  243loPI   C1B 3885   7.501  13.578  10.251 -0.2712 -0.1845  0.0590
  243loPI   C2B 3886   7.573  13.573   9.761  0.0980 -0.0562  0.4291
  243loPI   C3B 3887   7.617  13.722   9.343  0.1872  0.1958 -0.1917
  243loPI   C4B 3888   7.583  13.861   8.877  0.0068  0.2009  0.3037
  244loPI    C1 3889  10.746  14.479  11.271  0.0386  0.0382 -0.0076
  244loPI    C2 3890  10.637  14.737  11.556 -0.1416 -0.1797  0.1247
  244loPI    C3 3891  10.788  14.380  11.657 -0.2212 -0.2642 -0.0525
  244loPI   PO4 3892  10.849  14.672  11.028 -0.3279  0.1690  0.0707
  244loPI   GL1 3893  10.842  14.806  10.687  0.1862 -0.1286 -0.0603
  244loPI   GL2 3894  11.086  14.567  10.588 -0.0946 -0.2816 -0.0964
  244loPI   C1A 3895  10.607  15.016  10.269 -0.2725  0.1560  0.4419
  244loPI   C2A 3896  10.598  14.929   9.800  0.0189 -0.1560  0.1658
  244loPI   C3A 3897  10.641  14.824   9.396  0.0444  0.2283  0.0148
  244loPI   C4A 3898  10.757  14.792   8.957 -0.0333 -0.0413 -0.2439
  244loPI   C5A 3899  10.976  14.877   8.554  0.1913 -0.1816 -0.0904
  244loPI   C6A 3900  10.986  14.983   8.185 -0.1892  0.0067  0.4291
  244loPI   C1B 3901  11.057  14.567  10.167 -0.0340  0.0495  0.1092
  244loPI   C2B 3902  11.032  14.674   9.807 -0.1367 -0.2704 -0.0274
  244loPI   C3B 3903  11.085  14.577   9.358  0.0899  0.2663  0.2761
  244loPI   C4B 3904  11.117  14.433   8.969 -0.1793  0.2878 -0.1911
  245loPI    C1 3905  11.746   8.226  11.279 -0.1925  0.1058 -0.0702
  245loPI    C2 3906  12.034   8.085  11.518 -0.1346  0.0335 -0.1813
  245loPI    C3 3907  11.860   8.436  11.599  0.1746  0.2100 -0.2629
  245loPI   PO4 3908  11.807   8.220  10.946  0.1314  0.2086  0.2722
  245loPI   GL1 3909  11.937   7.878  10.663  0.3865 -0.0237 -0.1335
  245loPI   GL2 3910  12.039   7.662  10.607  0.2155  0.4630  0.0731
  245loPI   C1A 3911  12.028   8.204  10.338 -0.1427 -0.2462  0.0299
  245loPI   C2A 3912  12.142   8.175   9.849  0.0766 -0.1425  0.1781
  245loPI   C3A 3913  12.034   8.298   9.500 -0.0333 -0.0090  0.2138
  245loPI   C4A 3914  12.028   8.334   9.042 -0.0003 -0.0651  0.2903
  245loPI   C5A 3915  11.836   8.596   8.712  0.4504  0.0159  0.2291
  245loPI   C6A 3916  11.840   8.803   8.241 -0.2850 -0.4738  0.0531
  245loPI   C1B 3917  11.948   7.715  10.186 -0.1129  0.0218  0.6439
  245loPI   C2B 3918  12.059   7.636   9.783  0.1406  0.1391  0.0058
  245loPI   C3B 3919  12.043   7.737   9.391 -0.0026 -0.0249  0.0100
  245loPI   C4B 3920  12.129   7.885   8.934  0.1983 -0.1412  0.4365
  246loPI    C1 3921  11.986  12.211  11.436  0.0263  0.0951  0.0411
  246loPI    C2 3922  11.709  12.499  11.434 -0.0791 -0.0031  0.2223
  246loPI    C3 3923  11.623  12.141  11.590  0.0775 -0.1068  0.0729
  246loPI   PO4 3924  12.144  12.329  11.266  0.0112 -0.3902 -0.0273
  246loPI   GL1 3925  12.121  12.313  10.888 -0.0074  0.2477 -0.0722
  246loPI   GL2 3926  12.048  12.009  10.818 -0.4345  0.2157 -0.0844
  246loPI   C1A 3927  12.047  12.401  10.556  0.5006  0.2082  0.1105
  246loPI   C2A 3928  12.011  12.418  10.138  0.2536 -0.1748  0.1061
  246loPI   C3A 3929  12.062  12.523   9.655 -0.1557  0.0522  0.0578
  246loPI   C4A 3930  11.972  12.575   9.157  0.3690 -0.1444  0.0753
  246loPI   C5A 3931  11.904  12.343   8.759 -0.0893  0.0003  0.0665
  246loPI   C6A 3932  11.831  12.572   8.330 -0.1422 -0.0694 -0.0504
  246loPI   C1B 3933  11.983  11.870  10.448  0.2524  0.2926  0.0437
  246loPI   C2B 3934  12.062  11.945   9.986  0.0714  0.5471 -0.1756
  246loPI   C3B 3935  12.067  11.987   9.563 -0.1612  0.1942 -0.0649
  246loPI   C4B 3936  11.957  12.068   9.141 -0.1059  0.0140 -0.0141
  247loPI    C1 3937   9.553  11.203  11.447  0.0567 -0.0380  0.0304
  247loPI    C2 3938   9.435  11.019  11.782  0.2011  0.0691  0.1414
  247loPI    C3 3939   9.269  11.367  11.675  0.0134 -0.0631 -0.0052
  247loPI   PO4 3940   9.580  10.928  11.298  0.0901 -0.1809 -0.0323
  247loPI   GL1 3941   9.283  10.903  10.920 -0.1746 -0.0448 -0.1035
  247loPI   GL2 3942   8.959  10.764  10.886  0.3778 -0.2511 -0.1639
  247loPI   C1A 3943   9.307  10.839  10.507 -0.1266 -0.2829 -0.1169
  247loPI   C2A 3944   9.326  10.906  10.077 -0.0423 -0.0661 -0.2652
  247loPI   C3A 3945   9.370  10.940   9.595 -0.2717  0.1088  0.0016
  247loPI   C4A 3946   9.358  10.908   9.130 -0.3018 -0.1008  0.0852
  247loPI   C5A 3947   9.641  10.749   8.846  0.1529 -0.3524  0.0975
  247loPI   C6A 3948  10.123  10.810   9.005 -0.1758 -0.3141 -0.0419
  247loPI   C1B 3949   8.844  10.652  10.496  0.0359 -0.1708 -0.0112
  247loPI   C2B 3950   8.892  10.591  10.092  0.0529  0.2668  0.2055
  247loPI   C3B 3951   8.862  10.709   9.702 -0.0744 -0.0374  0.0157
  247loPI   C4B 3952   8.897  10.727   9.267  0.1606 -0.0794 -0.2050
  248loPI    C1 3953   2.628   5.940  11.315  0.1068  0.0637  0.0158
  248loPI    C2 3954   2.948   6.046  11.530  0.1403  0.1062 -0.0546
  248loPI    C3 3955   2.581   6.082  11.687  0.1770 -0.0562  0.0710
  248loPI   PO4 3956   2.740   6.013  11.069  0.1029 -0.0649 -0.0814
  248loPI   GL1 3957   2.538   6.045  10.645  0.0444  0.1223  0.0967
  248loPI   GL2 3958   2.529   5.705  10.734 -0.0929  0.0800  0.0181
  248loPI   C1A 3959   2.831   6.066  10.210 -0.0572  0.0986  0.2693
  248loPI   C2A 3960   2.825   5.972   9.778  0.0711 -0.4201  0.0461
  248loPI   C3A 3961   2.678   5.993   9.346 -0.1257  0.0523 -0.1382
  248loPI   C4A 3962   2.901   5.951   8.921 -0.4318 -0.2153  0.0097
  248loPI   C5A 3963   3.080   5.855   8.555 -0.1549  0.0013 -0.1196
  248loPI   C6A 3964   3.155   5.617   8.241  0.0929  0.0279 -0.0772
  248loPI   C1B 3965   2.754   5.605  10.463  0.0337 -0.0767 -0.0763
  248loPI   C2B 3966   2.876   5.523  10.131  0.3531 -0.4132  0.1574
  248loPI   C3B 3967   2.821   5.416   9.741 -0.2394  0.5207  0.1223
  248loPI   C4B 3968   2.688   5.385   9.272 -0.2350 -0.3732  0.1041
  249loPI    C1 3969   1.134   9.278  11.331  0.0834  0.1600 -0.0196
  249loPI    C2 3970   1.156   9.450  11.692  0.1084  0.0430  0.0351
  249loPI    C3 3971   1.070   9.060  11.661 -0.1865  0.1162 -0.0989
  249loPI   PO4 3972   1.333   9.324  11.178  0.0484  0.0824  0.0647
  249loPI   GL1 3973   1.335   9.490  10.810  0.3075  0.0807 -0.1599
  249loPI   GL2 3974   1.239   9.796  10.768  0.2056  0.1173  0.2359
  249loPI   C1A 3975   1.298   9.376  10.422  0.0413 -0.0052 -0.0932
  249loPI   C2A 3976   1.257   9.274   9.978 -0.1700 -0.1094 -0.1067
  249loPI   C3A 3977   1.171   9.246   9.509 -0.1692 -0.1709  0.0998
  249loPI   C4A 3978   1.334   9.443   9.067  0.3669  0.0687 -0.1632
  249loPI   C5A 3979   1.663   9.269   8.726  0.1837 -0.1466  0.2459
  249loPI   C6A 3980   1.714   9.146   8.275  0.1187 -0.0939 -0.6071
  249loPI   C1B 3981   1.237   9.863  10.370 -0.3273 -0.2338  0.0672
  249loPI   C2B 3982   1.293   9.835   9.961  0.1314 -0.1452 -0.0164
  249loPI   C3B 3983   1.273   9.851   9.486  0.0254 -0.0885  0.1974
  249loPI   C4B 3984   1.273   9.960   9.031 -0.0123 -0.0249  0.1370
  250loPI    C1 3985   7.911  16.316  11.627  0.0681  0.0538  0.0738
  250loPI    C2 3986   7.803  16.400  12.003  0.0974  0.1283  0.0659
  250loPI    C3 3987   8.191  16.375  11.907  0.0890 -0.0461  0.0743
  250loPI   PO4 3988   7.700  16.453  11.442  0.1273 -0.1873 -0.0385
  250loPI   GL1 3989   7.591  16.454  11.104 -0.0518 -0.2586 -0.0426
  250loPI   GL2 3990   7.558  16.682  10.971 -0.0792  0.1104 -0.1461
  250loPI   C1A 3991   7.524  16.286  10.754  0.2087  0.2432  0.1636
  250loPI   C2A 3992   7.486  16.264  10.298  0.3276 -0.0436 -0.2173
  250loPI   C3A 3993   7.502  16.310   9.928  0.0464 -0.0168 -0.0455
  250loPI   C4A 3994   7.549  16.276   9.473  0.1632  0.1585  0.2233
  250loPI   C5A 3995   7.485  16.214   8.990 -0.0338  0.0262 -0.0851
  250loPI   C6A 3996   7.478  16.178   8.607  0.0096  0.0573 -0.0032
  250loPI   C1B 3997   7.511  16.747  10.552  0.3294 -0.1159 -0.1341
  250loPI   C2B 3998   7.478  16.803  10.164  0.0493 -0.0806  0.4491
  250loPI   C3B 3999   7.445  16.771   9.638 -0.2069  0.2399 -0.0177
  250loPI   C4B 4000   7.527  16.710   9.212  0.0175 -0.1588  0.0585
  251loPI    C1 4001   0.537  16.098  11.697 -0.1038 -0.4626  0.1347
  251loPI    C2 4002   0.618  15.967  12.066 -0.0521  0.0479  0.3130
  251loPI    C3 4003   0.634  16.358  11.985 -0.0662 -0.0571 -0.2339
  251loPI   PO4 4004   0.571  15.868  11.465  0.2652  0.1793 -0.0671
  251loPI   GL1 4005   0.746  15.866  10.995  0.1344 -0.1769 -0.0946
  251loPI   GL2 4006   0.846  16.029  10.874  0.1718 -0.0869 -0.1346
  251loPI   C1A 4007   0.394  15.664  10.683  0.0483 -0.3791  0.0066
  251loPI   C2A 4008   0.353  15.627  10.218 -0.2290  0.0338  0.1329
  251loPI   C3A 4009   0.285  15.626   9.814 -0.4167  0.2123  0.2652
  251loPI   C4A 4010   0.396  15.730   9.393  0.1996  0.2727 -0.2282
  251loPI   C5A 4011   0.319  15.639   9.000 -0.0623  0.2287  0.1497
  251loPI   C6A 4012   0.251  15.697   8.593 -0.0385  0.0777 -0.2386
  251loPI   C1B 4013   0.729  15.968  10.460 -0.1256  0.0667 -0.2783
  251loPI   C2B 4014   0.841  15.894  10.109 -0.0193 -0.0663  0.1836
  251loPI   C3B 4015   0.788  15.929   9.605  0.2319 -0.0319 -0.1893
  251loPI   C4B 4016   0.827  15.959   9.130 -0.2144  0.0962  0.0219
  252loPI    C1 4017   0.036  13.370  11.299 -0.1446  0.0324  0.0431
  252loPI    C2 4018  -0.209  13.247  11.590 -0.0068 -0.1280  0.0927
  252loPI    C3 4019   0.186  13.260  11.653  0.0092  0.0037 -0.0302
  252loPI   PO4 4020  -0.044  13.678  11.217 -0.0825  0.0493 -0.1200
  252loPI   GL1 4021  -0.132  13.659  10.748 -0.0347  0.0625 -0.2975
  252loPI   GL2 4022  -0.379  13.434  10.925  0.0398 -0.1901  0.2641
  252loPI   C1A 4023  -0.192  13.801  10.420  0.1316  0.0322  0.0230
  252loPI   C2A 4024  -0.165  13.909   9.939  0.1269 -0.0371 -0.0938
  252loPI   C3A 4025  -0.113  13.859   9.506  0.0338 -0.0963 -0.1314
  252loPI   C4A 4026  -0.036  13.826   9.128 -0.2089 -0.0345  0.1555
  252loPI   C5A 4027  -0.370  13.912   8.864 -0.2174 -0.0796 -0.3294
  252loPI   C6A 4028  -0.454  14.159   8.584 -0.0236  0.1225 -0.0753
  252loPI   C1B 4029  -0.598  13.542  10.546 -0.3015 -0.2324 -0.0239
  252loPI   C2B 4030  -0.582  13.659  10.111 -0.1323 -0.1961  0.2205
  252loPI   C3B 4031  -0.528  13.601   9.630  0.0287  0.1247  0.0816
  252loPI   C4B 4032  -0.489  13.565   9.162 -0.2737 -0.0288 -0.0696
  253loPI    C1 4033  13.063   9.911  11.348 -0.0175  0.1382  0.2542
  253loPI    C2 4034  13.373   9.717  11.512  0.1484  0.1607 -0.0270
  253loPI    C3 4035  13.170   9.987  11.726  0.2869  0.1045  0.1777
  253loPI   PO4 4036  13.200   9.892  11.051  0.1176 -0.3562  0.2320
  253loPI   GL1 4037  13.229  10.103  10.649 -0.0392 -0.0608  0.0702
  253loPI   GL2 4038  12.957  10.284  10.543 -0.0844 -0.0234  0.1333
  253loPI   C1A 4039  13.341   9.958  10.291  0.2750  0.2877 -0.2837
  253loPI   C2A 4040  13.394  10.059   9.837  0.0219 -0.3683 -0.1386
  253loPI   C3A 4041  13.321  10.121   9.438  0.1502 -0.1422 -0.0556
  253loPI   C4A 4042  13.282  10.213   8.997  0.0644  0.2354  0.1126
  253loPI   C5A 4043  13.245  10.517   8.670  0.0004  0.2336 -0.3122
  253loPI   C6A 4044  13.357  10.663   8.180  0.0073 -0.4473 -0.0414
  253loPI   C1B 4045  12.895  10.245  10.175 -0.0335 -0.1859  0.1495
  253loPI   C2B 4046  12.892  10.411   9.770  0.0361  0.3048 -0.0421
  253loPI   C3B 4047  12.883  10.400   9.342 -0.1765  0.0701  0.4498
  253loPI   C4B 4048  12.834  10.498   8.926  0.1363 -0.2360 -0.1112
  254loPI    C1 4049   9.483  17.019  11.395 -0.1138 -0.2432 -0.1415
  254loPI    C2 4050   9.850  17.012  11.554 -0.2215 -0.1906  0.1126
  254loPI    C3 4051   9.528  16.989  11.791 -0.3856 -0.0540 -0.0938
  254loPI   PO4 4052   9.557  17.002  11.096 -0.1783 -0.1038 -0.1743
  254loPI   GL1 4053   9.749  17.084  10.648  0.0037  0.1214  0.3583
  254loPI   GL2 4054   9.646  17.450  10.863  0.2234  0.0143 -0.0901
  254loPI   C1A 4055   9.757  17.019  10.262  0.0413  0.1990 -0.1574
  254loPI   C2A 4056   9.787  17.015   9.855  0.1172 -0.1278  0.0026
  254loPI   C3A 4057   9.772  16.875   9.401 -0.2233 -0.1460  0.0179
  254loPI   C4A 4058   9.728  16.955   8.925  0.1024  0.3026  0.0219
  254loPI   C5A 4059   9.683  17.070   8.552  0.1864  0.1849  0.2556
  254loPI   C6A 4060   9.452  17.463   8.476 -0.0562 -0.0896  0.0694
  254loPI   C1B 4061   9.766  17.512  10.321 -0.0757  0.1380  0.1230
  254loPI   C2B 4062   9.771  17.584   9.939  0.0260  0.1292 -0.3614
  254loPI   C3B 4063   9.800  17.516   9.529 -0.1509 -0.2400 -0.2425
  254loPI   C4B 4064   9.763  17.390   9.096  0.1961  0.3112 -0.1165
  255loPI    C1 4065  10.027  11.345  11.421  0.0727  0.0507 -0.2115
  255loPI    C2 4066  10.372  11.547  11.420  0.2205 -0.1945  0.0039
  255loPI    C3 4067  10.227  11.400  11.763 -0.1285 -0.0463 -0.0763
  255loPI   PO4 4068  10.026  11.170  11.215 -0.2576 -0.2722  0.1711
  255loPI   GL1 4069   9.755  11.100  10.860 -0.0515 -0.0981 -0.1418
  255loPI   GL2 4070   9.811  10.879  10.723 -0.3485  0.4494 -0.1340
  255loPI   C1A 4071   9.885  11.289  10.462 -0.1035  0.0043 -0.1062
  255loPI   C2A 4072   9.826  11.118  10.015 -0.0841  0.0028  0.0363
  255loPI   C3A 4073   9.790  11.213   9.576 -0.0044 -0.1455 -0.0505
  255loPI   C4A 4074   9.788  11.215   9.207  0.0945  0.2678  0.0002
  255loPI   C5A 4075   9.527  11.198   8.755  0.2353 -0.3673  0.1110
  255loPI   C6A 4076   9.562  11.229   8.377 -0.0853 -0.0548 -0.4203
  255loPI   C1B 4077   9.794  10.541  10.506 -0.0652  0.2030 -0.1999
  255loPI   C2B 4078   9.749  10.642  10.194 -0.2892  0.0058 -0.1139
  255loPI   C3B 4079   9.798  10.698   9.680 -0.1078  0.2668 -0.0403
  255loPI   C4B 4080   9.797  10.601   9.335 -0.2719  0.0441 -0.2207
  256loPI    C1 4081   4.821   7.288  11.411 -0.0327  0.0667 -0.0031
  256loPI    C2 4082   5.147   7.056  11.400 -0.1766 -0.1435  0.0950
  256loPI    C3 4083   5.051   7.251  11.736  0.0245  0.1797 -0.0302
  256loPI   PO4 4084   4.702   7.239  11.037 -0.0978 -0.1183  0.0945
  256loPI   GL1 4085   4.825   7.424  10.655  0.1801  0.1623  0.3763
  256loPI   GL2 4086   4.555   7.191  10.575 -0.0310 -0.0673 -0.1385
  256loPI   C1A 4087   4.862   7.429  10.231 -0.0994 -0.2377  0.2929
  256loPI   C2A 4088   4.878   7.480   9.811  0.0200  0.0334 -0.1181
  256loPI   C3A 4089   4.797   7.415   9.378 -0.0702  0.0085 -0.1779
  256loPI   C4A 4090   4.867   7.302   8.917 -0.0886 -0.0974  0.2266
  256loPI   C5A 4091   4.859   7.018   8.475 -0.3238 -0.0043 -0.0946
  256loPI   C6A 4092   4.526   6.699   8.232  0.2454 -0.1088 -0.1653
  256loPI   C1B 4093   4.390   7.148  10.244  0.2338  0.1076  0.4055
  256loPI   C2B 4094   4.415   7.143   9.706  0.1621  0.1042  0.0133
  256loPI   C3B 4095   4.386   7.127   9.274  0.2817 -0.2155  0.0804
  256loPI   C4B 4096   4.456   6.958   8.851  0.1473 -0.1256 -0.3774
  257loPI    C1 4097  15.040   1.842  11.562 -0.0173  0.1742 -0.3076
  257loPI    C2 4098  14.654   1.914  11.641  0.0398  0.0858  0.0699
  257loPI    C3 4099  14.848   1.623  11.837  0.3195  0.1811 -0.0600
  257loPI   PO4 4100  15.068   1.727  11.368 -0.1393  0.3009 -0.0258
  257loPI   GL1 4101  15.077   1.805  10.966  0.0201  0.1422 -0.2700
  257loPI   GL2 4102  15.232   1.557  10.958  0.2271 -0.2800  0.3010
  257loPI   C1A 4103  15.118   1.806  10.540  0.0864 -0.0465 -0.2796
  257loPI   C2A 4104  15.228   1.764  10.084  0.3301  0.0795 -0.0410
  257loPI   C3A 4105  15.193   1.728   9.694 -0.1270  0.0740 -0.0939
  257loPI   C4A 4106  15.285   1.676   9.326 -0.1226 -0.1428  0.3578
  257loPI   C5A 4107  15.313   1.754   8.909 -0.0044 -0.3903 -0.1813
  257loPI   C6A 4108  15.382   1.881   8.368 -0.1229  0.0810  0.0613
  257loPI   C1B 4109  15.508   1.481  10.657 -0.0059  0.0740  0.3039
  257loPI   C2B 4110  15.637   1.482  10.166 -0.0007 -0.1144  0.2200
  257loPI   C3B 4111  15.628   1.483   9.797  0.3857 -0.0023  0.2530
  257loPI   C4B 4112  15.747   1.480   9.339  0.0527 -0.0230 -0.0917
  258loPI    C1 4113   4.550   6.426  11.053 -0.0270 -0.1089  0.0475
  258loPI    C2 4114   4.541   6.461  11.452  0.1014  0.2334  0.0243
  258loPI    C3 4115   4.738   6.731  11.232  0.4025 -0.1926 -0.2453
  258loPI   PO4 4116   4.327   6.418  10.920  0.2138  0.0235  0.4294
  258loPI   GL1 4117   4.196   6.485  10.540 -0.0433 -0.1628 -0.3038
  258loPI   GL2 4118   4.105   6.879  10.496  0.0171 -0.1132  0.2718
  258loPI   C1A 4119   4.439   6.580  10.117 -0.1895  0.0135 -0.0614
  258loPI   C2A 4120   4.711   6.840  10.148 -0.0512 -0.3992 -0.1445
  258loPI   C3A 4121   4.898   6.962   9.850 -0.1110 -0.1281 -0.1771
  258loPI   C4A 4122   4.850   6.927   9.344  0.2244  0.2169  0.0027
  258loPI   C5A 4123   4.892   6.794   8.941 -0.2572  0.1499  0.2198
  258loPI   C6A 4124   4.725   6.567   8.675  0.1290 -0.0004  0.3464
  258loPI   C1B 4125   4.041   6.889   9.988 -0.1450  0.1880 -0.1690
  258loPI   C2B 4126   3.991   6.933   9.534 -0.0605 -0.0694  0.1402
  258loPI   C3B 4127   4.122   6.672   9.173 -0.1069  0.1445 -0.1689
  258loPI   C4B 4128   4.040   6.325   9.048  0.0968 -0.0911 -0.1031
  259loPI    C1 4129   8.891   1.475  11.394 -0.1734 -0.1814  0.0149
  259loPI    C2 4130   9.247   1.333  11.509 -0.1962 -0.2654 -0.0177
  259loPI    C3 4131   9.116   1.682  11.652 -0.0483 -0.1766 -0.0967
  259loPI   PO4 4132   8.886   1.484  11.138  0.2548  0.1524 -0.1005
  259loPI   GL1 4133   8.976   1.617  10.806 -0.1251  0.3239  0.0600
  259loPI   GL2 4134   8.720   1.560  10.691 -0.1754 -0.1658 -0.0635
  259loPI   C1A 4135   9.002   1.313  10.414 -0.1955  0.2506 -0.1682
  259loPI   C2A 4136   8.824   1.229   9.984  0.0034 -0.0625  0.0616
  259loPI   C3A 4137   8.823   1.165   9.610 -0.0250 -0.3320  0.2361
  259loPI   C4A 4138   8.792   1.086   9.179 -0.0247  0.1060  0.0701
  259loPI   C5A 4139   8.773   1.161   8.806 -0.3324 -0.1108 -0.0057
  259loPI   C6A 4140   8.661   1.660   8.593 -0.0947 -0.1622 -0.1726
  259loPI   C1B 4141   8.563   1.563  10.290  0.1537  0.0561 -0.2524
  259loPI   C2B 4142   8.410   1.481   9.874  0.1641  0.1041  0.0380
  259loPI   C3B 4143   8.389   1.359   9.401  0.0009  0.4245 -0.0057
  259loPI   C4B 4144   8.439   1.441   8.999 -0.0927 -0.0266 -0.5601
  260loPI    C1 4145   7.502  12.002  11.371  0.2018  0.1765 -0.2221
  260loPI    C2 4146   7.503  12.394  11.448 -0.0095  0.1086  0.1524
  260loPI    C3 4147   7.443  12.132  11.744  0.0640 -0.2065 -0.1049
  260loPI   PO4 4148   7.502  12.013  11.097 -0.0926  0.0322 -0.0197
  260loPI   GL1 4149   7.689  11.714  10.806 -0.0213  0.1048  0.1908
  260loPI   GL2 4150   7.731  12.006  10.669  0.1256 -0.0758 -0.0928
  260loPI   C1A 4151   7.566  11.545  10.467  0.3996 -0.1045 -0.0784
  260loPI   C2A 4152   7.541  11.545  10.158  0.0421  0.2193  0.0004
  260loPI   C3A 4153   7.582  11.481   9.830  0.1211 -0.1484 -0.1251
  260loPI   C4A 4154   7.535  11.470   9.427 -0.1244 -0.0647 -0.1377
  260loPI   C5A 4155   7.662  11.525   9.061 -0.2016  0.0365 -0.0664
  260loPI   C6A 4156   7.870  11.196   8.765 -0.2759  0.0236  0.0517
  260loPI   C1B 4157   7.611  12.007  10.288 -0.1899 -0.1697  0.1383
  260loPI   C2B 4158   7.589  11.972   9.783  0.0584 -0.1454 -0.0002
  260loPI   C3B 4159   7.494  12.136   9.432  0.1509  0.1876  0.2007
  260loPI   C4B 4160   7.400  12.265   9.060  0.0407  0.0983  0.1537
  261loPI    C1 4161  13.668   5.898  10.966 -0.0819 -0.0237 -0.3894
  261loPI    C2 4162  13.695   5.503  11.027 -0.1408  0.0583  0.2345
  261loPI    C3 4163  14.027   5.722  10.976 -0.0854 -0.0172  0.2695
  261loPI   PO4 4164  13.549   5.950  10.787  0.2378  0.0912  0.0049
  261loPI   GL1 4165  13.506   5.975  10.376  0.0463  0.0089  0.2534
  261loPI   GL2 4166  13.247   5.855  10.367 -0.0153  0.1411 -0.1126
  261loPI   C1A 4167  13.740   6.103  10.048 -0.0533  0.2457  0.0704
  261loPI   C2A 4168  13.771   6.200   9.649 -0.3527 -0.1539  0.1995
  261loPI   C3A 4169  13.779   6.267   9.212  0.0254  0.2039 -0.1213
  261loPI   C4A 4170  13.813   6.109   8.912  0.2552 -0.0102 -0.2835
  261loPI   C5A 4171  13.739   6.256   8.498  0.0860 -0.1397  0.0446
  261loPI   C6A 4172  13.579   6.628   8.187  0.0593  0.0278  0.1978
  261loPI   C1B 4173  13.357   5.889   9.832  0.5180  0.0513  0.2127
  261loPI   C2B 4174  13.357   5.974   9.355  0.1462  0.3470  0.2462
  261loPI   C3B 4175  13.316   5.975   8.899 -0.1228  0.4179 -0.2936
  261loPI   C4B 4176  13.227   6.010   8.404 -0.0796 -0.2268 -0.3439
  262loPI    C1 4177   4.706   8.347  11.376 -0.0910 -0.0105 -0.0339
  262loPI    C2 4178   4.747   8.183  11.739 -0.0833 -0.1234 -0.0856
  262loPI    C3 4179   4.978   8.492  11.632 -0.3633  0.1762  0.1554
  262loPI   PO4 4180   4.683   8.197  11.231  0.1214  0.0474 -0.1332
  262loPI   GL1 4181   4.720   8.305  10.842  0.0896  0.1244 -0.2254
  262loPI   GL2 4182   4.442   8.092  10.725 -0.1067 -0.1399  0.1959
  262loPI   C1A 4183   4.842   8.450  10.495  0.2356 -0.2429  0.1344
  262loPI   C2A 4184   4.811   8.406  10.039 -0.4803  0.0918  0.1767
  262loPI   C3A 4185   4.823   8.471   9.614  0.0535 -0.0322  0.0429
  262loPI   C4A 4186   5.008   8.456   9.216 -0.3000  0.3034  0.1070
  262loPI   C5A 4187   5.011   8.406   8.836 -0.0557  0.2077 -0.0007
  262loPI   C6A 4188   5.177   8.603   8.408 -0.0598 -0.2312 -0.1922
  262loPI   C1B 4189   4.337   8.157  10.330 -0.4426 -0.1603 -0.1012
  262loPI   C2B 4190   4.413   8.180   9.872  0.1162 -0.2417 -0.0950
  262loPI   C3B 4191   4.395   8.223   9.374  0.0717  0.0457  0.1616
  262loPI   C4B 4192   4.497   8.377   8.966  0.2151  0.2215  0.1270
  263loPI    C1 4193   6.398   8.814  11.332 -0.2045  0.0327 -0.0262
  263loPI    C2 4194   6.020   8.944  11.335 -0.2613 -0.1325  0.0734
  263loPI    C3 4195   6.285   9.094  11.594 -0.1169  0.3875 -0.3590
  263loPI   PO4 4196   6.421   8.834  11.044 -0.3875  0.0743 -0.1073
  263loPI   GL1 4197   6.135   9.107  10.808  0.2623 -0.0409 -0.0719
  263loPI   GL2 4198   5.898   9.281  10.981 -0.1138 -0.3288  0.1114
  263loPI   C1A 4199   6.225   9.144  10.398 -0.2033 -0.1840 -0.0490
  263loPI   C2A 4200   6.126   9.160   9.975  0.2852  0.2410 -0.2342
  263loPI   C3A 4201   6.194   9.273   9.532  0.1167  0.1695 -0.2708
  263loPI   C4A 4202   6.159   9.232   9.160  0.2184 -0.1243  0.0557
  263loPI   C5A 4203   6.076   9.244   8.674 -0.0792 -0.1707  0.2735
  263loPI   C6A 4204   6.048   9.241   8.288 -0.1045  0.5564  0.2445
  263loPI   C1B 4205   5.756   9.419  10.524 -0.2414 -0.1494 -0.0820
  263loPI   C2B 4206   5.734   9.394  10.170  0.1585 -0.0044 -0.0924
  263loPI   C3B 4207   5.782   9.499   9.755 -0.0996 -0.1136 -0.0546
  263loPI   C4B 4208   5.784   9.536   9.301  0.1853  0.1442 -0.0372
  264loPI    C1 4209   9.775   6.496  11.336  0.0961  0.2115  0.1548
  264loPI    C2 4210   9.873   6.133  11.471  0.0297  0.1052 -0.0774
  264loPI    C3 4211   9.540   6.311  11.602 -0.0018  0.0298 -0.0546
  264loPI   PO4 4212   9.690   6.532  11.065 -0.2351  0.2173  0.0479
  264loPI   GL1 4213   9.633   6.694  10.653 -0.2444 -0.3335 -0.3638
  264loPI   GL2 4214   9.418   6.759  10.591  0.1220  0.4058 -0.4783
  264loPI   C1A 4215   9.717   6.829  10.216 -0.0224  0.0484  0.0111
  264loPI   C2A 4216   9.601   7.155   9.874  0.2079 -0.0760 -0.2209
  264loPI   C3A 4217   9.669   7.208   9.482 -0.0047 -0.1556 -0.2415
  264loPI   C4A 4218   9.618   7.017   9.056 -0.1292 -0.0449  0.0892
  264loPI   C5A 4219   9.520   6.892   8.618 -0.0038 -0.2070  0.2890
  264loPI   C6A 4220   9.512   6.584   8.247 -0.0508  0.1019  0.0816
  264loPI   C1B 4221   9.277   6.994  10.327 -0.3541 -0.0712 -0.0066
  264loPI   C2B 4222   9.163   7.225  10.070 -0.0892 -0.0514 -0.1404
  264loPI   C3B 4223   9.121   7.388   9.655  0.2600  0.0749 -0.1437
  264loPI   C4B 4224   8.843   7.672   9.472 -0.2856 -0.0873 -0.0255
  265loPI    C1 4225   6.357   8.207  11.305 -0.1061 -0.1025 -0.2264
  265loPI    C2 4226   6.416   7.821  11.219  0.1821 -0.1018 -0.0462
  265loPI    C3 4227   6.605   7.988  11.529 -0.0703  0.1440 -0.0204
  265loPI   PO4 4228   6.394   8.309  11.099  0.1136 -0.4735 -0.2991
  265loPI   GL1 4229   6.190   8.152  10.723  0.2863 -0.2771 -0.1900
  265loPI   GL2 4230   6.415   7.955  10.706  0.2791 -0.2304  0.0969
  265loPI   C1A 4231   6.085   8.186  10.309  0.0519 -0.0067 -0.0461
  265loPI   C2A 4232   6.097   8.140   9.927  0.0671 -0.0765  0.2899
  265loPI   C3A 4233   6.178   8.262   9.588 -0.3630  0.1773 -0.0126
  265loPI   C4A 4234   6.217   8.122   9.169  0.0574 -0.4982 -0.3789
  265loPI   C5A 4235   6.380   8.340   8.653 -0.1480 -0.2461  0.3488
  265loPI   C6A 4236   6.342   8.107   8.221 -0.1979 -0.0207  0.1947
  265loPI   C1B 4237   6.601   7.874  10.327  0.4607  0.2680  0.1407
  265loPI   C2B 4238   6.562   7.895   9.865  0.1089 -0.1610  0.1337
  265loPI   C3B 4239   6.532   7.877   9.440  0.2052 -0.1935  0.0027
  265loPI   C4B 4240   6.735   7.856   9.047  0.1092  0.0757 -0.3156
  266loPI    C1 4241   7.126   4.639  11.012 -0.1359  0.1347  0.1321
  266loPI    C2 4242   7.245   4.960  11.219 -0.1434  0.2848 -0.0927
  266loPI    C3 4243   7.027   4.676  11.398  0.2141  0.1983  0.2201
  266loPI   PO4 4244   7.122   4.743  10.774  0.1545 -0.0904 -0.1224
  266loPI   GL1 4245   7.373   4.803  10.378 -0.2623  0.0154 -0.1299
  266loPI   GL2 4246   7.363   5.023  10.230 -0.2988  0.1520  0.0437
  266loPI   C1A 4247   7.234   4.538  10.124  0.1682 -0.1036  0.1208
  266loPI   C2A 4248   7.245   4.150   9.924  0.3163  0.4135 -0.3075
  266loPI   C3A 4249   7.335   3.974   9.433  0.0905  0.1226 -0.3043
  266loPI   C4A 4250   7.772   3.925   9.324 -0.0308  0.0533 -0.0088
  266loPI   C5A 4251   8.150   3.998   9.632 -0.2294  0.3273  0.3004
  266loPI   C6A 4252   8.521   4.135   9.871  0.0465  0.4118 -0.1367
  266loPI   C1B 4253   7.184   5.007   9.756 -0.0528 -0.0328 -0.1540
  266loPI   C2B 4254   7.134   5.035   9.364  0.1929 -0.2717  0.2412
  266loPI   C3B 4255   6.983   5.191   9.029 -0.4730 -0.1716 -0.1769
  266loPI   C4B 4256   6.628   5.306   8.663  0.0883  0.4258 -0.0358
  267loPI    C1 4257  13.220   3.501  10.976 -0.0237  0.1210 -0.0720
  267loPI    C2 4258  13.181   3.432  11.368 -0.1448 -0.0928 -0.1205
  267loPI    C3 4259  13.490   3.646  11.233 -0.0410 -0.1135  0.0810
  267loPI   PO4 4260  13.162   3.414  10.886  0.0438 -0.2226  0.1289
  267loPI   GL1 4261  13.277   2.971  10.636 -0.1964  0.0815 -0.0432
  267loPI   GL2 4262  13.273   3.222  10.449  0.2628  0.2144 -0.1533
  267loPI   C1A 4263  13.312   2.760  10.250 -0.2061  0.2597 -0.0468
  267loPI   C2A 4264  13.358   2.905   9.861  0.1237 -0.0754  0.2292
  267loPI   C3A 4265  13.431   2.733   9.469  0.1319  0.0429 -0.0200
  267loPI   C4A 4266  13.384   2.840   9.033 -0.0625  0.2143  0.4111
  267loPI   C5A 4267  13.300   2.766   8.607  0.3051  0.2749 -0.2009
  267loPI   C6A 4268  13.179   2.408   8.255  0.3716  0.1224 -0.1662
  267loPI   C1B 4269  13.296   3.381  10.022 -0.0234  0.1684 -0.2603
  267loPI   C2B 4270  13.315   3.313   9.624  0.2329 -0.0783 -0.2744
  267loPI   C3B 4271  13.424   3.326   9.113  0.3071  0.2474  0.0022
  267loPI   C4B 4272  13.519   3.239   8.754  0.0048  0.1276 -0.0688
  268loPI    C1 4273  14.545  16.423  11.611  0.0098 -0.2031  0.0072
  268loPI    C2 4274  14.616  16.745  11.836 -0.0416 -0.0457 -0.1987
  268loPI    C3 4275  14.379  16.454  11.973  0.1221 -0.0662  0.0479
  268loPI   PO4 4276  14.563  16.579  11.271  0.5460  0.1742  0.3540
  268loPI   GL1 4277  14.682  16.460  10.892  0.3672  0.0460 -0.1763
  268loPI   GL2 4278  14.500  16.165  10.788 -0.0085 -0.0073 -0.3759
  268loPI   C1A 4279  14.619  16.703  10.530 -0.0459 -0.0366 -0.1534
  268loPI   C2A 4280  14.711  16.671  10.115 -0.1384 -0.5690 -0.3561
  268loPI   C3A 4281  14.751  16.688   9.588 -0.2186 -0.2686  0.1175
  268loPI   C4A 4282  14.822  16.768   9.065  0.2078  0.3243 -0.0209
  268loPI   C5A 4283  14.623  16.700   8.741  0.0026  0.1070 -0.1416
  268loPI   C6A 4284  14.403  16.811   8.405 -0.1991  0.0812 -0.0348
  268loPI   C1B 4285  14.660  16.197  10.417  0.0408 -0.0273  0.2570
  268loPI   C2B 4286  14.614  16.188   9.981  0.1719  0.0158 -0.2482
  268loPI   C3B 4287  14.768  16.172   9.563  0.1389 -0.0800 -0.0960
  268loPI   C4B 4288  14.812  16.182   9.167  0.0077 -0.0085  0.0855
  269loPI    C1 4289   2.152   2.048  11.469 -0.0224  0.1117  0.1133
  269loPI    C2 4290   2.282   2.019  11.847 -0.1469  0.3385  0.1755
  269loPI    C3 4291   1.985   2.272  11.756 -0.4667 -0.0833  0.0151
  269loPI   PO4 4292   2.118   1.803  11.345  0.1792 -0.3228 -0.2888
  269loPI   GL1 4293   1.965   1.794  11.025 -0.2911 -0.1349 -0.1301
  269loPI   GL2 4294   1.804   1.983  10.868 -0.0337 -0.1541 -0.2700
  269loPI   C1A 4295   2.173   1.639  10.754 -0.1173  0.2289 -0.2509
  269loPI   C2A 4296   2.251   1.603  10.433 -0.1877 -0.0182 -0.3264
  269loPI   C3A 4297   2.259   1.606  10.052  0.1756 -0.3945  0.2411
  269loPI   C4A 4298   2.207   1.509   9.688  0.1311 -0.0798  0.2160
  269loPI   C5A 4299   2.242   1.479   9.290  0.0060 -0.2361  0.0611
  269loPI   C6A 4300   2.167   1.508   8.906  0.2716  0.1911  0.2934
  269loPI   C1B 4301   1.787   1.777  10.433  0.1129 -0.1701  0.0204
  269loPI   C2B 4302   1.783   1.772  10.038 -0.3237 -0.1209  0.2261
  269loPI   C3B 4303   1.765   1.759   9.590  0.0212  0.0801  0.3461
  269loPI   C4B 4304   1.761   1.650   9.172  0.1979 -0.1212 -0.1142
  270loPI    C1 4305   1.774  17.593  11.520  0.1124  0.1366 -0.2051
  270loPI    C2 4306   1.583  17.855  11.754  0.1585  0.0738 -0.0969
  270loPI    C3 4307   1.769  17.539  11.916  0.0813 -0.0403 -0.2287
  270loPI   PO4 4308   1.891  17.737  11.313  0.1364 -0.1516  0.2525
  270loPI   GL1 4309   1.893  17.955  10.972  0.2514 -0.0597 -0.1883
  270loPI   GL2 4310   2.096  17.863  10.894 -0.1016  0.0844  0.2192
  270loPI   C1A 4311   1.723  18.129  10.562 -0.4747  0.0457  0.0555
  270loPI   C2A 4312   1.804  18.092  10.109  0.1301  0.0428 -0.1073
  270loPI   C3A 4313   1.721  17.996   9.578 -0.0304 -0.0195 -0.2595
  270loPI   C4A 4314   1.864  17.944   9.182 -0.1587 -0.3734 -0.2780
  270loPI   C5A 4315   2.191  17.803   8.888 -0.1470  0.0885 -0.2233
  270loPI   C6A 4316   2.594  17.888   8.727 -0.0470  0.0827  0.0505
  270loPI   C1B 4317   2.201  17.823  10.498  0.1709 -0.0451  0.1814
  270loPI   C2B 4318   2.239  17.811  10.135  0.1032 -0.0990  0.4324
  270loPI   C3B 4319   2.157  17.741   9.683 -0.1042  0.0586 -0.1610
  270loPI   C4B 4320   2.202  17.566   9.322  0.0714  0.1832  0.0515
  271loPI    C1 4321  12.508  12.978  11.766 -0.2420 -0.2212 -0.0171
  271loPI    C2 4322  12.859  12.872  11.926 -0.0714  0.2178 -0.0843
  271loPI    C3 4323  12.584  13.055  12.151 -0.0040  0.4417 -0.1810
  271loPI   PO4 4324  12.655  12.988  11.504  0.0693  0.2077  0.0291
  271loPI   GL1 4325  12.685  12.954  11.004  0.4842  0.1967  0.0703
  271loPI   GL2 4326  12.741  13.281  11.117 -0.0359 -0.1920 -0.0369
  271loPI   C1A 4327  12.809  12.990  10.599 -0.1596  0.2333 -0.2472
  271loPI   C2A 4328  12.793  13.072  10.205  0.1157  0.0127 -0.0686
  271loPI   C3A 4329  12.892  12.949   9.754  0.0447 -0.0047 -0.0948
  271loPI   C4A 4330  13.028  12.999   9.365 -0.1656  0.0695  0.0649
  271loPI   C5A 4331  12.833  13.217   8.922  0.4878 -0.0489  0.3422
  271loPI   C6A 4332  12.897  13.562   8.523  0.1741 -0.1232 -0.0494
  271loPI   C1B 4333  12.837  13.465  10.766 -0.2476 -0.1080  0.1808
  271loPI   C2B 4334  12.857  13.622  10.297  0.1209 -0.0990 -0.2827
  271loPI   C3B 4335  12.905  13.486   9.824  0.0334 -0.0317 -0.3792
  271loPI   C4B 4336  12.974  13.464   9.437 -0.5231 -0.0477  0.1157
  272loPI    C1 4337   0.528   5.358  11.119  0.1863  0.0858 -0.0068
  272loPI    C2 4338   0.532   5.087  11.413 -0.6072  0.1321  0.0673
  272loPI    C3 4339   0.547   5.477  11.500  0.0756  0.1370 -0.0172
  272loPI   PO4 4340   0.747   5.290  10.935  0.3360  0.2583  0.1175
  272loPI   GL1 4341   0.977   5.114  10.612  0.2045  0.1245  0.1605
  272loPI   GL2 4342   0.813   4.973  10.447  0.0159 -0.0633 -0.0044
  272loPI   C1A 4343   1.196   5.165  10.157 -0.1180 -0.2245 -0.2147
  272loPI   C2A 4344   1.447   5.229   9.753 -0.3240  0.1016  0.1398
  272loPI   C3A 4345   1.406   5.189   9.381  0.0035 -0.2947  0.4589
  272loPI   C4A 4346   1.391   5.071   8.957  0.2574 -0.0570  0.2134
  272loPI   C5A 4347   1.507   5.061   8.550 -0.1253  0.0650  0.3673
  272loPI   C6A 4348   1.863   5.211   8.252  0.1392  0.2170  0.0991
  272loPI   C1B 4349   0.853   4.811  10.006  0.1928 -0.0849 -0.3252
  272loPI   C2B 4350   0.969   5.016   9.612  0.2237 -0.1365  0.0899
  272loPI   C3B 4351   0.961   4.847   9.186  0.0048  0.0334 -0.1919
  272loPI   C4B 4352   0.991   4.952   8.719  0.0628  0.2472  0.1054
  273loPI    C1 4353   5.254   0.123  11.386  0.1100  0.0526  0.0166
  273loPI    C2 4354   5.254  -0.253  11.249 -0.1276  0.1297 -0.2021
  273loPI    C3 4355   5.244  -0.184  11.643 -0.0133 -0.0922 -0.1588
  273loPI   PO4 4356   5.378   0.226  11.238 -0.3496 -0.1942 -0.0641
  273loPI   GL1 4357   5.335   0.405  10.874  0.0234 -0.1408  0.3730
  273loPI   GL2 4358   5.312   0.768  10.874  0.2713  0.3343  0.1810
  273loPI   C1A 4359   5.477   0.175  10.533  0.0387 -0.0710  0.0117
  273loPI   C2A 4360   5.363   0.190  10.122 -0.3521  0.1309  0.0346
  273loPI   C3A 4361   5.307   0.140   9.638 -0.1135  0.1485  0.2816
  273loPI   C4A 4362   5.338   0.123   9.328  0.1585 -0.2009  0.4348
  273loPI   C5A 4363   5.347  -0.032   9.043 -0.2215  0.0306 -0.0448
  273loPI   C6A 4364   5.148  -0.168   8.690 -0.1568 -0.0086 -0.0823
  273loPI   C1B 4365   5.341   0.650  10.379 -0.2260  0.0662 -0.0514
  273loPI   C2B 4366   5.350   0.731   9.913 -0.0855 -0.0435  0.2945
  273loPI   C3B 4367   5.312   0.695   9.467  0.0281 -0.1157 -0.0437
  273loPI   C4B 4368   5.296   0.672   8.975  0.0342 -0.0498  0.0964
  274loPI    C1 4369   1.693   0.248  11.410  0.2408  0.0596 -0.1277
  274loPI    C2 4370   1.566   0.470  11.718  0.0942 -0.2175  0.0152
  274loPI    C3 4371   1.950   0.484  11.607  0.1115  0.0146  0.0986
  274loPI   PO4 4372   1.578   0.308  11.248  0.3046  0.1835  0.2450
  274loPI   GL1 4373   1.304   0.213  11.018  0.0002 -0.1538 -0.0546
  274loPI   GL2 4374   1.320   0.003  10.749 -0.0084 -0.0692  0.0995
  274loPI   C1A 4375   1.330   0.459  10.625  0.1727 -0.0134  0.1212
  274loPI   C2A 4376   1.364   0.415  10.164 -0.0806 -0.1849 -0.1142
  274loPI   C3A 4377   1.406   0.479   9.759 -0.2629  0.1450 -0.4708
  274loPI   C4A 4378   1.313   0.305   9.271  0.1383  0.0846  0.3812
  274loPI   C5A 4379   1.301   0.162   8.826 -0.1451  0.3230  0.0939
  274loPI   C6A 4380   1.383  -0.007   8.389 -0.0416  0.2474  0.2501
  274loPI   C1B 4381   1.303  -0.208  10.296 -0.0983  0.0835  0.1927
  274loPI   C2B 4382   1.382  -0.126   9.945  0.1597  0.0661 -0.2583
  274loPI   C3B 4383   1.300  -0.171   9.612 -0.1428 -0.3179 -0.2347
  274loPI   C4B 4384   1.253  -0.156   9.194  0.0186 -0.2361 -0.0120
  275loPI    C1 4385  13.617  14.053  11.416 -0.0226 -0.0689  0.1502
  275loPI    C2 4386  13.731  13.736  11.632 -0.0300  0.0116  0.2731
  275loPI    C3 4387  13.470  13.998  11.784 -0.0161  0.0822  0.1760
  275loPI   PO4 4388  13.522  14.000  11.255  0.1107  0.1113 -0.2612
  275loPI   GL1 4389  13.254  14.170  10.960 -0.1241 -0.0340 -0.0548
  275loPI   GL2 4390  12.848  14.046  10.917 -0.3993 -0.0885 -0.0956
  275loPI   C1A 4391  13.386  14.296  10.612  0.0152 -0.0411  0.2548
  275loPI   C2A 4392  13.311  14.329  10.164 -0.0707 -0.1943  0.0016
  275loPI   C3A 4393  13.277  14.250   9.736  0.2656 -0.1988 -0.0464
  275loPI   C4A 4394  13.345  14.358   9.263 -0.0466 -0.0151 -0.1937
  275loPI   C5A 4395  13.196  14.196   8.873 -0.3262  0.0357  0.0273
  275loPI   C6A 4396  13.248  13.996   8.546  0.1151  0.0437  0.2623
  275loPI   C1B 4397  12.930  14.074  10.471 -0.0997 -0.2017 -0.0420
  275loPI   C2B 4398  12.843  14.079  10.070  0.1620 -0.2821 -0.0894
  275loPI   C3B 4399  12.952  13.968   9.659 -0.1993  0.0155 -0.1148
  275loPI   C4B 4400  12.956  14.036   9.290  0.3010 -0.0555  0.2258
  276loPI    C1 4401   2.022   2.827  11.828 -0.0013 -0.2354  0.1178
  276loPI    C2 4402   1.940   3.134  12.070 -0.1464 -0.1053 -0.0924
  276loPI    C3 4403   2.271   2.916  12.128 -0.1116  0.0058  0.1398
  276loPI   PO4 4404   2.004   3.043  11.517 -0.5031 -0.0382  0.0055
  276loPI   GL1 4405   2.074   3.009  11.068  0.0142 -0.2144 -0.1438
  276loPI   GL2 4406   2.346   2.907  10.995 -0.0911 -0.0033 -0.1247
  276loPI   C1A 4407   1.847   3.025  10.653  0.0597  0.1349 -0.0656
  276loPI   C2A 4408   1.898   2.875  10.244 -0.1589  0.0758  0.2193
  276loPI   C3A 4409   1.762   2.808   9.806 -0.0287  0.1253  0.1096
  276loPI   C4A 4410   1.820   2.728   9.503 -0.1771  0.1990  0.2570
  276loPI   C5A 4411   1.962   2.681   9.070 -0.1235 -0.0639 -0.2050
  276loPI   C6A 4412   2.132   2.451   8.805 -0.1940 -0.1048  0.0873
  276loPI   C1B 4413   2.249   2.661  10.673  0.0726 -0.1014 -0.2835
  276loPI   C2B 4414   2.322   2.613  10.234 -0.0701  0.1072 -0.0213
  276loPI   C3B 4415   2.358   2.527   9.744 -0.0481 -0.2615 -0.1776
  276loPI   C4B 4416   2.244   2.438   9.341  0.0354 -0.2453 -0.0093
  277loPI    C1 4417   9.835   8.618  11.571 -0.1070 -0.0291 -0.1640
  277loPI    C2 4418  10.233   8.576  11.581 -0.0993  0.0814  0.0363
  277loPI    C3 4419   9.997   8.256  11.622 -0.0315  0.0234 -0.0251
  277loPI   PO4 4420   9.768   8.723  11.318 -0.2119  0.1429  0.1252
  277loPI   GL1 4421   9.787   8.728  10.946  0.2583  0.0392  0.1006
  277loPI   GL2 4422   9.815   9.045  10.701 -0.0939  0.2412 -0.0085
  277loPI   C1A 4423   9.770   8.544  10.510  0.1873  0.0014  0.1539
  277loPI   C2A 4424   9.807   8.609  10.006  0.3232 -0.1024 -0.1531
  277loPI   C3A 4425   9.701   8.619   9.569  0.4577  0.1598  0.1399
  277loPI   C4A 4426   9.695   8.654   9.139  0.1221  0.0839 -0.1430
  277loPI   C5A 4427   9.845   8.710   8.705 -0.0015 -0.3465 -0.0532
  277loPI   C6A 4428  10.057   8.887   8.415  0.0220 -0.1219 -0.0820
  277loPI   C1B 4429   9.756   9.133  10.280 -0.0290 -0.0778 -0.1009
  277loPI   C2B 4430   9.795   9.124   9.790 -0.1426 -0.0317  0.3166
  277loPI   C3B 4431   9.718   9.114   9.351 -0.0013 -0.2573  0.1220
  277loPI   C4B 4432   9.765   9.191   8.900 -0.1603  0.0635 -0.0475
  278loPI    C1 4433   1.685   3.832  11.315 -0.0990  0.0042 -0.0456
  278loPI    C2 4434   1.409   3.615  11.506  0.0929 -0.2526 -0.0550
  278loPI    C3 4435   1.797   3.565  11.590  0.1304  0.2474  0.1026
  278loPI   PO4 4436   1.697   3.798  11.086  0.1735 -0.1853 -0.1248
  278loPI   GL1 4437   1.527   4.029  10.798  0.1952  0.0335 -0.0319
  278loPI   GL2 4438   1.717   4.333  10.780 -0.0645 -0.0783  0.0733
  278loPI   C1A 4439   1.662   3.945  10.339 -0.2607  0.3248 -0.0505
  278loPI   C2A 4440   1.801   3.950   9.904  0.1067 -0.2048  0.1870
  278loPI   C3A 4441   1.898   3.832   9.469  0.0902  0.0642  0.1466
  278loPI   C4A 4442   1.950   3.788   9.044  0.1001 -0.1871 -0.2315
  278loPI   C5A 4443   1.828   3.532   8.724  0.2417 -0.0498 -0.1596
  278loPI   C6A 4444   1.339   3.364   8.624  0.2667 -0.0302 -0.2500
  278loPI   C1B 4445   1.646   4.407  10.352  0.0954 -0.2291  0.0435
  278loPI   C2B 4446   1.795   4.454   9.924  0.1466  0.0201 -0.5386
  278loPI   C3B 4447   1.912   4.366   9.500  0.0912 -0.0632 -0.2830
  278loPI   C4B 4448   1.901   4.264   9.126  0.0923  0.3280  0.2707
  279loPI    C1 4449   1.896   6.413  11.008  0.1517 -0.0689  0.1711
  279loPI    C2 4450   1.635   6.188  10.804  0.2258  0.1626 -0.1883
  279loPI    C3 4451   1.659   6.155  11.202  0.1139 -0.3348 -0.2156
  279loPI   PO4 4452   1.793   6.646  10.937 -0.3458  0.0461 -0.0872
  279loPI   GL1 4453   1.574   6.813  10.629  0.1096 -0.1923 -0.0300
  279loPI   GL2 4454   1.428   6.553  10.575  0.1561  0.1347  0.1128
  279loPI   C1A 4455   1.740   6.986  10.247 -0.1580 -0.0587 -0.0512
  279loPI   C2A 4456   1.718   7.018   9.843  0.0078  0.0284  0.0384
  279loPI   C3A 4457   1.873   6.998   9.351 -0.1157 -0.2057  0.2177
  279loPI   C4A 4458   1.856   7.065   8.891 -0.2840  0.0367 -0.5570
  279loPI   C5A 4459   2.129   7.011   8.486 -0.1476 -0.0508 -0.2284
  279loPI   C6A 4460   2.253   7.151   8.016  0.1486  0.0555  0.0111
  279loPI   C1B 4461   1.278   6.610  10.103 -0.2873 -0.0834 -0.0415
  279loPI   C2B 4462   1.313   6.811   9.738 -0.4406  0.1909 -0.2233
  279loPI   C3B 4463   1.418   6.765   9.311 -0.1957  0.2437  0.2551
  279loPI   C4B 4464   1.398   6.716   8.925 -0.3533  0.1750  0.0023
  280loPI    C1 4465   9.757   0.364  11.468  0.2101 -0.1188 -0.0776
  280loPI    C2 4466  10.065   0.606  11.550  0.2345 -0.2429  0.2060
  280loPI    C3 4467   9.925   0.357  11.831 -0.0043 -0.3216  0.0203
  280loPI   PO4 4468   9.725   0.435  11.184  0.0957 -0.1285 -0.1040
  280loPI   GL1 4469   9.588   0.087  10.929  0.2221 -0.2033 -0.1117
  280loPI   GL2 4470   9.247  -0.084  10.850  0.0253  0.0870 -0.0497
  280loPI   C1A 4471   9.783   0.072  10.596  0.0759 -0.1593 -0.0525
  280loPI   C2A 4472   9.791   0.158  10.145  0.0964  0.0069  0.2987
  280loPI   C3A 4473   9.825   0.175   9.810  0.1903  0.2117  0.0044
  280loPI   C4A 4474   9.773   0.146   9.420 -0.1062 -0.0294  0.1224
  280loPI   C5A 4475   9.827   0.176   9.052 -0.0230  0.0729  0.1044
  280loPI   C6A 4476   9.592  -0.042   8.706  0.1589  0.1147  0.3000
  280loPI   C1B 4477   9.387  -0.088  10.385  0.2042  0.2261 -0.0955
  280loPI   C2B 4478   9.344  -0.098  10.022 -0.0391  0.2991  0.0788
  280loPI   C3B 4479   9.416  -0.071   9.704 -0.0343  0.0649  0.1374
  280loPI   C4B 4480   9.316  -0.153   9.355  0.2727 -0.4151  0.2255
  281loPI    C1 4481   1.237  12.694  11.652 -0.0587  0.2185 -0.0766
  281loPI    C2 4482   1.574  12.694  11.866 -0.0928  0.0432 -0.0213
  281loPI    C3 4483   1.234  12.560  12.029 -0.1494  0.0442 -0.1379
  281loPI   PO4 4484   1.266  12.653  11.435  0.0256 -0.0085  0.3420
  281loPI   GL1 4485   1.248  12.519  10.873 -0.0939  0.0335  0.1299
  281loPI   GL2 4486   1.241  12.268  10.839  0.1703  0.0796  0.1193
  281loPI   C1A 4487   1.306  12.567  10.453 -0.0022 -0.0366  0.0920
  281loPI   C2A 4488   1.339  12.529   9.892  0.2317 -0.0447 -0.0295
  281loPI   C3A 4489   1.298  12.488   9.521  0.2288 -0.0639  0.0823
  281loPI   C4A 4490   1.317  12.550   9.086 -0.1231 -0.1623 -0.0853
  281loPI   C5A 4491   1.549  12.766   8.889 -0.0308  0.0245  0.0014
  281loPI   C6A 4492   1.706  13.153   8.841  0.2300 -0.2510  0.1554
  281loPI   C1B 4493   1.353  12.066  10.459 -0.2354  0.0997 -0.2523
  281loPI   C2B 4494   1.268  12.010  10.103 -0.1460  0.1750  0.0106
  281loPI   C3B 4495   1.294  12.001   9.707 -0.5120 -0.0269  0.0367
  281loPI   C4B 4496   1.291  12.075   9.231 -0.0141  0.0191  0.0893
  282loPI    C1 4497   6.642   0.397  11.341  0.4864 -0.3248  0.0169
  282loPI    C2 4498   6.468   0.056  11.458 -0.0895 -0.0937 -0.1340
  282loPI    C3 4499   6.646   0.294  11.727 -0.2930 -0.1782  0.0787
  282loPI   PO4 4500   6.847   0.246  11.080 -0.3733 -0.1489  0.2328
  282loPI   GL1 4501   7.032   0.233  10.654 -0.2100  0.1476  0.2610
  282loPI   GL2 4502   6.907  -0.085  10.768 -0.0149 -0.0489  0.4256
  282loPI   C1A 4503   7.001   0.154  10.252  0.0370 -0.2437 -0.1317
  282loPI   C2A 4504   7.043   0.135   9.728 -0.3717 -0.0139  0.3082
  282loPI   C3A 4505   7.025   0.083   9.270  0.0000 -0.0320 -0.2673
  282loPI   C4A 4506   7.162   0.044   8.824 -0.1552 -0.0484 -0.2062
  282loPI   C5A 4507   7.134  -0.272   8.632  0.1059 -0.1387  0.2225
  282loPI   C6A 4508   7.178  -0.724   8.463  0.1331  0.4518  0.0789
  282loPI   C1B 4509   6.623  -0.045  10.478 -0.0551  0.0150  0.2396
  282loPI   C2B 4510   6.643  -0.078   9.947  0.1703  0.2003 -0.1810
  282loPI   C3B 4511   6.605  -0.074   9.485  0.1145  0.2781 -0.1247
  282loPI   C4B 4512   6.689  -0.067   8.924 -0.2005 -0.0443  0.1633
  283loPI    C1 4513   6.038  16.557  11.537  0.0211  0.1500 -0.1048
  283loPI    C2 4514   6.236  16.269  11.730 -0.0676  0.0902 -0.1024
  283loPI    C3 4515   5.863  16.362  11.839 -0.0253  0.2326 -0.0779
  283loPI   PO4 4516   6.245  16.550  11.280  0.0948  0.1826 -0.1869
  283loPI   GL1 4517   6.324  16.609  10.920 -0.1041  0.2228 -0.1227
  283loPI   GL2 4518   6.722  16.732  11.008 -0.1359 -0.0132  0.1447
  283loPI   C1A 4519   6.198  16.553  10.457 -0.0070 -0.2939 -0.0431
  283loPI   C2A 4520   6.118  16.535   9.989  0.2489  0.0656  0.0622
  283loPI   C3A 4521   6.206  16.523   9.582 -0.2164 -0.2139  0.0819
  283loPI   C4A 4522   6.103  16.423   9.203  0.1669 -0.2312 -0.0223
  283loPI   C5A 4523   5.745  16.308   8.984 -0.0912  0.2429 -0.0860
  283loPI   C6A 4524   5.454  16.147   8.801  0.0894 -0.0668 -0.1682
  283loPI   C1B 4525   6.631  16.799  10.547  0.1334 -0.0998  0.3658
  283loPI   C2B 4526   6.665  16.828  10.157  0.0078  0.2775 -0.1368
  283loPI   C3B 4527   6.614  16.764   9.766  0.3047  0.0021  0.1477
  283loPI   C4B 4528   6.618  16.705   9.290 -0.0082  0.1292 -0.0464
  284loPI    C1 4529   6.980  15.080  11.633 -0.2199 -0.0378  0.0356
  284loPI    C2 4530   6.795  15.177  11.974 -0.1568  0.0764  0.0380
  284loPI    C3 4531   6.936  14.807  11.922 -0.2394  0.0353  0.1022
  284loPI   PO4 4532   7.149  15.280  11.531  0.4873 -0.0220 -0.0324
  284loPI   GL1 4533   7.494  15.235  11.239 -0.2580 -0.2695 -0.0587
  284loPI   GL2 4534   7.835  15.425  11.268 -0.0733  0.0100 -0.3568
  284loPI   C1A 4535   7.460  15.238  10.839  0.0699 -0.2975  0.1453
  284loPI   C2A 4536   7.498  15.198  10.393  0.2017 -0.1732 -0.3077
  284loPI   C3A 4537   7.476  15.234   9.947  0.0268 -0.0293 -0.0652
  284loPI   C4A 4538   7.531  15.289   9.519  0.0136  0.1614  0.0188
  284loPI   C5A 4539   7.477  15.211   9.017  0.3495 -0.0502 -0.3347
  284loPI   C6A 4540   7.297  14.942   8.771  0.0656  0.1454 -0.0513
  284loPI   C1B 4541   7.933  15.353  10.887  0.1941 -0.4000  0.0263
  284loPI   C2B 4542   7.948  15.547  10.433 -0.0172 -0.1700 -0.0356
  284loPI   C3B 4543   7.923  15.581   9.958 -0.1643 -0.2070  0.2357
  284loPI   C4B 4544   8.064  15.413   9.495 -0.3046 -0.2554 -0.2286
  285loPI    C1 4545  16.585   6.249  11.293 -0.2247  0.0170  0.0633
  285loPI    C2 4546  16.742   6.224  11.660 -0.1530 -0.1226  0.0240
  285loPI    C3 4547  16.534   6.549  11.553 -0.0986 -0.0427  0.1579
  285loPI   PO4 4548  16.804   6.304  11.110 -0.0666 -0.1162 -0.0263
  285loPI   GL1 4549  16.870   6.495  10.711  0.0031 -0.0568  0.2373
  285loPI   GL2 4550  16.545   6.228  10.615 -0.2309 -0.0927 -0.1408
  285loPI   C1A 4551  16.844   6.392  10.238 -0.0653  0.2019 -0.1936
  285loPI   C2A 4552  16.972   6.386   9.814  0.1039  0.2516 -0.2719
  285loPI   C3A 4553  16.972   6.435   9.364  0.0956  0.0308 -0.2250
  285loPI   C4A 4554  17.041   6.608   8.949  0.0948 -0.1359 -0.2323
  285loPI   C5A 4555  17.055   6.606   8.563  0.1649 -0.2654  0.0869
  285loPI   C6A 4556  16.685   6.421   8.384 -0.1294 -0.2171 -0.3097
  285loPI   C1B 4557  16.435   6.094  10.289  0.1655  0.1430 -0.4644
  285loPI   C2B 4558  16.543   6.137   9.833  0.2774  0.0767  0.1234
  285loPI   C3B 4559  16.508   6.225   9.346 -0.3494 -0.2608  0.0235
  285loPI   C4B 4560  16.574   6.373   8.885  0.0732  0.0925 -0.0829
  286loPI    C1 4561  12.096  14.189  11.658  0.1345 -0.2531 -0.1058
  286loPI    C2 4562  11.847  14.252  11.965  0.0092 -0.1910 -0.2192
  286loPI    C3 4563  12.230  14.362  11.993 -0.1180  0.2873 -0.2724
  286loPI   PO4 4564  11.875  14.163  11.407 -0.2187  0.1711 -0.1326
  286loPI   GL1 4565  11.958  14.392  10.943 -0.2414  0.1175  0.1890
  286loPI   GL2 4566  11.969  14.089  10.878 -0.2018  0.2068 -0.0171
  286loPI   C1A 4567  12.032  14.498  10.528 -0.1943  0.0027 -0.0548
  286loPI   C2A 4568  11.995  14.633  10.041  0.1261  0.0466  0.1919
  286loPI   C3A 4569  11.997  14.572   9.658  0.2078  0.0564  0.2323
  286loPI   C4A 4570  12.139  14.581   9.206  0.2665 -0.1986 -0.3364
  286loPI   C5A 4571  12.379  14.478   8.852  0.0005  0.0758 -0.0651
  286loPI   C6A 4572  12.685  14.163   8.932  0.3194  0.5964  0.1266
  286loPI   C1B 4573  11.882  14.018  10.429 -0.1168 -0.2618  0.0641
  286loPI   C2B 4574  11.982  14.123   9.997  0.2595  0.0618  0.3542
  286loPI   C3B 4575  12.047  14.073   9.517 -0.1053 -0.0507 -0.2642
  286loPI   C4B 4576  12.141  14.019   9.074 -0.1343 -0.3249  0.1819
  287loPI    C1 4577  15.512   7.725  11.269  0.1577 -0.0587  0.0092
  287loPI    C2 4578  15.558   7.570  11.635  0.3837 -0.0316 -0.0059
  287loPI    C3 4579  15.455   7.954  11.592  0.0143 -0.1225  0.0298
  287loPI   PO4 4580  15.470   7.587  11.028  0.4984 -0.1356 -0.2061
  287loPI   GL1 4581  15.312   7.592  10.552 -0.1388  0.0263 -0.0622
  287loPI   GL2 4582  15.124   7.447  10.338 -0.2721  0.0384 -0.0106
  287loPI   C1A 4583  15.531   7.811  10.098  0.1286  0.1919  0.1810
  287loPI   C2A 4584  15.560   7.806   9.623 -0.1844 -0.3455  0.0364
  287loPI   C3A 4585  15.612   7.862   9.283  0.2080 -0.2511  0.1084
  287loPI   C4A 4586  15.634   7.879   8.736  0.1135  0.1172 -0.1631
  287loPI   C5A 4587  15.576   8.023   8.251  0.1102  0.1018 -0.2402
  287loPI   C6A 4588  15.547   7.899   7.804 -0.1267 -0.1359 -0.0381
  287loPI   C1B 4589  15.095   7.485   9.947 -0.0276  0.1235  0.1197
  287loPI   C2B 4590  15.107   7.568   9.517  0.1359 -0.1697 -0.2457
  287loPI   C3B 4591  15.284   7.574   8.950 -0.1103  0.1707 -0.0423
  287loPI   C4B 4592  15.205   7.636   8.565 -0.2338  0.2131 -0.2695
  288loPI    C1 4593   7.401  11.120  11.319 -0.2550 -0.0466  0.0020
  288loPI    C2 4594   7.199  10.834  11.511 -0.2118 -0.2029 -0.1831
  288loPI    C3 4595   7.533  10.985  11.671 -0.2359 -0.2542 -0.0837
  288loPI   PO4 4596   7.480  11.059  11.057  0.0368 -0.2624 -0.1341
  288loPI   GL1 4597   7.579  10.816  10.669  0.0444  0.1429  0.1119
  288loPI   GL2 4598   7.211  10.883  10.584  0.0426  0.1080 -0.3175
  288loPI   C1A 4599   7.642  11.025  10.278  0.1612  0.0927 -0.2251
  288loPI   C2A 4600   7.559  10.935   9.846 -0.1317  0.0285  0.2224
  288loPI   C3A 4601   7.487  10.962   9.374 -0.0385  0.2390 -0.2677
  288loPI   C4A 4602   7.495  11.025   8.987  0.0981  0.0493  0.1319
  288loPI   C5A 4603   7.375  11.332   8.693 -0.0449  0.2861  0.1246
  288loPI   C6A 4604   7.260  11.169   8.369 -0.1234 -0.3325  0.0740
  288loPI   C1B 4605   7.124  10.761  10.151  0.0845  0.1610 -0.1687
  288loPI   C2B 4606   7.030  10.762   9.714 -0.0489 -0.0042 -0.2588
  288loPI   C3B 4607   7.054  10.761   9.240  0.2017  0.4444  0.1463
  288loPI   C4B 4608   7.055  10.864   8.836 -0.4139 -0.0430 -0.0061
  289loPI    C1 4609   8.510   9.093  11.304  0.1015  0.1324  0.0138
  289loPI    C2 4610   8.461   8.733  11.471 -0.0064  0.0442 -0.2039
  289loPI    C3 4611   8.413   9.064  11.691  0.0772 -0.0731 -0.0068
  289loPI   PO4 4612   8.483   9.010  11.061  0.0544  0.0954 -0.2048
  289loPI   GL1 4613   8.466   9.158  10.621  0.3285 -0.2493  0.0448
  289loPI   GL2 4614   8.414   8.888  10.511  0.0151  0.0838  0.1001
  289loPI   C1A 4615   8.434   9.360  10.248  0.3713 -0.0535  0.0487
  289loPI   C2A 4616   8.352   9.342   9.867  0.0333 -0.2131  0.0388
  289loPI   C3A 4617   8.369   9.518   9.461  0.1814 -0.0933 -0.0812
  289loPI   C4A 4618   8.328   9.468   8.944  0.1619  0.0159  0.1788
  289loPI   C5A 4619   8.002   9.713   8.809 -0.0214  0.1575  0.0062
  289loPI   C6A 4620   7.822   9.849   8.412  0.3303 -0.0562  0.0236
  289loPI   C1B 4621   8.473   8.826  10.031  0.0424 -0.0944  0.0525
  289loPI   C2B 4622   8.356   8.897   9.611  0.1114  0.1220  0.0917
  289loPI   C3B 4623   8.382   9.044   9.196 -0.0856 -0.1632 -0.0337
  289loPI   C4B 4624   8.381   9.008   8.789  0.1313  0.0787 -0.0498
  290loPI    C1 4625   8.576  14.835  11.671  0.1051 -0.1682 -0.0025
  290loPI    C2 4626   8.442  14.698  12.022  0.0670 -0.0541  0.0281
  290loPI    C3 4627   8.815  14.839  11.992 -0.0066  0.1554  0.0808
  290loPI   PO4 4628   8.498  14.659  11.453 -0.0160  0.2999 -0.1092
  290loPI   GL1 4629   8.508  14.499  11.005  0.1359 -0.2531 -0.2473
  290loPI   GL2 4630   8.823  14.383  10.830  0.1535  0.1820 -0.0565
  290loPI   C1A 4631   8.360  14.699  10.548 -0.0179  0.1701  0.0051
  290loPI   C2A 4632   8.387  14.696  10.083 -0.3240 -0.1795 -0.0567
  290loPI   C3A 4633   8.454  14.642   9.650 -0.1094 -0.1622 -0.1047
  290loPI   C4A 4634   8.421  14.594   9.249 -0.1281 -0.3186 -0.2890
  290loPI   C5A 4635   8.363  14.682   8.858  0.1492  0.1596  0.3320
  290loPI   C6A 4636   8.223  14.448   8.497 -0.1317  0.0333  0.1378
  290loPI   C1B 4637   8.839  14.431  10.351 -0.0458 -0.1473 -0.0082
  290loPI   C2B 4638   8.802  14.394   9.928 -0.0102  0.1270  0.2017
  290loPI   C3B 4639   8.854  14.411   9.421 -0.1551  0.0835 -0.2635
  290loPI   C4B 4640   8.872  14.391   9.000 -0.7498  0.1759 -0.1124
  291loPI    C1 4641  13.675   9.093  11.366 -0.2551  0.2539 -0.0222
  291loPI    C2 4642  13.578   9.278  11.706 -0.1259  0.0668  0.1192
  291loPI    C3 4643  13.960   9.189  11.630 -0.1509  0.1314 -0.0887
  291loPI   PO4 4644  13.528   9.129  11.225  0.0973  0.2252  0.0275
  291loPI   GL1 4645  13.487   9.117  10.814  0.0410  0.2466 -0.1073
  291loPI   GL2 4646  13.771   9.200  10.741 -0.1263  0.1797 -0.0464
  291loPI   C1A 4647  13.277   8.911  10.440 -0.0954 -0.1406  0.3443
  291loPI   C2A 4648  13.366   8.973   9.966  0.0888  0.0487 -0.0542
  291loPI   C3A 4649  13.439   8.941   9.626 -0.2002 -0.0926  0.0006
  291loPI   C4A 4650  13.367   9.058   9.224 -0.1300  0.1192 -0.0777
  291loPI   C5A 4651  13.356   9.185   8.809 -0.0104  0.0952 -0.0278
  291loPI   C6A 4652  13.473   9.240   8.367  0.0688 -0.2878 -0.0696
  291loPI   C1B 4653  13.729   9.173  10.265 -0.1380  0.0326 -0.2539
  291loPI   C2B 4654  13.833   9.233   9.870  0.1480  0.2073 -0.0129
  291loPI   C3B 4655  13.808   9.299   9.449 -0.1347 -0.1034 -0.1305
  291loPI   C4B 4656  13.731   9.469   9.043 -0.0230 -0.1399  0.0638
  292loPI    C1 4657   5.272  15.957  11.345 -0.1214  0.0905 -0.4444
  292loPI    C2 4658   5.068  16.291  11.426 -0.0481  0.0520 -0.0857
  292loPI    C3 4659   4.917  15.935  11.527  0.0558  0.0034 -0.1003
  292loPI   PO4 4660   5.405  15.965  11.128  0.2075  0.0355 -0.0661
  292loPI   GL1 4661   5.399  15.767  10.778 -0.0830  0.1571  0.1588
  292loPI   GL2 4662   5.637  15.677  10.671 -0.0864  0.1742 -0.4165
  292loPI   C1A 4663   5.280  15.996  10.450  0.0553 -0.0748  0.0094
  292loPI   C2A 4664   5.334  15.982  10.103  0.3595  0.2191 -0.0261
  292loPI   C3A 4665   5.281  16.019   9.652  0.1220 -0.3561 -0.1274
  292loPI   C4A 4666   5.250  15.963   9.289 -0.0811 -0.1952  0.0120
  292loPI   C5A 4667   5.001  15.937   8.904  0.0799  0.0605  0.3498
  292loPI   C6A 4668   4.610  15.980   8.975 -0.2102 -0.2860  0.1626
  292loPI   C1B 4669   5.703  15.791  10.309  0.3159 -0.3267  0.0897
  292loPI   C2B 4670   5.720  15.703   9.936 -0.3430 -0.1029 -0.3708
  292loPI   C3B 4671   5.696  15.725   9.603  0.0004  0.1141 -0.2600
  292loPI   C4B 4672   5.666  15.819   9.107 -0.3069  0.1932  0.1667
  293loPI    C1 4673  10.232   2.340  11.426  0.0099  0.1041  0.0215
  293loPI    C2 4674  10.413   2.336  11.783  0.0738 -0.0511 -0.0113
  293loPI    C3 4675  10.034   2.462  11.751  0.2360  0.4691  0.0270
  293loPI   PO4 4676  10.392   2.540  11.275  0.2206  0.0574 -0.0591
  293loPI   GL1 4677  10.344   2.653  10.840 -0.2694  0.1932 -0.0078
  293loPI   GL2 4678  10.095   2.503  10.607  0.3614  0.2197  0.0640
  293loPI   C1A 4679  10.613   2.759  10.402  0.1358  0.0522 -0.1700
  293loPI   C2A 4680  10.835   2.724  10.006 -0.2766  0.1475  0.1323
  293loPI   C3A 4681  10.833   2.718   9.572 -0.0788 -0.4021 -0.1655
  293loPI   C4A 4682  10.529   2.707   9.222 -0.0877  0.0872  0.0490
  293loPI   C5A 4683  10.472   2.911   8.857 -0.1706 -0.0476  0.0502
  293loPI   C6A 4684  10.564   3.166   8.480 -0.1937  0.1309  0.0612
  293loPI   C1B 4685  10.208   2.521  10.222  0.1113  0.0704  0.0281
  293loPI   C2B 4686  10.332   2.707   9.869  0.1109 -0.1879  0.1076
  293loPI   C3B 4687  10.521   3.085   9.571  0.2593  0.0845 -0.3192
  293loPI   C4B 4688  10.842   3.127   9.200  0.1609 -0.0633  0.0829
  294loPI    C1 4689  12.903  10.450  11.431  0.0720  0.3839  0.0561
  294loPI    C2 4690  13.127  10.628  11.711 -0.1608  0.5501  0.1394
  294loPI    C3 4691  12.869  10.340  11.814  0.0449  0.3254  0.0372
  294loPI   PO4 4692  12.824  10.614  11.284  0.1785  0.2002  0.1496
  294loPI   GL1 4693  12.667  10.636  10.861 -0.1327  0.0462  0.0126
  294loPI   GL2 4694  12.920  10.848  10.806  0.0625 -0.1343 -0.0105
  294loPI   C1A 4695  12.438  10.570  10.533 -0.0867  0.1316  0.0870
  294loPI   C2A 4696  12.469  10.541  10.064  0.1138 -0.0749 -0.0615
  294loPI   C3A 4697  12.494  10.651   9.590  0.2706 -0.2358 -0.1258
  294loPI   C4A 4698  12.433  10.778   9.237  0.0382 -0.0882  0.0441
  294loPI   C5A 4699  12.362  10.567   8.862 -0.0295 -0.0172 -0.0514
  294loPI   C6A 4700  11.991  10.737   8.659 -0.2434  0.3112  0.2706
  294loPI   C1B 4701  12.890  10.745  10.369 -0.2171 -0.2528  0.0242
  294loPI   C2B 4702  12.864  10.889   9.870  0.0938  0.1783 -0.1793
  294loPI   C3B 4703  12.899  10.903   9.503  0.1971 -0.1636  0.1015
  294loPI   C4B 4704  12.833  11.012   9.041 -0.1185 -0.1492 -0.2459
  295loPI    C1 4705   5.324  11.786  11.271 -0.0326 -0.1572 -0.1233
  295loPI    C2 4706   4.943  11.758  11.152 -0.0837  0.0293 -0.0080
  295loPI    C3 4707   5.045  12.022  11.435  0.1247 -0.0486 -0.0091
  295loPI   PO4 4708   5.440  11.927  10.997 -0.0652  0.2028  0.0352
  295loPI   GL1 4709   5.597  11.856  10.591 -0.0727  0.1687  0.0509
  295loPI   GL2 4710   5.679  11.532  10.534 -0.0144 -0.0031  0.1864
  295loPI   C1A 4711   5.682  11.997  10.241  0.1463  0.0495 -0.2052
  295loPI   C2A 4712   5.739  12.086   9.846  0.0820  0.2840 -0.1459
  295loPI   C3A 4713   5.768  12.147   9.446 -0.1652  0.0205  0.1699
  295loPI   C4A 4714   5.801  12.180   9.067 -0.0936  0.0768  0.2591
  295loPI   C5A 4715   5.920  12.534   8.819  0.1661 -0.0409  0.1162
  295loPI   C6A 4716   5.791  12.730   8.478 -0.2263 -0.0731 -0.0881
  295loPI   C1B 4717   5.697  11.536  10.088 -0.0409 -0.1704  0.3560
  295loPI   C2B 4718   5.723  11.509   9.611 -0.4015 -0.3486  0.2088
  295loPI   C3B 4719   5.680  11.695   9.247 -0.1374 -0.0069 -0.1210
  295loPI   C4B 4720   5.794  11.690   8.827 -0.0585 -0.2303 -0.0184
  296loPI    C1 4721  10.828  16.136  11.416  0.0732  0.2928 -0.0740
  296loPI    C2 4722  10.900  16.447  11.657 -0.0999  0.2270  0.0648
  296loPI    C3 4723  10.892  16.076  11.806 -0.0985  0.1750 -0.0630
  296loPI   PO4 4724  10.901  16.253  11.133  0.2421 -0.0606  0.1083
  296loPI   GL1 4725  10.888  16.255  10.857  0.1591 -0.1128  0.0980
  296loPI   GL2 4726  10.698  16.458  10.680 -0.1853 -0.3853 -0.1862
  296loPI   C1A 4727  11.110  16.238  10.404 -0.0209 -0.2106 -0.2046
  296loPI   C2A 4728  11.138  16.247   9.958  0.4838 -0.1804  0.1674
  296loPI   C3A 4729  11.175  16.156   9.485  0.0267  0.1035  0.1875
  296loPI   C4A 4730  11.170  16.148   9.033 -0.4736 -0.0968  0.1353
  296loPI   C5A 4731  11.063  16.444   8.791 -0.1995 -0.2916  0.1166
  296loPI   C6A 4732  11.164  16.840   8.676 -0.2813 -0.0785 -0.3250
  296loPI   C1B 4733  10.732  16.528  10.206 -0.1191  0.0377 -0.1767
  296loPI   C2B 4734  10.671  16.456   9.843 -0.2575 -0.0163  0.1054
  296loPI   C3B 4735  10.782  16.422   9.512 -0.1345 -0.3532 -0.0785
  296loPI   C4B 4736  10.641  16.622   9.102  0.1235  0.0030  0.0072
  297loPI    C1 4737  17.667  11.353  11.222  0.1163  0.3416  0.0085
  297loPI    C2 4738  17.434  11.609  11.424 -0.1327 -0.0065  0.1717
  297loPI    C3 4739  17.715  11.399  11.617 -0.0618 -0.0028  0.0735
  297loPI   PO4 4740  17.670  11.478  10.985 -0.0067  0.0700  0.0140
  297loPI   GL1 4741  17.412  11.422  10.601 -0.3246  0.5217  0.2160
  297loPI   GL2 4742  17.704  11.198  10.412  0.0759  0.0264 -0.0890
  297loPI   C1A 4743  17.405  11.529  10.133  0.3682  0.0645  0.1500
  297loPI   C2A 4744  17.428  11.573   9.789  0.4867  0.1504 -0.0020
  297loPI   C3A 4745  17.392  11.616   9.315  0.1846 -0.0414  0.2714
  297loPI   C4A 4746  17.501  11.492   8.868  0.0158 -0.3074 -0.0652
  297loPI   C5A 4747  17.532  11.788   8.471 -0.1552 -0.0906 -0.4075
  297loPI   C6A 4748  17.919  12.084   8.341 -0.0269 -0.0160  0.2378
  297loPI   C1B 4749  17.918  11.286  10.049  0.1370  0.0565 -0.1049
  297loPI   C2B 4750  17.841  11.348   9.651  0.0377 -0.2867 -0.0741
  297loPI   C3B 4751  17.808  11.258   9.209 -0.1119 -0.1757  0.3459
  297loPI   C4B 4752  17.935  11.272   8.717 -0.0470  0.1364  0.1536
  298loPI    C1 4753  15.107  12.400  11.049  0.1487 -0.0691  0.0741
  298loPI    C2 4754  14.793  12.547  11.249  0.0657 -0.1582  0.0103
  298loPI    C3 4755  14.891  12.161  11.287 -0.0608 -0.2185 -0.2593
  298loPI   PO4 4756  15.076  12.448  10.815  0.3322  0.0653 -0.3455
  298loPI   GL1 4757  15.014  12.484  10.436  0.2151 -0.2063  0.1540
  298loPI   GL2 4758  14.634  12.396  10.331  0.2803 -0.0051 -0.1358
  298loPI   C1A 4759  15.187  12.703  10.233 -0.2010 -0.3180  0.0132
  298loPI   C2A 4760  15.164  12.760   9.795  0.2091 -0.0816 -0.2267
  298loPI   C3A 4761  15.075  12.729   9.366  0.2999  0.1534  0.1869
  298loPI   C4A 4762  15.202  12.745   9.022  0.1654 -0.1733  0.1016
  298loPI   C5A 4763  15.316  12.899   8.634 -0.0189  0.0112 -0.1522
  298loPI   C6A 4764  15.728  13.046   8.337 -0.0897 -0.1193  0.0684
  298loPI   C1B 4765  14.799  12.468   9.964 -0.1597  0.1850  0.0295
  298loPI   C2B 4766  14.661  12.435   9.550 -0.2085  0.0434 -0.1355
  298loPI   C3B 4767  14.668  12.543   9.188  0.2389 -0.0971  0.0218
  298loPI   C4B 4768  14.646  12.418   8.697 -0.4388 -0.0591  0.0901
  299loPI    C1 4769   4.563  16.261  11.559  0.1392 -0.0917 -0.0275
  299loPI    C2 4770   4.634  16.611  11.740 -0.2276 -0.1801  0.3015
  299loPI    C3 4771   4.801  16.276  11.880 -0.0631 -0.1723  0.1285
  299loPI   PO4 4772   4.570  16.372  11.318 -0.0939  0.1087 -0.0313
  299loPI   GL1 4773   4.787  16.278  10.971 -0.5265  0.3637 -0.1444
  299loPI   GL2 4774   4.931  15.933  11.003 -0.1820  0.1397 -0.1141
  299loPI   C1A 4775   4.873  16.318  10.558 -0.0449 -0.0408 -0.1219
  299loPI   C2A 4776   4.909  16.261  10.175 -0.0485  0.0930  0.0009
  299loPI   C3A 4777   4.824  16.251   9.720 -0.2028  0.0004 -0.0848
  299loPI   C4A 4778   4.852  16.253   9.380 -0.1274  0.1290 -0.4234
  299loPI   C5A 4779   4.959  16.419   8.942 -0.1115 -0.1181  0.0309
  299loPI   C6A 4780   5.025  16.287   8.480 -0.0005  0.0381 -0.0237
  299loPI   C1B 4781   4.830  15.778  10.689 -0.1656  0.0240 -0.2654
  299loPI   C2B 4782   4.800  15.666  10.247 -0.0173 -0.0701 -0.0710
  299loPI   C3B 4783   4.811  15.732   9.759 -0.0321 -0.0268 -0.2925
  299loPI   C4B 4784   4.856  15.651   9.348  0.0537 -0.3777 -0.1524
  300loPI    C1 4785  10.359  16.243  11.405 -0.2113  0.1081  0.1014
  300loPI    C2 4786  10.439  15.911  11.613 -0.0429  0.3210  0.3831
  300loPI    C3 4787  10.080  16.085  11.644 -0.1724  0.1021  0.1429
  300loPI   PO4 4788  10.393  16.254  11.168 -0.2233 -0.0592 -0.3214
  300loPI   GL1 4789  10.212  16.201  10.815  0.3494 -0.0692  0.3313
  300loPI   GL2 4790   9.908  16.155  10.744 -0.2961 -0.0154 -0.0432
  300loPI   C1A 4791  10.317  16.240  10.395  0.2152  0.0536  0.0067
  300loPI   C2A 4792  10.221  16.229   9.931 -0.0110 -0.2030  0.0233
  300loPI   C3A 4793  10.262  16.157   9.470  0.2567  0.2136  0.3103
  300loPI   C4A 4794  10.159  16.099   8.977  0.1962  0.0729 -0.0536
  300loPI   C5A 4795   9.846  16.158   8.701 -0.0953 -0.1676  0.0506
  300loPI   C6A 4796   9.497  15.979   8.398 -0.1125 -0.0168  0.1886
  300loPI   C1B 4797   9.877  16.038  10.271  0.0392 -0.3374  0.1521
  300loPI   C2B 4798   9.786  15.987   9.900 -0.0896  0.0793  0.0228
  300loPI   C3B 4799   9.711  15.948   9.449 -0.1380  0.0467  0.0315
  300loPI   C4B 4800   9.665  15.815   9.053 -0.0055  0.2342 -0.1192
  301loPI    C1 4801   4.025  12.664  11.594 -0.0210  0.2480 -0.1115
  301loPI    C2 4802   3.856  12.843  11.909 -0.0095 -0.0972  0.0957
  301loPI    C3 4803   4.201  12.646  11.952 -0.1445 -0.3761 -0.0712
  301loPI   PO4 4804   3.907  12.802  11.359 -0.3573 -0.0615 -0.1269
  301loPI   GL1 4805   3.930  12.890  10.982  0.3294 -0.1827  0.0304
  301loPI   GL2 4806   4.230  13.010  10.781 -0.0967  0.1031  0.0311
  301loPI   C1A 4807   3.883  13.155  10.493 -0.3869  0.0765  0.3573
  301loPI   C2A 4808   4.003  13.130  10.045 -0.3450 -0.2720  0.1114
  301loPI   C3A 4809   3.930  13.135   9.700  0.0993  0.3272  0.0194
  301loPI   C4A 4810   3.950  13.129   9.310 -0.0468  0.0368  0.2872
  301loPI   C5A 4811   3.922  13.374   8.847  0.0840 -0.0485 -0.1103
  301loPI   C6A 4812   3.980  13.572   8.475 -0.0304 -0.0089 -0.3752
  301loPI   C1B 4813   4.409  12.792  10.385 -0.1865  0.2271  0.1093
  301loPI   C2B 4814   4.402  12.832   9.951 -0.1644 -0.2700 -0.0304
  301loPI   C3B 4815   4.336  12.819   9.456  0.0416  0.0835 -0.1218
  301loPI   C4B 4816   4.438  12.645   9.000 -0.3177 -0.3325  0.0089
  302loPI    C1 4817   8.074  14.878  11.767  0.1904  0.1927 -0.0841
  302loPI    C2 4818   7.805  14.915  12.062  0.2909  0.1880  0.0089
  302loPI    C3 4819   7.923  14.551  11.942  0.0314  0.1823 -0.2386
  302loPI   PO4 4820   7.900  14.982  11.510 -0.3681 -0.0133  0.0968
  302loPI   GL1 4821   7.693  14.817  11.076  0.0387 -0.1963 -0.0319
  302loPI   GL2 4822   7.503  14.599  10.880 -0.1678 -0.1356  0.0423
  302loPI   C1A 4823   7.821  14.950  10.688 -0.1510  0.0080  0.3766
  302loPI   C2A 4824   7.965  14.999  10.350  0.0842  0.0096 -0.3221
  302loPI   C3A 4825   7.957  14.923   9.909 -0.1016  0.1140 -0.1514
  302loPI   C4A 4826   7.930  14.938   9.501  0.0644 -0.0638 -0.1575
  302loPI   C5A 4827   7.987  14.900   9.090 -0.3869 -0.2346  0.1628
  302loPI   C6A 4828   8.081  15.060   8.653 -0.1366 -0.1139  0.0727
  302loPI   C1B 4829   7.411  14.700  10.461  0.2933  0.1180 -0.2439
  302loPI   C2B 4830   7.424  14.758  10.130 -0.0127 -0.3264  0.0357
  302loPI   C3B 4831   7.481  14.739   9.741 -0.1682  0.2377 -0.1147
  302loPI   C4B 4832   7.441  14.732   9.273  0.0291 -0.1310  0.1692
  303loPI    C1 4833  10.753   7.271  11.286  0.1235  0.0984 -0.2683
  303loPI    C2 4834  10.665   6.969  11.533 -0.4364  0.3233 -0.1767
  303loPI    C3 4835  11.036   7.118  11.524 -0.1397 -0.3769 -0.2464
  303loPI   PO4 4836  10.564   7.209  11.130 -0.1461  0.1205  0.0517
  303loPI   GL1 4837  10.529   6.912  10.678  0.1223 -0.0976 -0.0351
  303loPI   GL2 4838  10.562   7.306  10.640  0.0631 -0.3725 -0.0243
  303loPI   C1A 4839  10.652   6.939  10.297  0.3876 -0.0336  0.0566
  303loPI   C2A 4840  10.606   6.877   9.800 -0.1607 -0.1316  0.0616
  303loPI   C3A 4841  10.563   7.006   9.336 -0.0258 -0.0617  0.0186
  303loPI   C4A 4842  10.744   6.910   8.866 -0.2572  0.0208 -0.1310
  303loPI   C5A 4843  10.752   6.817   8.424  0.0535  0.0029 -0.1654
  303loPI   C6A 4844  10.696   6.372   8.257  0.1155  0.2702 -0.1895
  303loPI   C1B 4845  10.603   7.459  10.246 -0.2743 -0.0257  0.3885
  303loPI   C2B 4846  10.618   7.394   9.831 -0.1917 -0.0857 -0.1726
  303loPI   C3B 4847  10.654   7.539   9.457 -0.2703 -0.0793 -0.0551
  303loPI   C4B 4848  10.665   7.574   8.950 -0.0038 -0.4244 -0.0352
  304loPI    C1 4849  12.682   1.149  11.833  0.0355 -0.0677 -0.1885
  304loPI    C2 4850  12.764   0.832  12.062  0.0200 -0.0270 -0.1262
  304loPI    C3 4851  12.702   1.189  12.231 -0.2610 -0.0509 -0.1730
  304loPI   PO4 4852  12.767   1.035  11.521  0.1675 -0.0404 -0.2323
  304loPI   GL1 4853  12.858   1.176  11.082 -0.0088 -0.1033  0.1492
  304loPI   GL2 4854  12.913   0.914  11.033 -0.0851 -0.1722  0.2089
  304loPI   C1A 4855  12.915   1.397  10.664 -0.0951  0.0578 -0.2078
  304loPI   C2A 4856  12.942   1.468  10.227 -0.1387  0.0235  0.1506
  304loPI   C3A 4857  13.005   1.449   9.851 -0.1300  0.3370  0.0884
  304loPI   C4A 4858  12.989   1.366   9.397  0.1201 -0.1122 -0.1825
  304loPI   C5A 4859  12.968   1.326   8.995 -0.3583  0.1722  0.3063
  304loPI   C6A 4860  13.054   1.697   8.777 -0.1846 -0.0896 -0.1753
  304loPI   C1B 4861  13.012   0.882  10.578 -0.3131  0.1978 -0.4449
  304loPI   C2B 4862  13.006   0.888  10.172 -0.2888 -0.0381  0.1433
  304loPI   C3B 4863  13.010   0.990   9.687 -0.1455  0.1653 -0.1137
  304loPI   C4B 4864  13.045   0.913   9.217  0.0006  0.1267 -0.0680
  305loPI    C1 4865  17.880  14.473  11.465 -0.1764 -0.0010  0.1098
  305loPI    C2 4866  17.810  14.080  11.473 -0.1570 -0.0086 -0.0494
  305loPI    C3 4867  17.718  14.306  11.790 -0.4221 -0.0985 -0.0595
  305loPI   PO4 4868  17.928  14.408  11.112 -0.4237  0.4006 -0.1971
  305loPI   GL1 4869  17.807  14.174  10.831 -0.2380  0.0986  0.0383
  305loPI   GL2 4870  17.521  13.997  11.058 -0.0379 -0.1559 -0.1529
  305loPI   C1A 4871  17.810  14.314  10.446  0.1362  0.1055  0.0024
  305loPI   C2A 4872  17.755  14.409  10.028  0.1116  0.1849 -0.2723
  305loPI   C3A 4873  17.692  14.295   9.583 -0.1919  0.0346 -0.0887
  305loPI   C4A 4874  17.728  14.405   9.009  0.0134 -0.1762  0.1448
  305loPI   C5A 4875  17.931  14.351   8.595 -0.1549  0.2232  0.1290
  305loPI   C6A 4876  18.242  14.000   8.346  0.0620  0.0692 -0.2406
  305loPI   C1B 4877  17.356  14.044  10.693  0.1225 -0.1857  0.2449
  305loPI   C2B 4878  17.342  14.116  10.274  0.6896  0.0964 -0.1315
  305loPI   C3B 4879  17.275  14.132   9.815 -0.1903 -0.2012 -0.0098
  305loPI   C4B 4880  17.373  14.060   9.309  0.0259 -0.0847 -0.1648
  306loPI    C1 4881  15.915   3.463  11.337 -0.0593 -0.2069 -0.1446
  306loPI    C2 4882  16.275   3.294  11.291  0.0892  0.0311  0.1155
  306loPI    C3 4883  16.024   3.157  11.570 -0.0450 -0.1674 -0.0993
  306loPI   PO4 4884  15.773   3.435  11.107  0.0915  0.2396  0.1038
  306loPI   GL1 4885  15.948   3.249  10.687 -0.4904 -0.2461  0.0221
  306loPI   GL2 4886  16.300   3.249  10.747 -0.1921 -0.1738  0.0638
  306loPI   C1A 4887  16.042   3.330  10.306 -0.2645  0.4049 -0.4289
  306loPI   C2A 4888  16.062   3.314   9.800 -0.1755 -0.1246 -0.0614
  306loPI   C3A 4889  16.137   3.339   9.333 -0.0293 -0.2143 -0.0062
  306loPI   C4A 4890  16.124   3.102   8.924 -0.1425  0.1813  0.1356
  306loPI   C5A 4891  15.968   3.169   8.537 -0.1209 -0.1423  0.1189
  306loPI   C6A 4892  16.172   3.401   8.245 -0.2360  0.1044 -0.2425
  306loPI   C1B 4893  16.518   3.095  10.374  0.0424  0.0900  0.0418
  306loPI   C2B 4894  16.543   3.087   9.998  0.0452  0.0087  0.2882
  306loPI   C3B 4895  16.529   3.054   9.532 -0.4878 -0.0621  0.0191
  306loPI   C4B 4896  16.572   3.085   9.158  0.0311 -0.0215 -0.3858
  307loPI    C1 4897  17.268   4.668  11.223 -0.0122 -0.1182  0.0691
  307loPI    C2 4898  17.044   4.950  11.397 -0.0876 -0.0770 -0.0929
  307loPI    C3 4899  17.162   4.631  11.607 -0.0964  0.0188  0.0599
  307loPI   PO4 4900  17.176   4.602  10.944 -0.4895  0.1586 -0.1413
  307loPI   GL1 4901  17.205   4.751  10.513  0.1506  0.1092 -0.1133
  307loPI   GL2 4902  17.507   4.520  10.529  0.2217 -0.0502  0.0022
  307loPI   C1A 4903  16.952   4.803  10.132 -0.2254 -0.0808 -0.2021
  307loPI   C2A 4904  16.912   4.886   9.738  0.1231  0.0270 -0.2203
  307loPI   C3A 4905  17.020   4.969   9.237  0.0684 -0.0621  0.3549
  307loPI   C4A 4906  17.148   5.032   8.823 -0.0193  0.2202 -0.0323
  307loPI   C5A 4907  17.143   4.984   8.350  0.0685 -0.0832 -0.0364
  307loPI   C6A 4908  16.953   4.793   8.027  0.1792  0.0043  0.0295
  307loPI   C1B 4909  17.469   4.757  10.006  0.1452 -0.0341  0.0500
  307loPI   C2B 4910  17.414   4.638   9.630  0.0836  0.1970  0.0653
  307loPI   C3B 4911  17.486   4.759   9.177  0.1419  0.0104 -0.0413
  307loPI   C4B 4912  17.544   4.699   8.734 -0.0405 -0.0911  0.1393
  308loPI    C1 4913  14.380  12.549  10.846 -0.0128 -0.0600  0.0280
  308loPI    C2 4914  14.283  12.668  11.215  0.2958 -0.2041  0.1587
  308loPI    C3 4915  14.008  12.673  10.925  0.0684 -0.0268  0.3731
  308loPI   PO4 4916  14.638  12.692  10.785 -0.2431 -0.2126 -0.0327
  308loPI   GL1 4917  14.883  12.961  10.560 -0.1565 -0.1990 -0.1361
  308loPI   GL2 4918  14.619  13.182  10.542 -0.1358 -0.0728 -0.0857
  308loPI   C1A 4919  14.784  12.934  10.099 -0.1140  0.3502  0.2333
  308loPI   C2A 4920  14.755  13.009   9.642 -0.0916  0.0851  0.0355
  308loPI   C3A 4921  14.742  13.086   9.285 -0.0265  0.0777  0.0069
  308loPI   C4A 4922  14.671  13.046   8.925 -0.3153  0.0648  0.1785
  308loPI   C5A 4923  14.554  13.257   8.550 -0.2251  0.1355 -0.0379
  308loPI   C6A 4924  14.292  13.455   8.157 -0.2039 -0.5704  0.0021
  308loPI   C1B 4925  14.720  13.431  10.233  0.2204  0.2098  0.0677
  308loPI   C2B 4926  14.599  13.564   9.830  0.1244  0.2502 -0.1502
  308loPI   C3B 4927  14.670  13.555   9.358 -0.2936  0.0175 -0.0455
  308loPI   C4B 4928  14.682  13.595   8.962  0.0815 -0.1869  0.1668
  309loPI    C1 4929   3.902   2.870  11.219 -0.0100 -0.1230  0.0861
  309loPI    C2 4930   4.264   3.011  11.315  0.0855 -0.2836 -0.0349
  309loPI    C3 4931   4.001   2.924  11.603  0.0800 -0.0047  0.0471
  309loPI   PO4 4932   3.819   2.982  10.997  0.1312  0.1552  0.2027
  309loPI   GL1 4933   3.493   2.906  10.642  0.0624  0.0029 -0.1343
  309loPI   GL2 4934   3.174   3.079  10.552 -0.1427  0.2587 -0.0883
  309loPI   C1A 4935   3.606   2.773  10.250  0.2562  0.3921 -0.0425
  309loPI   C2A 4936   3.651   2.796   9.750 -0.3942  0.2813 -0.1780
  309loPI   C3A 4937   3.695   2.694   9.269  0.0891  0.2461 -0.0943
  309loPI   C4A 4938   3.635   2.726   8.836 -0.1634  0.0560 -0.2304
  309loPI   C5A 4939   3.430   2.733   8.458 -0.0731 -0.2498 -0.1772
  309loPI   C6A 4940   3.343   2.697   8.049  0.0397 -0.2130  0.2451
  309loPI   C1B 4941   3.185   3.190  10.199  0.1182 -0.1765  0.2903
  309loPI   C2B 4942   3.196   3.014   9.794  0.2807 -0.2780  0.1429
  309loPI   C3B 4943   3.201   2.982   9.322  0.2529  0.0825  0.0442
  309loPI   C4B 4944   3.158   2.972   8.934  0.1211 -0.2226 -0.0914
  310loPI    C1 4945  11.164   3.412  10.920  0.0106  0.0875  0.1140
  310loPI    C2 4946  11.178   3.768  11.103  0.0215  0.2487 -0.1938
  310loPI    C3 4947  10.914   3.492  11.223  0.3572  0.1642  0.3859
  310loPI   PO4 4948  11.101   3.438  10.614 -0.0950 -0.0523  0.1162
  310loPI   GL1 4949  11.429   3.267  10.400  0.0598  0.2257 -0.1885
  310loPI   GL2 4950  11.330   3.501  10.187  0.1079 -0.2920  0.1392
  310loPI   C1A 4951  11.363   3.022  10.047  0.0319  0.0133 -0.0037
  310loPI   C2A 4952  11.335   2.949   9.595 -0.1016  0.0586  0.2047
  310loPI   C3A 4953  11.666   3.133   9.253  0.0934  0.1279  0.0326
  310loPI   C4A 4954  11.887   3.428   9.021  0.0882  0.1557  0.0769
  310loPI   C5A 4955  11.991   3.856   8.909  0.1756  0.2700  0.0958
  310loPI   C6A 4956  12.129   4.223   8.614  0.1318  0.0504  0.0548
  310loPI   C1B 4957  11.428   3.815   9.899  0.0789 -0.1247 -0.1585
  310loPI   C2B 4958  11.391   3.961   9.477  0.0551 -0.2115  0.1884
  310loPI   C3B 4959  11.607   3.815   9.143  0.2451 -0.3653  0.0425
  310loPI   C4B 4960  11.608   4.130   8.769  0.2200  0.1122 -0.0411
  311loPI    C1 4961  14.164  11.990  11.118 -0.2034  0.2813 -0.0355
  311loPI    C2 4962  14.412  12.209  11.343 -0.0298  0.0899 -0.0372
  311loPI    C3 4963  14.155  11.957  11.517 -0.1005  0.1577 -0.0427
  311loPI   PO4 4964  14.104  12.117  10.901 -0.1308  0.2376 -0.3363
  311loPI   GL1 4965  14.049  12.242  10.425  0.2116  0.0591  0.2891
  311loPI   GL2 4966  14.282  12.091  10.477 -0.1018 -0.3994  0.0406
  311loPI   C1A 4967  14.190  12.630  10.249  0.3887 -0.0801 -0.1240
  311loPI   C2A 4968  14.277  12.620   9.844  0.1144  0.0336  0.1181
  311loPI   C3A 4969  14.257  12.771   9.481  0.0502  0.2475 -0.2307
  311loPI   C4A 4970  14.274  12.774   9.039  0.1828 -0.1894 -0.0081
  311loPI   C5A 4971  14.240  12.853   8.611 -0.0583 -0.0650  0.0463
  311loPI   C6A 4972  14.447  12.904   8.184  0.2306 -0.2136 -0.1137
  311loPI   C1B 4973  14.313  12.161   9.988 -0.0071 -0.2062 -0.3234
  311loPI   C2B 4974  14.256  12.154   9.622 -0.3490 -0.1376 -0.0682
  311loPI   C3B 4975  14.248  12.289   9.206 -0.0691  0.0529  0.2893
  311loPI   C4B 4976  14.116  12.381   8.744  0.0625  0.2793  0.1576
  312loPI    C1 4977  13.725  10.648  11.251  0.0635  0.1165  0.0033
  312loPI    C2 4978  14.028  10.799  11.465  0.1343  0.0126 -0.0231
  312loPI    C3 4979  13.670  10.742  11.636  0.1095  0.2008 -0.0104
  312loPI   PO4 4980  13.726  10.715  11.024  0.1639 -0.0813 -0.3984
  312loPI   GL1 4981  13.642  11.038  10.798  0.0755 -0.0697 -0.1233
  312loPI   GL2 4982  13.388  10.860  10.677  0.0746  0.3252  0.2981
  312loPI   C1A 4983  13.846  10.849  10.385  0.0499  0.0909 -0.3033
  312loPI   C2A 4984  13.759  10.815  10.004  0.4576  0.1724  0.0640
  312loPI   C3A 4985  13.809  10.871   9.571 -0.0028 -0.1956 -0.0694
  312loPI   C4A 4986  13.734  10.991   9.116 -0.1428  0.0687  0.3721
  312loPI   C5A 4987  13.675  10.948   8.576 -0.1164  0.1883 -0.1700
  312loPI   C6A 4988  13.398  11.211   8.306 -0.1339  0.0158  0.1214
  312loPI   C1B 4989  13.399  11.044  10.263  0.3192 -0.1893  0.1875
  312loPI   C2B 4990  13.327  11.098   9.813 -0.2177 -0.0184 -0.0719
  312loPI   C3B 4991  13.330  11.126   9.344 -0.2767 -0.0538  0.0364
  312loPI   C4B 4992  13.252  11.284   9.008 -0.2391 -0.1637  0.1101
  313loPI    C1 4993   6.731   9.213  11.576 -0.0775  0.1974  0.2829
  313loPI    C2 4994   6.980   9.113  11.873  0.0702  0.0829  0.1223
  313loPI    C3 4995   6.755   8.833  11.698  0.2048  0.0958 -0.0744
  313loPI   PO4 4996   6.734   9.414  11.516  0.0926  0.1557 -0.0675
  313loPI   GL1 4997   6.821   9.474  11.157  0.0142 -0.1673  0.1047
  313loPI   GL2 4998   6.695   9.344  10.871  0.1572  0.0761  0.2843
  313loPI   C1A 4999   7.026   9.672  10.768  0.1838 -0.2289  0.0820
  313loPI   C2A 5000   7.097   9.634  10.237  0.0441  0.0050 -0.2397
  313loPI   C3A 5001   7.135   9.744   9.879 -0.1364 -0.1796 -0.2007
  313loPI   C4A 5002   7.054   9.799   9.381  0.1629 -0.0907  0.0744
  313loPI   C5A 5003   6.942   9.684   8.954  0.1216  0.0953 -0.1903
  313loPI   C6A 5004   6.525   9.567   8.724 -0.3515  0.2106 -0.0016
  313loPI   C1B 5005   6.697   9.385  10.415 -0.2195 -0.0157 -0.1408
  313loPI   C2B 5006   6.729   9.394  10.005  0.0482  0.1850  0.2215
  313loPI   C3B 5007   6.655   9.469   9.689 -0.1302 -0.1008  0.0819
  313loPI   C4B 5008   6.575   9.491   9.222 -0.0039  0.0051 -0.0120
  314loPI    C1 5009   3.649  14.192  11.632  0.1235  0.0842 -0.1541
  314loPI    C2 5010   3.842  14.542  11.625  0.2514  0.0172 -0.0398
  314loPI    C3 5011   3.897  14.290  11.930  0.0078 -0.0179 -0.0227
  314loPI   PO4 5012   3.597  14.168  11.299 -0.1056 -0.1657  0.2127
  314loPI   GL1 5013   3.768  14.175  10.920  0.0746  0.1672 -0.0418
  314loPI   GL2 5014   3.421  14.264  10.848  0.0100 -0.0770 -0.0276
  314loPI   C1A 5015   3.921  14.171  10.546 -0.1191  0.3537  0.1848
  314loPI   C2A 5016   3.990  14.133  10.099  0.1560 -0.0358 -0.0663
  314loPI   C3A 5017   4.043  14.216   9.694  0.0767  0.2519 -0.0468
  314loPI   C4A 5018   3.902  14.102   9.277  0.2244 -0.2715  0.1575
  314loPI   C5A 5019   4.142  14.149   8.846 -0.1810 -0.1637  0.1245
  314loPI   C6A 5020   4.428  14.028   8.596  0.3850  0.0109  0.0684
  314loPI   C1B 5021   3.486  14.357  10.428 -0.2951  0.0370  0.2566
  314loPI   C2B 5022   3.499  14.405   9.987  0.1671 -0.1047  0.0405
  314loPI   C3B 5023   3.549  14.405   9.509 -0.0129  0.3727  0.0647
  314loPI   C4B 5024   3.532  14.435   9.067 -0.3254  0.0688 -0.0882
  315loPI    C1 5025  12.257   5.201  11.149  0.2500 -0.4924 -0.1701
  315loPI    C2 5026  12.609   5.253  11.331 -0.0374  0.1297  0.2457
  315loPI    C3 5027  12.280   5.184  11.548 -0.2186 -0.2069 -0.1229
  315loPI   PO4 5028  12.371   4.979  10.983 -0.1766 -0.4002 -0.1666
  315loPI   GL1 5029  12.553   4.940  10.570  0.2711 -0.0963  0.0430
  315loPI   GL2 5030  12.365   4.685  10.509  0.1400  0.1555  0.0195
  315loPI   C1A 5031  12.792   5.033  10.155  0.1508  0.0178 -0.0898
  315loPI   C2A 5032  12.981   5.177   9.727  0.0996 -0.4662  0.0488
  315loPI   C3A 5033  12.974   5.174   9.268 -0.0352  0.0645  0.1209
  315loPI   C4A 5034  12.905   5.289   8.931  0.3078 -0.0378 -0.0103
  315loPI   C5A 5035  12.799   5.232   8.514  0.0627 -0.0211 -0.3629
  315loPI   C6A 5036  12.666   5.178   8.116 -0.2291 -0.1580 -0.0751
  315loPI   C1B 5037  12.545   4.652  10.069 -0.0262 -0.5355 -0.0149
  315loPI   C2B 5038  12.761   4.708   9.659  0.0834 -0.3112 -0.1454
  315loPI   C3B 5039  12.910   4.652   9.330 -0.0017  0.0114  0.1992
  315loPI   C4B 5040  13.003   4.746   8.849 -0.3323  0.0331  0.0416
  316loPI    C1 5041  17.215   7.432  11.248 -0.0154 -0.1077  0.1372
  316loPI    C2 5042  17.231   7.742  11.500 -0.1873 -0.0584  0.0891
  316loPI    C3 5043  17.427   7.403  11.586 -0.1247  0.0094  0.2165
  316loPI   PO4 5044  17.322   7.625  10.972  0.0914 -0.0838 -0.1401
  316loPI   GL1 5045  17.251   7.482  10.610 -0.1617  0.2619 -0.0830
  316loPI   GL2 5046  17.408   7.698  10.451 -0.4301  0.3814 -0.4607
  316loPI   C1A 5047  17.285   7.264  10.186 -0.0514 -0.0369 -0.3039
  316loPI   C2A 5048  17.301   7.322   9.790  0.1496 -0.1970 -0.3050
  316loPI   C3A 5049  17.459   7.263   9.469  0.0288 -0.5497 -0.0420
  316loPI   C4A 5050  17.441   7.336   9.098 -0.1359  0.1157  0.0012
  316loPI   C5A 5051  17.628   7.175   8.731  0.1017  0.2167 -0.1201
  316loPI   C6A 5052  17.749   7.158   8.357  0.2136  0.1343 -0.0994
  316loPI   C1B 5053  17.332   7.780  10.045 -0.1332 -0.4481  0.0707
  316loPI   C2B 5054  17.400   7.875   9.530 -0.3177  0.2362  0.1849
  316loPI   C3B 5055  17.488   7.886   9.126  0.0930  0.6007 -0.0893
  316loPI   C4B 5056  17.534   7.738   8.805  0.0448  0.3423  0.1901
  317loPI    C1 5057   8.899  12.225  11.140  0.0359  0.0131 -0.0174
  317loPI    C2 5058   9.263  12.066  11.189 -0.0065 -0.1066 -0.0858
  317loPI    C3 5059   9.048  12.176  11.508  0.0513 -0.1222 -0.0412
  317loPI   PO4 5060   8.876  12.414  11.016 -0.0692 -0.2343 -0.0198
  317loPI   GL1 5061   8.867  12.310  10.608  0.0452  0.0420  0.0939
  317loPI   GL2 5062   9.161  12.210  10.705  0.0098  0.0776  0.0584
  317loPI   C1A 5063   8.825  12.281  10.311 -0.1365  0.3331  0.1983
  317loPI   C2A 5064   8.913  12.229   9.815  0.1724 -0.0258 -0.1994
  317loPI   C3A 5065   8.839  12.288   9.386 -0.1560  0.1460 -0.1916
  317loPI   C4A 5066   8.809  12.164   8.957 -0.1566  0.2151 -0.3383
  317loPI   C5A 5067   8.852  11.756   8.721 -0.0457 -0.2244 -0.1821
  317loPI   C6A 5068   9.045  11.398   8.533 -0.3395  0.1786  0.1544
  317loPI   C1B 5069   9.251  12.577  10.302 -0.0555  0.3422  0.2219
  317loPI   C2B 5070   9.345  12.542   9.797  0.0232  0.1693 -0.1944
  317loPI   C3B 5071   9.334  12.502   9.375 -0.0755  0.0535  0.4475
  317loPI   C4B 5072   9.250  12.543   8.918 -0.1786 -0.1258  0.1907
  318loPI    C1 5073   5.761  14.390  11.627  0.1634 -0.0134  0.2521
  318loPI    C2 5074   5.718  14.753  11.789 -0.0123 -0.0151  0.2113
  318loPI    C3 5075   5.476  14.454  11.900 -0.0088 -0.0647  0.0874
  318loPI   PO4 5076   5.911  14.548  11.328  0.2072  0.2768 -0.1478
  318loPI   GL1 5077   5.751  14.565  10.943  0.1362 -0.1108  0.0636
  318loPI   GL2 5078   6.033  14.421  10.789  0.4345 -0.0293  0.1852
  318loPI   C1A 5079   5.669  14.709  10.466  0.5197 -0.1331 -0.0667
  318loPI   C2A 5080   5.685  14.633  10.101  0.1330 -0.1485  0.1646
  318loPI   C3A 5081   5.788  14.655   9.696 -0.6032 -0.1557 -0.1184
  318loPI   C4A 5082   5.697  14.566   9.276 -0.0440 -0.0743  0.2948
  318loPI   C5A 5083   5.690  14.525   8.768  0.1171  0.1755 -0.0238
  318loPI   C6A 5084   5.501  14.678   8.397  0.2386 -0.3679  0.2398
  318loPI   C1B 5085   6.158  14.469  10.391  0.2047 -0.1634  0.1010
  318loPI   C2B 5086   6.142  14.368   9.960 -0.0893  0.2435 -0.0828
  318loPI   C3B 5087   6.210  14.460   9.544  0.0572  0.1887  0.1164
  318loPI   C4B 5088   6.183  14.428   9.080  0.0199  0.0195  0.0033
  319loPI    C1 5089   7.381   0.715  11.524  0.0518 -0.0524  0.2124
  319loPI    C2 5090   6.995   0.628  11.584 -0.0062 -0.0443 -0.1285
  319loPI    C3 5091   7.104   0.999  11.481  0.1007 -0.0325  0.0221
  319loPI   PO4 5092   7.514   0.525  11.377 -0.0357  0.3665 -0.1049
  319loPI   GL1 5093   7.465   0.252  10.993 -0.0031 -0.1209 -0.0912
  319loPI   GL2 5094   7.769   0.365  10.869 -0.3831 -0.2833 -0.0957
  319loPI   C1A 5095   7.504   0.353  10.458  0.3220 -0.1519  0.0549
  319loPI   C2A 5096   7.512   0.415  10.019  0.1663  0.3066 -0.0943
  319loPI   C3A 5097   7.516   0.380   9.512 -0.0111  0.1961 -0.0475
  319loPI   C4A 5098   7.459   0.330   9.132  0.2086  0.0225  0.1686
  319loPI   C5A 5099   7.644   0.153   8.743  0.4240 -0.0385  0.0242
  319loPI   C6A 5100   7.776   0.248   8.305 -0.0103 -0.1857  0.1047
  319loPI   C1B 5101   8.003   0.258  10.495  0.2494 -0.2666  0.0061
  319loPI   C2B 5102   7.997   0.192  10.071 -0.1543  0.1258 -0.2233
  319loPI   C3B 5103   7.978   0.080   9.672  0.0574  0.1976 -0.1953
  319loPI   C4B 5104   7.921   0.111   9.267 -0.2607  0.1777  0.0986
  320loPI    C1 5105   6.447   3.277  10.954 -0.1484  0.0659  0.0877
  320loPI    C2 5106   6.555   3.659  11.001 -0.1914  0.1050 -0.1209
  320loPI    C3 5107   6.378   3.463  11.301  0.1022  0.1572  0.0911
  320loPI   PO4 5108   6.495   3.277  10.671 -0.1865 -0.1847 -0.2113
  320loPI   GL1 5109   6.488   3.043  10.341 -0.0637  0.1239  0.1130
  320loPI   GL2 5110   6.702   2.833  10.350  0.2255  0.0612 -0.0356
  320loPI   C1A 5111   6.255   3.011  10.081 -0.0761  0.0726 -0.0790
  320loPI   C2A 5112   6.080   2.987   9.635 -0.0881  0.0196  0.0123
  320loPI   C3A 5113   5.924   3.081   9.204  0.0974 -0.1166 -0.0312
  320loPI   C4A 5114   5.735   3.192   8.828 -0.2443  0.1011 -0.2755
  320loPI   C5A 5115   5.211   3.316   8.790  0.3524  0.3573  0.0649
  320loPI   C6A 5116   4.835   3.405   8.900  0.0649 -0.1522  0.2411
  320loPI   C1B 5117   6.605   2.681  10.065  0.3210 -0.1333 -0.3211
  320loPI   C2B 5118   6.503   2.644   9.656  0.1638  0.1199  0.1254
  320loPI   C3B 5119   6.767   2.320   9.391  0.1930 -0.0774  0.0018
  320loPI   C4B 5120   6.905   2.201   9.025 -0.0207 -0.0959  0.0599
  321loPI    C1 5121  16.976  16.994  11.296  0.0425  0.0570  0.0196
  321loPI    C2 5122  16.947  16.819  11.655  0.0280  0.2081  0.0928
  321loPI    C3 5123  17.223  17.101  11.592  0.0967  0.1114 -0.0450
  321loPI   PO4 5124  17.046  16.818  11.173 -0.1622  0.1977  0.3105
  321loPI   GL1 5125  17.027  16.562  10.892 -0.0537 -0.1780 -0.3319
  321loPI   GL2 5126  17.289  16.676  10.752 -0.3582 -0.3345  0.3145
  321loPI   C1A 5127  16.922  16.399  10.588  0.1599  0.0659  0.0962
  321loPI   C2A 5128  16.932  16.347  10.171 -0.1918 -0.0823  0.0829
  321loPI   C3A 5129  16.963  16.381   9.700  0.0656 -0.0138 -0.1664
  321loPI   C4A 5130  16.990  16.414   9.248  0.1002  0.0919 -0.1107
  321loPI   C5A 5131  16.894  16.530   8.889  0.1548  0.0968 -0.1784
  321loPI   C6A 5132  17.254  16.689   8.504 -0.1393 -0.0105 -0.3304
  321loPI   C1B 5133  17.363  16.598  10.371 -0.0304 -0.2680  0.0665
  321loPI   C2B 5134  17.356  16.656   9.829  0.1572 -0.1570 -0.0895
  321loPI   C3B 5135  17.423  16.756   9.418 -0.0849  0.0051 -0.2812
  321loPI   C4B 5136  17.438  16.708   9.022  0.4891 -0.0288 -0.1006
  322loPI    C1 5137  16.937  11.733  11.288 -0.2183  0.4122  0.0043
  322loPI    C2 5138  16.622  11.638  11.515  0.0003 -0.0564  0.1230
  322loPI    C3 5139  16.971  11.450  11.568  0.1971  0.1881 -0.2622
  322loPI   PO4 5140  16.856  11.729  11.022 -0.2465  0.2660 -0.0726
  322loPI   GL1 5141  17.020  11.729  10.577 -0.2409 -0.2345 -0.0369
  322loPI   GL2 5142  17.289  11.884  10.507 -0.2085 -0.1133  0.1765
  322loPI   C1A 5143  16.913  11.636  10.222  0.2645  0.3219  0.1128
  322loPI   C2A 5144  16.917  11.838   9.847 -0.0507  0.3040 -0.1325
  322loPI   C3A 5145  16.916  11.889   9.412  0.0897 -0.3076 -0.1970
  322loPI   C4A 5146  16.975  11.835   8.961 -0.1579  0.3565  0.5382
  322loPI   C5A 5147  17.010  11.752   8.546  0.2980 -0.2322  0.0050
  322loPI   C6A 5148  17.110  11.829   8.116 -0.2544  0.5167 -0.2147
  322loPI   C1B 5149  17.365  12.025  10.053  0.2009  0.0055  0.0573
  322loPI   C2B 5150  17.299  12.089   9.636 -0.2610 -0.0681 -0.4047
  322loPI   C3B 5151  17.432  12.067   9.264  0.0248 -0.0234  0.4054
  322loPI   C4B 5152  17.442  12.072   8.847 -0.1813 -0.2642  0.0851
  323loPI    C1 5153   0.681   3.673  11.262  0.0168 -0.3084  0.0100
  323loPI    C2 5154   0.929   3.773  11.560 -0.1166  0.0188  0.0151
  323loPI    C3 5155   0.577   3.600  11.642 -0.0062 -0.2060  0.0235
  323loPI   PO4 5156   0.681   3.802  11.044 -0.3166 -0.3145  0.1043
  323loPI   GL1 5157   0.430   3.755  10.656 -0.1055  0.1347 -0.2004
  323loPI   GL2 5158   0.358   4.029  10.447 -0.2746  0.3093 -0.1759
  323loPI   C1A 5159   0.411   3.594  10.234 -0.0956 -0.1902  0.2655
  323loPI   C2A 5160   0.476   3.535   9.784  0.0019 -0.0113 -0.0132
  323loPI   C3A 5161   0.475   3.556   9.417 -0.1092  0.0281  0.1942
  323loPI   C4A 5162   0.431   3.617   9.036  0.3139  0.1917 -0.2072
  323loPI   C5A 5163   0.569   3.740   8.709 -0.3785 -0.2365  0.0513
  323loPI   C6A 5164   1.018   4.071   8.530 -0.2195 -0.0058  0.1943
  323loPI   C1B 5165   0.429   4.160  10.056  0.0911 -0.0792 -0.0975
  323loPI   C2B 5166   0.499   4.036   9.587  0.2750  0.0520  0.1154
  323loPI   C3B 5167   0.442   4.146   9.176 -0.3020  0.0205  0.2406
  323loPI   C4B 5168   0.412   4.200   8.772 -0.0047 -0.0149  0.4328
  324loPI    C1 5169  14.546  17.543  11.770 -0.1438 -0.1118  0.1866
  324loPI    C2 5170  14.893  17.347  11.736  0.0794  0.2463  0.3352
  324loPI    C3 5171  14.608  17.208  11.979 -0.0497 -0.2721 -0.0926
  324loPI   PO4 5172  14.568  17.771  11.757  0.2316  0.2380  0.0994
  324loPI   GL1 5173  14.544  17.755  11.265  0.0647  0.1425  0.0905
  324loPI   GL2 5174  14.624  17.472  11.249 -0.1236  0.2342 -0.0505
  324loPI   C1A 5175  14.584  18.115  10.952  0.0723 -0.1481  0.2673
  324loPI   C2A 5176  14.743  18.126  10.583 -0.1232 -0.1188  0.2768
  324loPI   C3A 5177  14.730  18.291  10.115  0.1797  0.1464 -0.0629
  324loPI   C4A 5178  14.735  18.391   9.683 -0.1641 -0.0324 -0.3206
  324loPI   C5A 5179  14.738  18.303   9.332 -0.1291  0.3305  0.1533
  324loPI   C6A 5180  14.791  18.333   9.029  0.1534 -0.0916 -0.0114
  324loPI   C1B 5181  14.263  17.513  10.879  0.1725 -0.3913  0.0419
  324loPI   C2B 5182  14.171  17.478  10.454  0.0966 -0.1266  0.0745
  324loPI   C3B 5183  14.279  17.426  10.031 -0.3126  0.3309  0.0152
  324loPI   C4B 5184  14.286  17.588   9.616  0.5792 -0.1851 -0.0544
  325loPI    C1 5185   4.811   1.423  11.601  0.1571 -0.0726  0.1490
  325loPI    C2 5186   4.471   1.302  11.775  0.1097 -0.1795 -0.0156
  325loPI    C3 5187   4.793   1.381  11.998 -0.0541  0.0267  0.1516
  325loPI   PO4 5188   4.720   1.360  11.337 -0.0622  0.0646 -0.2369
  325loPI   GL1 5189   4.577   1.437  11.001 -0.0581  0.2899 -0.1800
  325loPI   GL2 5190   4.343   1.287  10.872  0.0683  0.1694 -0.2326
  325loPI   C1A 5191   4.474   1.732  10.603 -0.0746  0.2373  0.0225
  325loPI   C2A 5192   4.422   1.708  10.188 -0.2630 -0.1335 -0.0937
  325loPI   C3A 5193   4.482   1.703   9.693  0.2148 -0.2673 -0.1115
  325loPI   C4A 5194   4.327   1.647   9.272  0.2218 -0.1642  0.0838
  325loPI   C5A 5195   4.345   1.531   8.799 -0.0370 -0.1902 -0.0116
  325loPI   C6A 5196   4.375   1.161   8.742  0.0140  0.0087  0.0662
  325loPI   C1B 5197   4.468   1.180  10.398 -0.0330  0.0363 -0.0553
  325loPI   C2B 5198   4.503   1.285  10.069  0.1153  0.0749  0.0268
  325loPI   C3B 5199   4.462   1.241   9.558  0.2854  0.1027  0.2540
  325loPI   C4B 5200   4.489   1.191   9.198 -0.2013 -0.1860  0.0725
  326loPI    C1 5201  16.801   2.614  11.329  0.1957 -0.1964 -0.0451
  326loPI    C2 5202  17.148   2.623  11.528  0.0712 -0.0515  0.1697
  326loPI    C3 5203  16.816   2.492  11.710 -0.0520  0.1195  0.0707
  326loPI   PO4 5204  16.853   2.576  11.125 -0.5428 -0.1899 -0.1904
  326loPI   GL1 5205  17.179   2.616  10.802  0.0710 -0.2050 -0.1356
  326loPI   GL2 5206  16.814   2.756  10.631 -0.0758  0.1257  0.3512
  326loPI   C1A 5207  17.069   2.313  10.474 -0.0295 -0.0840  0.0048
  326loPI   C2A 5208  17.026   2.265   9.966 -0.1912 -0.0281  0.1731
  326loPI   C3A 5209  17.138   2.194   9.602 -0.2111 -0.1575 -0.0947
  326loPI   C4A 5210  16.926   2.306   9.183 -0.2979 -0.1928 -0.1029
  326loPI   C5A 5211  16.981   2.328   8.744  0.1898 -0.1045 -0.1500
  326loPI   C6A 5212  17.314   2.236   8.412  0.0165  0.1200 -0.2471
  326loPI   C1B 5213  16.983   2.764  10.354 -0.2014  0.1115  0.1454
  326loPI   C2B 5214  17.040   2.827   9.891 -0.1377 -0.2260  0.3177
  326loPI   C3B 5215  16.968   2.741   9.495  0.2109  0.1571  0.2651
  326loPI   C4B 5216  17.013   2.834   9.094  0.2473  0.0446  0.2818
  327loPI    C1 5217   3.254   8.462  11.430  0.1606 -0.0490  0.1702
  327loPI    C2 5218   2.922   8.302  11.584  0.1627 -0.1421  0.0788
  327loPI    C3 5219   3.150   8.543  11.808 -0.0151 -0.0033  0.1131
  327loPI   PO4 5220   3.246   8.413  11.216  0.4438 -0.0342 -0.1177
  327loPI   GL1 5221   3.150   8.740  10.878  0.1877  0.1681  0.1124
  327loPI   GL2 5222   3.403   9.077  10.784 -0.0201  0.0554 -0.0271
  327loPI   C1A 5223   3.071   8.835  10.457  0.1071  0.0836 -0.1304
  327loPI   C2A 5224   3.043   8.923   9.987 -0.1036 -0.1927 -0.0701
  327loPI   C3A 5225   3.049   8.935   9.577  0.2008 -0.1768 -0.0781
  327loPI   C4A 5226   3.033   8.907   9.102  0.3310 -0.2505  0.0484
  327loPI   C5A 5227   3.144   8.769   8.612 -0.1639  0.3814  0.2015
  327loPI   C6A 5228   3.245   8.987   8.190  0.0776 -0.1052  0.2587
  327loPI   C1B 5229   3.437   9.161  10.328 -0.2503 -0.1010  0.2323
  327loPI   C2B 5230   3.493   9.204   9.903 -0.1241 -0.3895  0.3253
  327loPI   C3B 5231   3.513   9.229   9.495 -0.0297  0.0158 -0.0049
  327loPI   C4B 5232   3.468   9.185   9.085  0.0131 -0.1103 -0.1848
  328loPI    C1 5233   5.178   2.225  11.631  0.1532 -0.0041  0.0599
  328loPI    C2 5234   5.426   2.538  11.639 -0.0479  0.1574  0.0548
  328loPI    C3 5235   5.570   2.171  11.574  0.1583  0.2795 -0.1977
  328loPI   PO4 5236   5.010   2.279  11.457 -0.0337  0.3496  0.2079
  328loPI   GL1 5237   4.974   2.383  11.085 -0.0643 -0.0972  0.1255
  328loPI   GL2 5238   4.760   2.445  10.884  0.4365 -0.0771  0.2094
  328loPI   C1A 5239   4.958   2.006  10.767 -0.1074 -0.0955 -0.0306
  328loPI   C2A 5240   4.845   1.915  10.343  0.1159 -0.0064  0.0836
  328loPI   C3A 5241   4.852   1.894   9.935 -0.1421 -0.2293 -0.0241
  328loPI   C4A 5242   4.970   2.118   9.555  0.4282 -0.1656  0.3506
  328loPI   C5A 5243   4.998   2.112   9.112 -0.3013 -0.2098 -0.1749
  328loPI   C6A 5244   5.265   2.239   8.771 -0.3768 -0.0544 -0.1689
  328loPI   C1B 5245   4.872   2.426  10.399 -0.0511  0.0190  0.3655
  328loPI   C2B 5246   4.870   2.412   9.971 -0.3759  0.0041  0.1175
  328loPI   C3B 5247   5.138   2.641   9.566 -0.0638  0.2822 -0.2613
  328loPI   C4B 5248   5.490   2.842   9.374  0.1064  0.0705 -0.3312
  329loPI    C1 5249   5.777  15.792  11.687 -0.0941  0.0328  0.0496
  329loPI    C2 5250   6.122  15.590  11.674 -0.1237 -0.0159  0.0147
  329loPI    C3 5251   6.044  15.836  11.981  0.0346  0.1612 -0.0851
  329loPI   PO4 5252   5.808  15.978  11.453 -0.1062  0.0513 -0.0690
  329loPI   GL1 5253   5.905  15.996  11.000  0.1430 -0.1354 -0.0905
  329loPI   GL2 5254   5.866  16.334  10.984 -0.2329 -0.2980 -0.1214
  329loPI   C1A 5255   6.154  15.914  10.675 -0.1790 -0.1734  0.1606
  329loPI   C2A 5256   6.137  16.068  10.233 -0.0843 -0.0946 -0.1872
  329loPI   C3A 5257   6.095  16.045   9.907 -0.1010 -0.0936  0.2456
  329loPI   C4A 5258   6.131  16.000   9.509 -0.1199  0.2779  0.0357
  329loPI   C5A 5259   6.125  15.918   9.069 -0.1276 -0.2653  0.2775
  329loPI   C6A 5260   6.177  15.881   8.650  0.0405 -0.2956 -0.0034
  329loPI   C1B 5261   5.789  16.260  10.558 -0.1091 -0.0297 -0.1441
  329loPI   C2B 5262   5.728  16.359  10.252 -0.2387  0.3767  0.1994
  329loPI   C3B 5263   5.641  16.243   9.836 -0.1838  0.2254 -0.1494
  329loPI   C4B 5264   5.721  16.226   9.463 -0.0538  0.1607  0.2652
  330loPI    C1 5265   6.558   1.683  10.997  0.1201 -0.2480 -0.0232
  330loPI    C2 5266   6.316   1.897  11.233  0.1294 -0.0611 -0.1799
  330loPI    C3 5267   6.606   1.672  11.394 -0.0580 -0.1776  0.0013
  330loPI   PO4 5268   6.414   1.650  10.753 -0.0024  0.0344 -0.1621
  330loPI   GL1 5269   6.395   1.402  10.432  0.0577  0.0200 -0.0543
  330loPI   GL2 5270   6.556   1.679  10.259 -0.1080 -0.2878  0.3198
  330loPI   C1A 5271   6.271   1.244  10.138  0.2068 -0.2260 -0.1206
  330loPI   C2A 5272   6.205   1.220   9.710  0.2924 -0.0308  0.2015
  330loPI   C3A 5273   6.153   1.155   9.306 -0.1428 -0.2956 -0.1132
  330loPI   C4A 5274   6.195   1.168   8.789  0.1911 -0.1585  0.2665
  330loPI   C5A 5275   5.812   1.135   8.457  0.2280 -0.0370  0.1481
  330loPI   C6A 5276   5.483   1.229   8.154 -0.0557 -0.0656  0.1336
  330loPI   C1B 5277   6.682   1.418   9.891  0.0670  0.0071  0.0771
  330loPI   C2B 5278   6.572   1.400   9.414 -0.0196  0.0813  0.0573
  330loPI   C3B 5279   6.590   1.473   8.926 -0.2433 -0.1091  0.1196
  330loPI   C4B 5280   6.573   1.487   8.514  0.3449 -0.0697 -0.0722
  331loPI    C1 5281  11.236  14.470  11.182  0.0479  0.0235 -0.1831
  331loPI    C2 5282  11.405  14.432  11.542  0.0656 -0.0986 -0.2040
  331loPI    C3 5283  11.144  14.157  11.413 -0.0161 -0.0029 -0.2437
  331loPI   PO4 5284  11.379  14.484  11.012 -0.1270 -0.0614  0.0444
  331loPI   GL1 5285  11.486  14.256  10.641 -0.1269 -0.1878 -0.3020
  331loPI   GL2 5286  11.415  13.949  10.639  0.1561 -0.0497 -0.1983
  331loPI   C1A 5287  11.595  14.347  10.252 -0.1509 -0.3051  0.2886
  331loPI   C2A 5288  11.533  14.370   9.831 -0.1388 -0.2047  0.1259
  331loPI   C3A 5289  11.566  14.261   9.392  0.1719 -0.5535  0.1097
  331loPI   C4A 5290  11.703  14.274   8.967  0.3017  0.0905 -0.0644
  331loPI   C5A 5291  11.738  14.424   8.477 -0.0420  0.2586  0.1053
  331loPI   C6A 5292  11.933  14.580   8.086  0.3856 -0.1265 -0.0154
  331loPI   C1B 5293  11.517  13.820  10.059  0.0371  0.0030  0.1629
  331loPI   C2B 5294  11.573  13.874   9.662  0.2080 -0.4207 -0.1607
  331loPI   C3B 5295  11.519  13.805   9.253  0.0085  0.1232 -0.0884
  331loPI   C4B 5296  11.684  13.787   8.867  0.1703  0.2314  0.2032
  332loPI    C1 5297   5.321  14.587  11.423 -0.1157  0.1059  0.2964
  332loPI    C2 5298   5.555  14.900  11.336  0.0279 -0.0695  0.0392
  332loPI    C3 5299   5.264  14.938  11.608 -0.2430  0.4149 -0.3013
  332loPI   PO4 5300   5.211  14.506  11.204 -0.0932  0.2192 -0.0505
  332loPI   GL1 5301   5.189  14.544  10.853  0.2132  0.1143  0.1541
  332loPI   GL2 5302   5.156  14.857  10.689 -0.3494  0.1669 -0.3495
  332loPI   C1A 5303   5.239  14.438  10.376  0.2666  0.0103 -0.1616
  332loPI   C2A 5304   5.237  14.419   9.995 -0.0241  0.1030 -0.3164
  332loPI   C3A 5305   5.296  14.441   9.573  0.3753  0.0587  0.1507
  332loPI   C4A 5306   5.294  14.394   9.117  0.0735 -0.0036 -0.0828
  332loPI   C5A 5307   5.084  14.570   8.739 -0.1667  0.0654 -0.1311
  332loPI   C6A 5308   4.619  14.555   8.684  0.2348 -0.2418 -0.2771
  332loPI   C1B 5309   5.246  14.941  10.254 -0.1484 -0.2985 -0.1024
  332loPI   C2B 5310   5.267  14.974   9.801 -0.2349 -0.0893  0.1211
  332loPI   C3B 5311   5.218  14.965   9.299  0.1694  0.1545 -0.0169
  332loPI   C4B 5312   5.327  14.955   8.861 -0.1665 -0.3821  0.2726
  333loPI    C1 5313  11.322  12.434  11.162 -0.1259  0.1102 -0.2059
  333loPI    C2 5314  11.117  12.191  11.405 -0.1388  0.1534 -0.1736
  333loPI    C3 5315  11.214  12.559  11.527  0.4761 -0.0684  0.0460
  333loPI   PO4 5316  11.254  12.404  10.956  0.0342  0.1317  0.1185
  333loPI   GL1 5317  11.080  12.629  10.656 -0.2448  0.2402  0.1682
  333loPI   GL2 5318  10.793  12.575  10.628 -0.2057  0.0835 -0.2352
  333loPI   C1A 5319  11.123  12.468  10.231  0.0072 -0.0450  0.0833
  333loPI   C2A 5320  11.123  12.523   9.751 -0.2447 -0.0149 -0.0349
  333loPI   C3A 5321  11.061  12.547   9.377 -0.1811 -0.0234 -0.2637
  333loPI   C4A 5322  11.058  12.529   8.922 -0.3146 -0.0191 -0.1767
  333loPI   C5A 5323  11.188  12.786   8.525 -0.2330 -0.1248  0.1523
  333loPI   C6A 5324  11.096  13.217   8.338 -0.3096  0.0738  0.0273
  333loPI   C1B 5325  10.725  12.843  10.298  0.1845 -0.3109  0.1851
  333loPI   C2B 5326  10.540  12.904   9.954 -0.1199 -0.0506 -0.0263
  333loPI   C3B 5327  10.677  12.774   9.604  0.0340 -0.0457  0.0310
  333loPI   C4B 5328  10.616  12.743   9.245 -0.1591 -0.3114 -0.0705
  334loPI    C1 5329   0.378   5.924  11.162  0.1620  0.3399  0.0087
  334loPI    C2 5330   0.745   5.765  11.151  0.1251  0.2506  0.0554
  334loPI    C3 5331   0.636   5.994  11.460  0.0314  0.0063  0.2066
  334loPI   PO4 5332   0.355   5.898  10.839  0.2920  0.0768  0.1211
  334loPI   GL1 5333   0.477   6.036  10.498  0.0192 -0.0910  0.1376
  334loPI   GL2 5334   0.398   6.299  10.288  0.1502 -0.0293  0.0815
  334loPI   C1A 5335   0.530   5.769  10.094 -0.0814  0.2958 -0.0768
  334loPI   C2A 5336   0.521   5.702   9.623 -0.3745  0.1000  0.2345
  334loPI   C3A 5337   0.541   5.664   9.109  0.0870  0.1828  0.0210
  334loPI   C4A 5338   0.382   5.564   8.726 -0.2194 -0.2172 -0.0944
  334loPI   C5A 5339   0.036   5.547   8.438  0.1753  0.1529 -0.2106
  334loPI   C6A 5340  -0.225   5.502   8.056  0.2331 -0.2313 -0.0502
  334loPI   C1B 5341   0.406   6.195   9.803 -0.1835 -0.1687 -0.0206
  334loPI   C2B 5342   0.400   6.214   9.331 -0.1872 -0.1778  0.0915
  334loPI   C3B 5343   0.482   6.155   8.902 -0.0528 -0.3777 -0.0895
  334loPI   C4B 5344   0.855   5.945   8.572  0.1085 -0.0323  0.0434
  335loPI    C1 5345   8.541   5.783  10.866  0.1699 -0.0170 -0.2423
  335loPI    C2 5346   8.352   6.009  11.136  0.2255  0.1386 -0.3322
  335loPI    C3 5347   8.539   5.675  11.251  0.0731  0.0936 -0.2112
  335loPI   PO4 5348   8.357   5.753  10.647 -0.1633 -0.1073  0.1699
  335loPI   GL1 5349   8.289   5.856  10.145 -0.3571 -0.0252 -0.1953
  335loPI   GL2 5350   8.309   6.166  10.215 -0.0421  0.3148  0.0468
  335loPI   C1A 5351   8.508   5.751   9.771 -0.2791  0.0361 -0.2271
  335loPI   C2A 5352   8.419   5.990   9.393 -0.0464 -0.2016  0.5509
  335loPI   C3A 5353   8.537   5.951   8.992 -0.1988  0.2210 -0.1284
  335loPI   C4A 5354   8.628   5.813   8.659 -0.0672  0.2129 -0.0696
  335loPI   C5A 5355   8.307   5.576   8.515 -0.0776 -0.1459 -0.0141
  335loPI   C6A 5356   8.158   5.273   8.250 -0.0175 -0.2062 -0.0799
  335loPI   C1B 5357   8.150   6.248   9.728  0.1820 -0.0146  0.1423
  335loPI   C2B 5358   8.242   6.545   9.445 -0.1305 -0.3110  0.2377
  335loPI   C3B 5359   8.569   6.871   9.383 -0.2841 -0.1643 -0.1369
  335loPI   C4B 5360   9.068   6.907   9.411  0.1310 -0.1028 -0.0757
  336loPI    C1 5361  17.189   0.966  11.584 -0.1274 -0.1564 -0.1296
  336loPI    C2 5362  17.357   0.691  11.821  0.0771 -0.0103 -0.1031
  336loPI    C3 5363  17.021   0.875  11.935  0.1404  0.0143  0.0462
  336loPI   PO4 5364  17.095   0.942  11.403 -0.2737  0.3383  0.2108
  336loPI   GL1 5365  17.087   1.126  11.065 -0.3564  0.0553 -0.2010
  336loPI   GL2 5366  17.322   0.992  10.820  0.1075  0.4304  0.5396
  336loPI   C1A 5367  16.957   1.233  10.635  0.2708  0.0506 -0.0898
  336loPI   C2A 5368  16.955   1.228  10.241  0.2823  0.0974 -0.0372
  336loPI   C3A 5369  17.045   1.186   9.817 -0.0027 -0.0946 -0.0339
  336loPI   C4A 5370  17.070   1.261   9.330  0.0420  0.0929 -0.0387
  336loPI   C5A 5371  17.154   1.126   8.834  0.0551 -0.3161 -0.2135
  336loPI   C6A 5372  17.538   1.272   8.699 -0.2132 -0.0210  0.2347
  336loPI   C1B 5373  17.523   0.982  10.432  0.1103 -0.0439 -0.1978
  336loPI   C2B 5374  17.465   0.942   9.944  0.2198  0.3561  0.2541
  336loPI   C3B 5375  17.452   1.071   9.608  0.1326  0.1608 -0.1151
  336loPI   C4B 5376  17.472   0.924   9.217 -0.0090 -0.0472  0.0649
  337loPI    C1 5377  13.039  15.847  11.603 -0.0376 -0.0756  0.0536
  337loPI    C2 5378  13.350  16.070  11.718  0.0648 -0.1477 -0.0813
  337loPI    C3 5379  12.996  16.114  11.899  0.1040  0.0676 -0.0534
  337loPI   PO4 5380  13.202  15.739  11.333 -0.0807 -0.0464 -0.1833
  337loPI   GL1 5381  13.435  15.813  11.030 -0.2724 -0.1833  0.1843
  337loPI   GL2 5382  13.603  15.609  11.012  0.1933 -0.0879 -0.1336
  337loPI   C1A 5383  13.349  15.950  10.642 -0.1587 -0.0776  0.0791
  337loPI   C2A 5384  13.319  15.915  10.132  0.1866  0.2025 -0.1628
  337loPI   C3A 5385  13.353  15.805   9.697  0.2301 -0.0609 -0.5248
  337loPI   C4A 5386  13.296  15.860   9.249  0.0256  0.0779  0.4893
  337loPI   C5A 5387  13.469  15.844   8.799  0.1974  0.0709 -0.3548
  337loPI   C6A 5388  13.719  15.543   8.544 -0.3795  0.2997  0.1767
  337loPI   C1B 5389  13.761  15.647  10.479 -0.0986 -0.0979  0.0991
  337loPI   C2B 5390  13.751  15.680  10.038 -0.2429  0.2956  0.0218
  337loPI   C3B 5391  13.852  15.651   9.608 -0.2361  0.1084  0.2648
  337loPI   C4B 5392  13.841  15.653   9.200 -0.1806 -0.2799 -0.1498
  338loPI    C1 5393  12.950  16.396  11.508  0.1640 -0.0658 -0.1522
  338loPI    C2 5394  12.565  16.307  11.570  0.2398 -0.3355 -0.0562
  338loPI    C3 5395  12.677  16.688  11.521  0.0375 -0.1979  0.4786
  338loPI   PO4 5396  13.042  16.292  11.341 -0.4967  0.0881 -0.3356
  338loPI   GL1 5397  13.060  16.168  10.975 -0.6121  0.1616 -0.2582
  338loPI   GL2 5398  13.223  16.391  10.885  0.0557  0.4339  0.0331
  338loPI   C1A 5399  12.859  16.070  10.629  0.2395 -0.1575 -0.3481
  338loPI   C2A 5400  12.835  16.172  10.226  0.1202  0.1585  0.2629
  338loPI   C3A 5401  12.894  16.232   9.841  0.0400  0.1038 -0.3466
  338loPI   C4A 5402  12.837  16.141   9.387  0.0309  0.1675  0.2266
  338loPI   C5A 5403  12.923  16.212   8.902  0.0454  0.0412  0.1305
  338loPI   C6A 5404  12.966  16.235   8.450 -0.3070 -0.1667 -0.2372
  338loPI   C1B 5405  13.314  16.403  10.449 -0.1391  0.1596  0.0879
  338loPI   C2B 5406  13.352  16.452   9.976  0.2166 -0.0879 -0.1606
  338loPI   C3B 5407  13.392  16.283   9.558  0.0886  0.1125 -0.2949
  338loPI   C4B 5408  13.406  16.446   9.206  0.0339 -0.0943 -0.0266
  339loPI    C1 5409  12.072   9.867  11.258 -0.3168 -0.0407  0.0025
  339loPI    C2 5410  11.800   9.923  11.546 -0.0506 -0.0465  0.2595
  339loPI    C3 5411  12.186   9.877  11.641  0.0392 -0.0655 -0.0992
  339loPI   PO4 5412  11.905   9.720  11.084  0.1919 -0.1269 -0.2488
  339loPI   GL1 5413  11.952   9.648  10.686 -0.1833 -0.1237  0.3733
  339loPI   GL2 5414  12.312   9.641  10.729  0.3274  0.0496 -0.0279
  339loPI   C1A 5415  12.003   9.739  10.296  0.3172  0.0859  0.1118
  339loPI   C2A 5416  12.040   9.739   9.846 -0.0602 -0.1009  0.0235
  339loPI   C3A 5417  12.034   9.751   9.464  0.0030  0.1185  0.0606
  339loPI   C4A 5418  11.976   9.884   9.111 -0.0155 -0.0999 -0.1824
  339loPI   C5A 5419  11.687  10.054   8.767  0.0306 -0.2981  0.0827
  339loPI   C6A 5420  11.387  10.065   8.417  0.0917  0.4951  0.0350
  339loPI   C1B 5421  12.437   9.581  10.336  0.0344 -0.0649 -0.0194
  339loPI   C2B 5422  12.482   9.515   9.989 -0.2626  0.0741  0.0924
  339loPI   C3B 5423  12.507   9.554   9.591  0.0642  0.1939 -0.0206
  339loPI   C4B 5424  12.467   9.679   9.204  0.2574 -0.0751 -0.0822
  340loPI    C1 5425  16.714   5.633  11.178 -0.2239 -0.0470  0.1246
  340loPI    C2 5426  17.022   5.447  11.352 -0.0097  0.0235 -0.1714
  340loPI    C3 5427  16.657   5.285  11.366  0.0543 -0.1028  0.1104
  340loPI   PO4 5428  16.907   5.871  10.951  0.0704 -0.3668  0.1882
  340loPI   GL1 5429  17.047   5.959  10.520 -0.2627 -0.0769  0.0761
  340loPI   GL2 5430  17.049   5.599  10.558 -0.3563  0.1921  0.2445
  340loPI   C1A 5431  17.003   5.960  10.065  0.0592 -0.0661  0.0092
  340loPI   C2A 5432  16.909   5.920   9.556 -0.1735  0.0691 -0.4231
  340loPI   C3A 5433  17.021   5.990   9.080  0.0459  0.0395 -0.2750
  340loPI   C4A 5434  17.100   6.133   8.660 -0.1476  0.0643 -0.1500
  340loPI   C5A 5435  17.328   6.294   8.320  0.2261  0.1407 -0.1879
  340loPI   C6A 5436  17.414   6.335   7.848 -0.0732 -0.1956 -0.1696
  340loPI   C1B 5437  17.042   5.342  10.119  0.0174  0.0054 -0.3136
  340loPI   C2B 5438  16.949   5.416   9.702 -0.2264  0.1158  0.2447
  340loPI   C3B 5439  17.050   5.473   9.288 -0.1580 -0.0398 -0.0703
  340loPI   C4B 5440  17.014   5.541   8.805  0.0540 -0.2493  0.0397
  341loPI    C1 5441   4.240   7.942  11.268  0.0390 -0.1421  0.0721
  341loPI    C2 5442   4.044   7.776  11.575  0.1262  0.1171  0.2722
  341loPI    C3 5443   4.443   7.757  11.560  0.1000 -0.3284 -0.0862
  341loPI   PO4 5444   4.070   7.942  11.052 -0.1404 -0.1961  0.0478
  341loPI   GL1 5445   3.803   7.996  10.695 -0.0623  0.0027  0.0992
  341loPI   GL2 5446   3.960   7.890  10.570 -0.2283  0.1418 -0.1532
  341loPI   C1A 5447   3.553   8.161  10.279 -0.2589 -0.3184  0.0165
  341loPI   C2A 5448   3.481   8.177   9.840 -0.2349  0.3424  0.1891
  341loPI   C3A 5449   3.493   8.193   9.446 -0.1387 -0.2723  0.0878
  341loPI   C4A 5450   3.566   8.106   9.094 -0.1545 -0.1491  0.0234
  341loPI   C5A 5451   3.400   8.281   8.638  0.0346  0.0609  0.1786
  341loPI   C6A 5452   3.384   8.492   8.219  0.0982  0.0128 -0.2101
  341loPI   C1B 5453   3.964   7.861  10.072 -0.2544  0.0496  0.3362
  341loPI   C2B 5454   3.942   7.914   9.605 -0.1284  0.1007  0.0099
  341loPI   C3B 5455   3.972   7.889   9.117 -0.0032  0.3055  0.1411
  341loPI   C4B 5456   3.713   7.871   8.695  0.0677 -0.1488 -0.0828
  342loPI    C1 5457   2.008  12.340  11.566  0.2828 -0.0404  0.0255
  342loPI    C2 5458   2.035  12.556  11.902  0.1617  0.1486 -0.0840
  342loPI    C3 5459   2.008  12.157  11.922 -0.3711  0.1880  0.1580
  342loPI   PO4 5460   1.790  12.456  11.469 -0.1394 -0.1262 -0.2780
  342loPI   GL1 5461   1.739  12.539  11.085  0.0578 -0.2827 -0.0449
  342loPI   GL2 5462   1.829  12.208  11.031  0.2256  0.0123  0.1913
  342loPI   C1A 5463   2.166  12.624  10.779 -0.2734  0.1809  0.0024
  342loPI   C2A 5464   2.199  12.540  10.352  0.0318 -0.3089 -0.1464
  342loPI   C3A 5465   2.201  12.580  10.029  0.0007 -0.0076 -0.0373
  342loPI   C4A 5466   2.198  12.559   9.580 -0.0039 -0.6537  0.3041
  342loPI   C5A 5467   2.207  12.526   9.139 -0.0940 -0.2202  0.0489
  342loPI   C6A 5468   2.065  12.441   8.663 -0.1688 -0.0042 -0.0347
  342loPI   C1B 5469   1.763  12.353  10.632  0.1839  0.1050  0.0242
  342loPI   C2B 5470   1.742  12.284  10.212  0.2912  0.2074 -0.0001
  342loPI   C3B 5471   1.762  12.338   9.775 -0.1607 -0.3142  0.0432
  342loPI   C4B 5472   1.775  12.368   9.382  0.2180  0.2332  0.3946
  343loPI    C1 5473  16.667   7.550  10.797  0.0757 -0.0470 -0.0318
  343loPI    C2 5474  16.555   7.911  10.928  0.0813  0.0159 -0.1989
  343loPI    C3 5475  16.798   7.685  11.150 -0.1026  0.0201  0.0098
  343loPI   PO4 5476  16.717   7.567  10.579 -0.0197 -0.4021 -0.1645
  343loPI   GL1 5477  16.943   7.675  10.275  0.1831 -0.0231  0.0114
  343loPI   GL2 5478  16.884   7.996  10.213  0.1292  0.0002  0.1576
  343loPI   C1A 5479  16.859   7.484   9.929 -0.0988 -0.1251 -0.0722
  343loPI   C2A 5480  16.975   7.533   9.508 -0.0929  0.3364 -0.0950
  343loPI   C3A 5481  16.989   7.637   9.113  0.0192  0.3276 -0.0254
  343loPI   C4A 5482  17.019   7.628   8.550 -0.4899  0.0770 -0.0424
  343loPI   C5A 5483  17.455   7.539   8.286  0.0765 -0.0835  0.2364
  343loPI   C6A 5484  17.861   7.669   8.431  0.3194  0.0005 -0.2132
  343loPI   C1B 5485  16.933   8.000   9.764  0.1804  0.2374 -0.3590
  343loPI   C2B 5486  16.997   8.111   9.288 -0.0232  0.0433 -0.2365
  343loPI   C3B 5487  16.996   8.056   8.859  0.0240 -0.0841 -0.0910
  343loPI   C4B 5488  16.962   8.232   8.499 -0.0512 -0.2197  0.0451
  344loPI    C1 5489  14.840   0.660  11.606 -0.0138  0.1284 -0.1107
  344loPI    C2 5490  14.520   0.520  11.411  0.1423 -0.0115 -0.2706
  344loPI    C3 5491  14.752   0.270  11.619  0.0959  0.1046 -0.0767
  344loPI   PO4 5492  14.990   0.781  11.448 -0.0122 -0.2363 -0.0134
  344loPI   GL1 5493  14.719   0.861  11.037 -0.0474  0.5363 -0.2172
  344loPI   GL2 5494  14.970   1.113  10.925  0.2529 -0.0724 -0.2539
  344loPI   C1A 5495  14.705   0.712  10.698 -0.3034  0.2309 -0.2110
  344loPI   C2A 5496  14.689   0.838  10.276 -0.3043 -0.1947  0.0841
  344loPI   C3A 5497  14.736   0.953   9.871 -0.1023 -0.1612  0.2218
  344loPI   C4A 5498  14.761   0.947   9.453  0.2157 -0.0228 -0.1635
  344loPI   C5A 5499  14.821   0.997   8.995  0.0128 -0.2422 -0.0174
  344loPI   C6A 5500  15.219   0.899   8.674  0.0055 -0.2117  0.1695
  344loPI   C1B 5501  15.088   1.308  10.465  0.0885  0.1945 -0.0119
  344loPI   C2B 5502  15.148   1.181  10.026  0.0874  0.3196 -0.1327
  344loPI   C3B 5503  15.214   1.152   9.591  0.0417 -0.1128  0.2232
  344loPI   C4B 5504  15.321   1.252   9.057  0.5704 -0.2727  0.0511
  345loPI    C1 5505   9.767  14.793  11.059  0.2480  0.0776 -0.0952
  345loPI    C2 5506   9.891  14.991  11.384 -0.1535  0.0488  0.0805
  345loPI    C3 5507   9.868  15.180  11.033  0.1204  0.1259  0.1018
  345loPI   PO4 5508   9.812  14.580  11.055 -0.0176  0.1845  0.2543
  345loPI   GL1 5509  10.025  14.276  10.705 -0.2458 -0.0389  0.0623
  345loPI   GL2 5510   9.713  14.335  10.649  0.0033 -0.4206  0.0109
  345loPI   C1A 5511  10.172  14.147  10.337  0.0850 -0.2413 -0.0447
  345loPI   C2A 5512  10.204  14.086   9.859 -0.5680  0.1488 -0.1769
  345loPI   C3A 5513  10.214  14.063   9.386 -0.3168 -0.1197 -0.1583
  345loPI   C4A 5514  10.311  13.972   8.995  0.2656 -0.0710 -0.2641
  345loPI   C5A 5515  10.241  14.094   8.563  0.0324 -0.2662 -0.4156
  345loPI   C6A 5516  10.513  14.086   8.218  0.2596  0.1423 -0.2281
  345loPI   C1B 5517   9.713  14.411  10.298  0.1207 -0.1564 -0.0006
  345loPI   C2B 5518   9.770  14.389   9.838 -0.2537 -0.0790 -0.1389
  345loPI   C3B 5519   9.831  14.321   9.326  0.0781 -0.1543  0.2505
  345loPI   C4B 5520   9.917  14.238   8.925 -0.2139  0.2363  0.1955
  346loPI    C1 5521   1.067  13.984  11.551 -0.0840 -0.0588  0.0364
  346loPI    C2 5522   1.086  14.088  11.937  0.0963 -0.2797  0.0893
  346loPI    C3 5523   0.751  13.927  11.789 -0.1094  0.1652  0.0577
  346loPI   PO4 5524   1.269  14.125  11.387  0.2004 -0.1014 -0.2003
  346loPI   GL1 5525   1.381  14.081  11.063  0.1014 -0.0298 -0.2307
  346loPI   GL2 5526   1.326  13.746  11.094 -0.1785 -0.0330 -0.0505
  346loPI   C1A 5527   1.665  14.013  10.657  0.0675 -0.3539  0.0790
  346loPI   C2A 5528   1.644  13.922  10.225 -0.0075  0.1908  0.0624
  346loPI   C3A 5529   1.737  13.869   9.805  0.1686  0.2749  0.0665
  346loPI   C4A 5530   1.784  13.927   9.237 -0.0975 -0.0227  0.0280
  346loPI   C5A 5531   1.508  13.726   8.870 -0.0699 -0.2069 -0.2009
  346loPI   C6A 5532   1.066  13.648   8.878 -0.1259  0.0034  0.0807
  346loPI   C1B 5533   1.259  13.725  10.564  0.1365  0.1177  0.0363
  346loPI   C2B 5534   1.303  13.602  10.118 -0.1050 -0.1562 -0.1307
  346loPI   C3B 5535   1.294  13.590   9.808 -0.2313 -0.1596 -0.0918
  346loPI   C4B 5536   1.247  13.634   9.459 -0.1630 -0.0206  0.2963
  347loPI    C1 5537   9.651   2.799  11.482 -0.1726 -0.0082 -0.1776
  347loPI    C2 5538   9.408   3.043  11.685 -0.1812 -0.0733 -0.1092
  347loPI    C3 5539   9.569   2.724  11.866  0.2796  0.1930 -0.0345
  347loPI   PO4 5540   9.518   2.801  11.206 -0.0762  0.1409  0.0235
  347loPI   GL1 5541   9.692   2.975  10.807  0.1571  0.0531  0.0806
  347loPI   GL2 5542   9.519   2.669  10.676 -0.0433  0.2120 -0.1395
  347loPI   C1A 5543   9.840   2.897  10.387  0.0712 -0.0624 -0.1008
  347loPI   C2A 5544   9.887   2.834   9.977  0.0317  0.1269 -0.0585
  347loPI   C3A 5545   9.898   2.986   9.582 -0.1999  0.1862 -0.0175
  347loPI   C4A 5546  10.080   3.014   9.191  0.2384  0.1250 -0.0006
  347loPI   C5A 5547  10.112   3.193   8.680  0.0694  0.1512 -0.3355
  347loPI   C6A 5548  10.120   3.230   8.185  0.0975 -0.0283  0.4573
  347loPI   C1B 5549   9.743   2.352  10.311 -0.1894  0.2059 -0.2020
  347loPI   C2B 5550   9.869   2.365   9.800 -0.2003  0.0074 -0.0544
  347loPI   C3B 5551  10.077   2.524   9.472  0.1216  0.1091  0.0439
  347loPI   C4B 5552  10.266   2.320   9.137 -0.0995  0.2751  0.0476
  348loPI    C1 5553   3.135  16.259  11.381  0.3387 -0.0374  0.0476
  348loPI    C2 5554   2.923  16.598  11.385 -0.2151 -0.3724  0.1342
  348loPI    C3 5555   3.241  16.559  11.625 -0.2640  0.0093  0.2694
  348loPI   PO4 5556   3.102  16.209  11.106 -0.1687 -0.2333 -0.2799
  348loPI   GL1 5557   2.928  16.422  10.910 -0.1083 -0.3459  0.1979
  348loPI   GL2 5558   2.898  16.851  10.935  0.2655  0.1879 -0.0108
  348loPI   C1A 5559   3.048  16.295  10.417 -0.0864 -0.3867  0.2467
  348loPI   C2A 5560   3.067  16.186   9.956  0.1113  0.0665  0.1494
  348loPI   C3A 5561   3.057  16.296   9.564 -0.1501  0.1057 -0.1199
  348loPI   C4A 5562   3.166  16.202   9.077  0.0909 -0.0337  0.1669
  348loPI   C5A 5563   3.224  15.944   8.656  0.2866  0.2777 -0.0087
  348loPI   C6A 5564   3.291  16.142   8.277 -0.2170 -0.2676 -0.0304
  348loPI   C1B 5565   3.038  16.842  10.531 -0.0455 -0.2867  0.1115
  348loPI   C2B 5566   3.138  16.868  10.076  0.2173 -0.0875 -0.0653
  348loPI   C3B 5567   3.026  16.759   9.633 -0.2624  0.1924 -0.1258
  348loPI   C4B 5568   3.076  16.697   9.177  0.0758  0.5477 -0.1321
  349loPI    C1 5569  16.163  17.378  11.286 -0.0069 -0.0233  0.0165
  349loPI    C2 5570  15.838  17.608  11.329  0.0547  0.0823 -0.0795
  349loPI    C3 5571  16.164  17.680  11.549 -0.0565 -0.1535  0.1677
  349loPI   PO4 5572  16.098  17.307  11.081 -0.0626 -0.2439 -0.1276
  349loPI   GL1 5573  16.305  17.438  10.675 -0.0195  0.1921 -0.1531
  349loPI   GL2 5574  16.067  17.582  10.602  0.0654  0.1706  0.0577
  349loPI   C1A 5575  16.437  17.170  10.279  0.2994 -0.2468  0.0000
  349loPI   C2A 5576  16.474  17.094   9.874 -0.2080 -0.0459  0.2019
  349loPI   C3A 5577  16.584  17.263   9.455 -0.0148  0.1146  0.2119
  349loPI   C4A 5578  16.451  17.399   9.102  0.1565 -0.0356  0.2004
  349loPI   C5A 5579  16.483  17.680   8.698 -0.0574  0.1057  0.1582
  349loPI   C6A 5580  16.709  17.455   8.348 -0.2027  0.0341  0.1488
  349loPI   C1B 5581  16.030  17.412  10.116 -0.0127 -0.0306 -0.0460
  349loPI   C2B 5582  16.127  17.402   9.643  0.1526 -0.1054 -0.0364
  349loPI   C3B 5583  16.055  17.643   9.337 -0.0380  0.2080  0.1398
  349loPI   C4B 5584  16.013  17.596   8.890  0.0470 -0.0438  0.0423
  350loPI    C1 5585  14.150  17.049  11.694 -0.1699 -0.0800  0.0992
  350loPI    C2 5586  14.122  17.315  11.991 -0.0572 -0.0390  0.0736
  350loPI    C3 5587  14.198  16.931  12.073 -0.1150 -0.0440  0.1035
  350loPI   PO4 5588  14.326  17.069  11.570  0.3854 -0.0719  0.4698
  350loPI   GL1 5589  14.368  17.004  11.115  0.0204  0.3330  0.0129
  350loPI   GL2 5590  14.030  17.035  11.108  0.0371  0.0127  0.1170
  350loPI   C1A 5591  14.648  17.105  10.908  0.3605 -0.1303 -0.0008
  350loPI   C2A 5592  14.656  17.204  10.532 -0.0388 -0.0129 -0.1942
  350loPI   C3A 5593  14.728  17.157  10.090 -0.1151  0.0721 -0.2462
  350loPI   C4A 5594  14.656  17.224   9.576 -0.0227  0.1475  0.3536
  350loPI   C5A 5595  14.470  17.342   9.248  0.1420 -0.3684 -0.2734
  350loPI   C6A 5596  14.350  17.040   8.931 -0.1941 -0.1240  0.1064
  350loPI   C1B 5597  14.167  17.010  10.681 -0.2778 -0.0007 -0.1383
  350loPI   C2B 5598  14.221  16.872  10.310  0.1604 -0.0962 -0.0928
  350loPI   C3B 5599  14.352  16.958   9.888 -0.0478 -0.1024  0.0827
  350loPI   C4B 5600  14.316  16.877   9.413  0.2393  0.1285  0.0716
  351loPI    C1 5601   6.385   2.379  11.317  0.0383  0.2426  0.0122
  351loPI    C2 5602   6.714   2.510  11.503  0.1349  0.2775 -0.1809
  351loPI    C3 5603   6.551   2.160  11.607  0.1533  0.3245  0.0088
  351loPI   PO4 5604   6.396   2.332  11.030  0.1641 -0.1812  0.1324
  351loPI   GL1 5605   6.162   2.101  10.718 -0.1338  0.0112 -0.2577
  351loPI   GL2 5606   5.958   2.337  10.735  0.0111 -0.0072 -0.2456
  351loPI   C1A 5607   6.144   1.972  10.230 -0.0232  0.0026 -0.1404
  351loPI   C2A 5608   6.215   1.665   9.917 -0.1747  0.0243  0.0763
  351loPI   C3A 5609   6.136   1.687   9.446  0.3674 -0.0923 -0.3971
  351loPI   C4A 5610   6.148   1.623   9.025  0.0401  0.2238 -0.0438
  351loPI   C5A 5611   6.103   1.650   8.608 -0.1338 -0.0033 -0.3452
  351loPI   C6A 5612   5.903   1.702   8.316  0.1753  0.0169 -0.2974
  351loPI   C1B 5613   5.739   2.188  10.362 -0.0307  0.2120 -0.1070
  351loPI   C2B 5614   5.770   2.117   9.957  0.1294  0.0767  0.1216
  351loPI   C3B 5615   5.772   2.013   9.582  0.2715  0.0740  0.2468
  351loPI   C4B 5616   5.806   1.906   9.165  0.0703 -0.1521 -0.0083
  352loPI    C1 5617   4.465   5.624  11.005 -0.0601  0.3193 -0.1666
  352loPI    C2 5618   4.436   5.972  11.201 -0.3017  0.1408  0.1242
  352loPI    C3 5619   4.359   5.629  11.391 -0.1493 -0.0682 -0.1828
  352loPI   PO4 5620   4.418   5.652  10.789 -0.0996 -0.2349 -0.0211
  352loPI   GL1 5621   4.318   5.937  10.603  0.1774 -0.3516  0.1563
  352loPI   GL2 5622   4.086   5.732  10.386  0.1105 -0.1717 -0.0418
  352loPI   C1A 5623   4.427   6.051  10.205 -0.0214 -0.0207  0.1427
  352loPI   C2A 5624   4.202   5.866   9.826 -0.0553 -0.1523 -0.1208
  352loPI   C3A 5625   4.230   5.686   9.389  0.1551  0.2237  0.1185
  352loPI   C4A 5626   4.363   5.762   9.014  0.4334 -0.0731 -0.2558
  352loPI   C5A 5627   4.701   5.506   8.754  0.0183 -0.0068 -0.0472
  352loPI   C6A 5628   5.130   5.309   8.702 -0.2845  0.1066 -0.1273
  352loPI   C1B 5629   4.215   5.429  10.105  0.3819 -0.1907  0.0590
  352loPI   C2B 5630   4.416   5.237   9.607 -0.0356 -0.0306 -0.5650
  352loPI   C3B 5631   4.482   5.282   9.160 -0.0588 -0.1076 -0.0250
  352loPI   C4B 5632   4.261   5.292   8.739  0.0633 -0.2160  0.1294
  353loPI    C1 5633   5.205  15.412  11.453  0.2183 -0.0342 -0.0009
  353loPI    C2 5634   5.556  15.374  11.642  0.2393  0.2038  0.0115
  353loPI    C3 5635   5.278  15.623  11.785  0.0753  0.0382 -0.0149
  353loPI   PO4 5636   5.278  15.451  11.186 -0.2187  0.1005 -0.0920
  353loPI   GL1 5637   5.139  15.362  10.846  0.0732  0.1533 -0.1000
  353loPI   GL2 5638   4.814  15.298  10.764 -0.4503  0.2010 -0.0010
  353loPI   C1A 5639   5.276  15.480  10.348 -0.2652  0.0748 -0.0817
  353loPI   C2A 5640   5.224  15.452   9.859 -0.2161  0.0368  0.3557
  353loPI   C3A 5641   5.267  15.446   9.436 -0.0619 -0.1795  0.1410
  353loPI   C4A 5642   5.209  15.492   8.991  0.0615 -0.2979 -0.2813
  353loPI   C5A 5643   5.190  15.486   8.531  0.0533 -0.0562 -0.0191
  353loPI   C6A 5644   5.040  15.448   8.098  0.1525 -0.0755 -0.2174
  353loPI   C1B 5645   4.823  15.186  10.345  0.0085  0.0370 -0.0896
  353loPI   C2B 5646   4.798  15.153   9.941  0.4107  0.0411 -0.2415
  353loPI   C3B 5647   4.859  15.194   9.516  0.0793  0.3149 -0.4123
  353loPI   C4B 5648   4.867  15.156   9.006  0.1401 -0.0928  0.2013
  354loPI    C1 5649  14.536   2.423  11.426  0.0967 -0.3636  0.3681
  354loPI    C2 5650  14.283   2.672  11.611 -0.0188 -0.0807 -0.1506
  354loPI    C3 5651  14.302   2.288  11.721 -0.1746  0.0475  0.3504
  354loPI   PO4 5652  14.551   2.459  11.127 -0.0259 -0.0139 -0.1678
  354loPI   GL1 5653  14.508   2.607  10.763 -0.3002 -0.3606 -0.2310
  354loPI   GL2 5654  14.687   2.918  10.672 -0.4237  0.2223 -0.0409
  354loPI   C1A 5655  14.681   2.485  10.339  0.1873 -0.0134 -0.1512
  354loPI   C2A 5656  14.729   2.504   9.932 -0.0932 -0.0682  0.1244
  354loPI   C3A 5657  14.739   2.487   9.573 -0.0081 -0.1462 -0.2647
  354loPI   C4A 5658  14.693   2.563   9.180 -0.2708  0.1282  0.0857
  354loPI   C5A 5659  14.805   2.640   8.820 -0.3461  0.2270 -0.0861
  354loPI   C6A 5660  14.742   2.476   8.403  0.1278  0.0083  0.1805
  354loPI   C1B 5661  14.736   2.939  10.212 -0.0508  0.2069  0.0940
  354loPI   C2B 5662  14.721   3.005   9.822 -0.0803  0.2913 -0.1114
  354loPI   C3B 5663  14.716   3.028   9.325 -0.0335 -0.0571 -0.0140
  354loPI   C4B 5664  14.804   3.142   8.940 -0.2629 -0.1932  0.4320
  355loPI    C1 5665  15.120  10.101  10.907 -0.0127 -0.2591 -0.0490
  355loPI    C2 5666  15.155  10.185  11.296 -0.0759 -0.1526 -0.0658
  355loPI    C3 5667  15.042  10.470  11.040 -0.0289 -0.2210 -0.1632
  355loPI   PO4 5668  14.931   9.913  10.877  0.2482 -0.2677 -0.0978
  355loPI   GL1 5669  14.749   9.800  10.550  0.1134 -0.0982 -0.0240
  355loPI   GL2 5670  14.556   9.578  10.472 -0.2617 -0.0943 -0.1247
  355loPI   C1A 5671  14.871   9.905  10.114  0.0484  0.3530 -0.2361
  355loPI   C2A 5672  14.629   9.875   9.700 -0.1768  0.1747 -0.1168
  355loPI   C3A 5673  14.708   9.859   9.333  0.0302 -0.2568 -0.1464
  355loPI   C4A 5674  14.540   9.922   8.863 -0.0922  0.0028  0.0196
  355loPI   C5A 5675  14.276  10.067   8.529  0.0356 -0.0618 -0.2494
  355loPI   C6A 5676  14.436  10.135   8.158 -0.2143  0.2548 -0.2406
  355loPI   C1B 5677  14.642   9.391  10.112  0.0983 -0.0958 -0.1970
  355loPI   C2B 5678  14.709   9.381   9.687 -0.0328  0.1896  0.4408
  355loPI   C3B 5679  14.700   9.394   9.316  0.1147 -0.0253  0.0477
  355loPI   C4B 5680  14.739   9.461   8.843 -0.0714 -0.0953 -0.4580
  356loPI    C1 5681   2.646   2.131  11.444  0.1026  0.0068 -0.0248
  356loPI    C2 5682   3.007   2.186  11.609  0.1931 -0.1873 -0.1542
  356loPI    C3 5683   2.957   1.910  11.324 -0.0287 -0.0662 -0.2352
  356loPI   PO4 5684   2.608   2.287  11.331 -0.1523  0.2665  0.0832
  356loPI   GL1 5685   2.530   2.404  10.952  0.2375 -0.2506  0.0458
  356loPI   GL2 5686   2.259   2.260  10.996  0.1790  0.0684  0.1600
  356loPI   C1A 5687   2.699   2.353  10.493  0.2068  0.2834  0.0871
  356loPI   C2A 5688   2.740   2.273  10.118 -0.1459 -0.2793  0.3950
  356loPI   C3A 5689   2.807   2.297   9.679  0.1501  0.2269  0.1387
  356loPI   C4A 5690   2.710   2.229   9.337 -0.0325 -0.0234 -0.1539
  356loPI   C5A 5691   2.552   2.282   8.889  0.0065 -0.2754 -0.0904
  356loPI   C6A 5692   2.534   2.388   8.472 -0.2126  0.0214  0.5495
  356loPI   C1B 5693   2.228   2.154  10.492  0.2158  0.0957  0.1330
  356loPI   C2B 5694   2.239   2.079  10.076 -0.2339  0.2835  0.0972
  356loPI   C3B 5695   2.277   1.991   9.568  0.1110  0.0470 -0.0735
  356loPI   C4B 5696   2.236   2.011   9.092  0.1455  0.1031  0.0384
  357loPI    C1 5697  15.191  16.993  11.324  0.0027 -0.1293 -0.0318
  357loPI    C2 5698  14.805  16.998  11.428  0.0004  0.0934 -0.0479
  357loPI    C3 5699  15.083  16.895  11.696 -0.0732 -0.1137 -0.0495
  357loPI   PO4 5700  15.269  16.842  11.139  0.0939  0.0603 -0.2869
  357loPI   GL1 5701  15.130  16.713  10.845  0.1315  0.1096  0.4154
  357loPI   GL2 5702  15.077  16.923  10.711  0.1127  0.2508  0.0081
  357loPI   C1A 5703  15.100  16.440  10.501  0.3677 -0.0456  0.0141
  357loPI   C2A 5704  15.138  16.401  10.079  0.1158  0.0378 -0.0199
  357loPI   C3A 5705  15.166  16.427   9.697  0.1244 -0.1013  0.1201
  357loPI   C4A 5706  15.216  16.504   9.243 -0.0424  0.0181  0.1773
  357loPI   C5A 5707  15.188  16.526   8.844 -0.0079  0.1447  0.1661
  357loPI   C6A 5708  15.204  16.415   8.415 -0.2052 -0.3939 -0.0303
  357loPI   C1B 5709  15.131  16.908  10.284  0.1011  0.2129 -0.0358
  357loPI   C2B 5710  15.175  16.991   9.809 -0.0456 -0.0447 -0.2125
  357loPI   C3B 5711  15.160  17.032   9.457 -0.0590 -0.1014  0.1071
  357loPI   C4B 5712  15.262  17.003   8.992  0.2201  0.1764  0.1329
  358loPI    C1 5713   6.544  13.439  11.838 -0.2654 -0.0701  0.0181
  358loPI    C2 5714   6.771  13.762  11.772 -0.0858 -0.1902  0.0414
  358loPI    C3 5715   6.569  13.727  12.115 -0.1358 -0.0857  0.0233
  358loPI   PO4 5716   6.535  13.399  11.614 -0.0812 -0.2135  0.3158
  358loPI   GL1 5717   6.371  13.363  11.160  0.0340 -0.0139  0.1835
  358loPI   GL2 5718   6.478  13.173  10.897 -0.0125 -0.0540  0.1787
  358loPI   C1A 5719   6.506  13.632  10.779 -0.0986  0.0258  0.0898
  358loPI   C2A 5720   6.565  13.629  10.409 -0.0751 -0.1043  0.0276
  358loPI   C3A 5721   6.544  13.597   9.944  0.2571  0.1619 -0.3566
  358loPI   C4A 5722   6.616  13.622   9.515  0.0533  0.0441 -0.0172
  358loPI   C5A 5723   6.756  13.628   9.172  0.3076  0.1541  0.2816
  358loPI   C6A 5724   6.838  13.657   8.718 -0.0192 -0.0138  0.0962
  358loPI   C1B 5725   6.551  13.122  10.522  0.0458  0.0100 -0.2582
  358loPI   C2B 5726   6.591  13.082  10.078  0.2592  0.0172 -0.0803
  358loPI   C3B 5727   6.562  13.156   9.628 -0.0607  0.0682 -0.1977
  358loPI   C4B 5728   6.648  13.058   9.274 -0.0333  0.0384  0.1464
  359loPI    C1 5729  13.954   3.840  11.154  0.0596 -0.1812 -0.0066
  359loPI    C2 5730  14.047   3.486  11.315 -0.1783 -0.1036  0.3110
  359loPI    C3 5731  13.924   3.786  11.549 -0.1820  0.1257  0.0210
  359loPI   PO4 5732  14.072   3.845  10.961  0.1812 -0.2330 -0.1111
  359loPI   GL1 5733  14.111   3.579  10.524 -0.1751  0.0676  0.0918
  359loPI   GL2 5734  14.280   3.820  10.504 -0.1651 -0.0214  0.1410
  359loPI   C1A 5735  14.231   3.318  10.184  0.1033  0.0643  0.0151
  359loPI   C2A 5736  14.331   3.283   9.823 -0.1335 -0.0159 -0.1971
  359loPI   C3A 5737  14.285   3.288   9.377  0.1656 -0.0131 -0.0603
  359loPI   C4A 5738  14.326   3.395   8.978  0.1788 -0.0565 -0.0847
  359loPI   C5A 5739  14.064   3.289   8.612 -0.1544  0.0618 -0.2674
  359loPI   C6A 5740  13.999   2.956   8.305  0.0032 -0.1035  0.0334
  359loPI   C1B 5741  14.231   3.810  10.064 -0.1666 -0.1063  0.0309
  359loPI   C2B 5742  14.279   3.767   9.626 -0.0605 -0.0196  0.2347
  359loPI   C3B 5743  14.285   3.900   9.188 -0.1819  0.2709 -0.3164
  359loPI   C4B 5744  14.221   3.885   8.721 -0.0647 -0.0909  0.0587
  360loPI    C1 5745   1.023   2.058  11.889 -0.0576  0.0660  0.0546
  360loPI    C2 5746   0.731   1.816  11.760 -0.0651  0.0444  0.1118
  360loPI    C3 5747   0.650   2.102  12.028 -0.0458  0.0769  0.0829
  360loPI   PO4 5748   1.259   1.917  11.618  0.1168 -0.2679 -0.0602
  360loPI   GL1 5749   1.320   1.807  11.171 -0.1009 -0.1283  0.1240
  360loPI   GL2 5750   1.465   1.640  11.007 -0.1220 -0.0375  0.5763
  360loPI   C1A 5751   1.366   2.059  10.685 -0.2864 -0.2011  0.1366
  360loPI   C2A 5752   1.324   2.013  10.241 -0.1086  0.1711 -0.2380
  360loPI   C3A 5753   1.384   2.073   9.839  0.0742 -0.0340 -0.1092
  360loPI   C4A 5754   1.348   1.990   9.428 -0.1182  0.1378 -0.0115
  360loPI   C5A 5755   1.410   1.961   8.948 -0.1893 -0.1778 -0.1422
  360loPI   C6A 5756   1.754   2.065   8.715  0.2287  0.0924 -0.0129
  360loPI   C1B 5757   1.317   1.601  10.602 -0.0753  0.3108  0.0901
  360loPI   C2B 5758   1.367   1.503  10.235  0.2133  0.0274 -0.0221
  360loPI   C3B 5759   1.299   1.585   9.814 -0.1146 -0.0275 -0.2494
  360loPI   C4B 5760   1.326   1.485   9.368  0.1876 -0.1429 -0.2845
  361loPI    C1 5761   9.611   2.324  11.504  0.1460  0.2051  0.1978
  361loPI    C2 5762   9.312   2.132  11.687  0.0972 -0.0770 -0.1664
  361loPI    C3 5763   9.257   2.503  11.550  0.0525  0.0355  0.1484
  361loPI   PO4 5764   9.647   2.158  11.294 -0.2119  0.1887  0.1978
  361loPI   GL1 5765   9.824   2.135  10.834  0.0537  0.1172 -0.3570
  361loPI   GL2 5766   9.499   1.885  10.888  0.2569 -0.0246 -0.1445
  361loPI   C1A 5767   9.872   1.860  10.396  0.0052  0.1417  0.0472
  361loPI   C2A 5768   9.810   1.902   9.967 -0.0774  0.1454 -0.1422
  361loPI   C3A 5769   9.705   1.662   9.539 -0.1484 -0.1720  0.2922
  361loPI   C4A 5770   9.683   1.685   9.044 -0.3075 -0.3152  0.2922
  361loPI   C5A 5771   9.386   1.931   8.817 -0.0914 -0.2069  0.0657
  361loPI   C6A 5772   9.190   2.246   8.582  0.1165  0.0320 -0.0414
  361loPI   C1B 5773   9.436   1.610  10.607 -0.0544  0.0515 -0.0364
  361loPI   C2B 5774   9.455   1.578  10.179  0.1021 -0.2951 -0.0672
  361loPI   C3B 5775   9.313   1.442   9.832  0.1002  0.1325 -0.0179
  361loPI   C4B 5776   9.284   1.395   9.385  0.2901  0.1290 -0.3021
  362loPI    C1 5777   5.108   3.777  11.205  0.1522 -0.0703  0.0061
  362loPI    C2 5778   5.157   3.390  11.291 -0.2237 -0.1189  0.0180
  362loPI    C3 5779   5.055   3.648  11.579  0.0757  0.0012  0.0203
  362loPI   PO4 5780   5.001   3.770  11.012  0.0543 -0.1748  0.0223
  362loPI   GL1 5781   4.708   3.613  10.752  0.0591 -0.2572  0.2772
  362loPI   GL2 5782   4.669   3.875  10.618 -0.0819 -0.0340 -0.1857
  362loPI   C1A 5783   4.753   3.316  10.320 -0.1268 -0.4118 -0.1097
  362loPI   C2A 5784   4.870   3.228   9.931 -0.0707 -0.1688 -0.2045
  362loPI   C3A 5785   4.944   3.050   9.546 -0.0115 -0.1692  0.0724
  362loPI   C4A 5786   4.938   2.897   9.100 -0.0788 -0.0246 -0.3590
  362loPI   C5A 5787   5.058   2.619   8.990 -0.1065 -0.2514  0.1830
  362loPI   C6A 5788   5.388   2.774   8.821  0.2383  0.2444 -0.0554
  362loPI   C1B 5789   4.431   4.064  10.283 -0.1307  0.0913  0.0293
  362loPI   C2B 5790   4.419   4.229   9.917  0.3764 -0.3995  0.3836
  362loPI   C3B 5791   4.251   4.290   9.409  0.2780  0.0775 -0.1793
  362loPI   C4B 5792   4.168   4.037   9.226  0.1966 -0.0544  0.0255
  363loPI    C1 5793   0.400   8.405  11.178 -0.1192 -0.1916 -0.1452
  363loPI    C2 5794   0.605   8.544  11.492  0.1714 -0.1438 -0.3520
  363loPI    C3 5795   0.210   8.607  11.467  0.1774  0.0149 -0.0902
  363loPI   PO4 5796   0.518   8.414  10.922  0.0382 -0.1031  0.1162
  363loPI   GL1 5797   0.669   8.222  10.508 -0.1311  0.2226  0.3017
  363loPI   GL2 5798   0.666   8.501  10.345 -0.2683  0.0249 -0.0798
  363loPI   C1A 5799   0.871   8.031  10.168  0.1452 -0.0106  0.2045
  363loPI   C2A 5800   0.794   8.064   9.772 -0.2713  0.1324 -0.1946
  363loPI   C3A 5801   0.836   8.092   9.293 -0.2698 -0.0654  0.0970
  363loPI   C4A 5802   0.866   7.970   8.924  0.0082  0.2699 -0.0625
  363loPI   C5A 5803   0.953   7.722   8.504  0.2602 -0.0799  0.0452
  363loPI   C6A 5804   1.218   7.464   8.248 -0.3212  0.1538  0.1465
  363loPI   C1B 5805   0.798   8.559   9.974  0.4123 -0.0895 -0.1064
  363loPI   C2B 5806   0.815   8.549   9.628  0.1936  0.0770  0.1413
  363loPI   C3B 5807   0.827   8.627   9.286  0.0934  0.0254 -0.1072
  363loPI   C4B 5808   0.916   8.546   8.933 -0.0902 -0.1142  0.0082
  364loPI    C1 5809   5.510   6.750  11.160  0.1185  0.4810  0.3205
  364loPI    C2 5810   5.611   6.383  11.285  0.1284  0.3200 -0.1409
  364loPI    C3 5811   5.770   6.706  11.461  0.3212  0.0997  0.0967
  364loPI   PO4 5812   5.544   6.709  10.896 -0.1377  0.1567  0.1688
  364loPI   GL1 5813   5.504   6.826  10.440 -0.0761 -0.1054  0.1260
  364loPI   GL2 5814   5.187   6.905  10.394 -0.6063 -0.0369  0.2737
  364loPI   C1A 5815   5.811   6.771  10.102  0.2070 -0.0273 -0.3588
  364loPI   C2A 5816   5.774   6.790   9.707  0.0590 -0.0799  0.0983
  364loPI   C3A 5817   5.644   6.861   9.355 -0.3609 -0.4775 -0.2413
  364loPI   C4A 5818   5.457   6.669   9.077  0.1922 -0.0253 -0.1413
  364loPI   C5A 5819   5.306   6.668   8.622 -0.2777  0.1023 -0.2819
  364loPI   C6A 5820   5.591   6.536   8.288 -0.0172  0.1858 -0.1167
  364loPI   C1B 5821   5.337   6.740   9.996 -0.3497  0.0376  0.0092
  364loPI   C2B 5822   5.266   6.606   9.645 -0.5307  0.2671  0.1999
  364loPI   C3B 5823   5.048   6.383   9.423  0.1413 -0.1035 -0.1872
  364loPI   C4B 5824   5.089   6.345   8.958 -0.1763 -0.0050  0.2394
  365loPI    C1 5825   0.861  14.451  11.605 -0.2454 -0.0569 -0.2385
  365loPI    C2 5826   0.522  14.636  11.708 -0.0823  0.0959  0.0350
  365loPI    C3 5827   0.725  14.425  11.980  0.0272 -0.0202 -0.1349
  365loPI   PO4 5828   0.778  14.400  11.347  0.2881  0.2719  0.1383
  365loPI   GL1 5829   0.543  14.333  10.894 -0.0357  0.0205 -0.0725
  365loPI   GL2 5830   0.352  14.627  10.618  0.1455  0.1738 -0.1673
  365loPI   C1A 5831   0.758  14.396  10.454  0.0935  0.2781 -0.0146
  365loPI   C2A 5832   0.746  14.434  10.106  0.4271  0.0576  0.0274
  365loPI   C3A 5833   0.761  14.355   9.581  0.2956  0.1351  0.0897
  365loPI   C4A 5834   0.741  14.438   9.113  0.2215  0.2233 -0.1286
  365loPI   C5A 5835   0.568  14.495   8.622  0.2952 -0.2846  0.1493
  365loPI   C6A 5836   0.669  14.455   8.269  0.1361 -0.0721  0.3812
  365loPI   C1B 5837   0.318  14.670  10.253  0.1491  0.0159  0.5121
  365loPI   C2B 5838   0.282  14.629   9.780  0.1226  0.2960 -0.0263
  365loPI   C3B 5839   0.168  14.598   9.286  0.0055 -0.0825 -0.3311
  365loPI   C4B 5840   0.224  14.675   8.909  0.2119 -0.4432 -0.0328
  366loPI    C1 5841  15.068   2.392  11.400 -0.0406  0.0055 -0.1214
  366loPI    C2 5842  15.357   2.639  11.276 -0.1094  0.0693 -0.1560
  366loPI    C3 5843  15.367   2.490  11.647 -0.0157  0.0462 -0.1674
  366loPI   PO4 5844  14.997   2.235  11.171 -0.0060  0.2931  0.0500
  366loPI   GL1 5845  15.262   2.259  10.778 -0.3731  0.2235  0.3264
  366loPI   GL2 5846  15.215   2.538  10.824 -0.0162  0.1860 -0.0597
  366loPI   C1A 5847  15.100   2.280  10.349  0.1264 -0.0562  0.0001
  366loPI   C2A 5848  15.197   2.266   9.932 -0.0573 -0.1402  0.1185
  366loPI   C3A 5849  15.274   2.201   9.474  0.3632 -0.2247  0.0839
  366loPI   C4A 5850  15.177   2.208   9.090  0.1662 -0.1750 -0.0342
  366loPI   C5A 5851  15.121   2.287   8.770 -0.0082  0.2818  0.2129
  366loPI   C6A 5852  14.848   2.015   8.608 -0.0795  0.2681 -0.2979
  366loPI   C1B 5853  15.112   2.762  10.510  0.0620  0.2629 -0.0364
  366loPI   C2B 5854  15.223   2.688  10.131 -0.0490 -0.1853 -0.0464
  366loPI   C3B 5855  15.152   2.751   9.669 -0.0448 -0.0041 -0.1805
  366loPI   C4B 5856  15.168   2.932   9.135 -0.0116 -0.2268  0.0260
  367loPI    C1 5857   7.090  10.356  11.496 -0.0398 -0.0726  0.2204
  367loPI    C2 5858   6.946  10.130  11.793 -0.1432  0.1466  0.3395
  367loPI    C3 5859   7.136  10.472  11.875 -0.1246  0.1820  0.1549
  367loPI   PO4 5860   7.336  10.222  11.372 -0.2476  0.1398 -0.2375
  367loPI   GL1 5861   7.503   9.993  11.009 -0.0728  0.0879  0.0850
  367loPI   GL2 5862   7.557  10.287  10.939  0.1962  0.0229  0.0058
  367loPI   C1A 5863   7.603   9.830  10.546  0.3085  0.2531 -0.0973
  367loPI   C2A 5864   7.547   9.944  10.122  0.0724  0.1530 -0.0815
  367loPI   C3A 5865   7.558  10.014   9.734  0.1248  0.1217  0.1975
  367loPI   C4A 5866   7.521  10.002   9.378 -0.1183 -0.1901 -0.0064
  367loPI   C5A 5867   7.448   9.936   8.912 -0.0234 -0.0067 -0.2447
  367loPI   C6A 5868   7.608  10.172   8.704  0.2835 -0.2684 -0.0859
  367loPI   C1B 5869   7.554  10.400  10.442 -0.1382  0.0212  0.0474
  367loPI   C2B 5870   7.552  10.455   9.991 -0.1478 -0.2022  0.5243
  367loPI   C3B 5871   7.547  10.511   9.573  0.0511  0.1065 -0.1280
  367loPI   C4B 5872   7.474  10.494   9.092  0.0815  0.3303  0.0140
  368loPI    C1 5873  15.741  16.165  11.554 -0.0566  0.0629  0.0436
  368loPI    C2 5874  15.848  15.850  11.777 -0.0487  0.0943  0.0843
  368loPI    C3 5875  16.070  16.182  11.780 -0.1675  0.1737  0.1989
  368loPI   PO4 5876  15.710  16.083  11.332 -0.0799 -0.3250  0.2587
  368loPI   GL1 5877  15.919  15.997  10.866 -0.0746 -0.4604  0.1502
  368loPI   GL2 5878  15.839  16.312  10.766  0.1430 -0.3361 -0.1147
  368loPI   C1A 5879  15.996  15.895  10.485  0.0315 -0.2868  0.0244
  368loPI   C2A 5880  15.989  15.913  10.064 -0.1301 -0.2852  0.0376
  368loPI   C3A 5881  16.024  15.845   9.560 -0.0983  0.4027 -0.0193
  368loPI   C4A 5882  16.083  15.957   9.058 -0.1536  0.4184 -0.0002
  368loPI   C5A 5883  15.842  15.832   8.728 -0.1016  0.0886  0.1430
  368loPI   C6A 5884  15.529  15.591   8.471  0.1483 -0.0465  0.1003
  368loPI   C1B 5885  16.007  16.427  10.355 -0.0385 -0.0080 -0.4371
  368loPI   C2B 5886  16.055  16.353   9.848  0.1416  0.2473 -0.0734
  368loPI   C3B 5887  16.051  16.384   9.365 -0.0529 -0.1715 -0.1341
  368loPI   C4B 5888  16.138  16.623   9.021 -0.0902 -0.2463 -0.0782
  369loPI    C1 5889  17.513   5.251  11.418  0.2772 -0.1608  0.0145
  369loPI    C2 5890  17.630   4.890  11.545  0.0359 -0.1791  0.1900
  369loPI    C3 5891  17.431   5.135  11.791  0.0376  0.0018  0.0144
  369loPI   PO4 5892  17.480   5.149  11.094 -0.0214  0.0499  0.2168
  369loPI   GL1 5893  17.598   5.053  10.751  0.1194  0.2129 -0.0658
  369loPI   GL2 5894  17.478   5.349  10.514  0.1296 -0.2449  0.4703
  369loPI   C1A 5895  17.818   4.824  10.326 -0.1114 -0.5131 -0.1697
  369loPI   C2A 5896  17.965   4.885   9.922 -0.2012 -0.4001 -0.2194
  369loPI   C3A 5897  17.908   4.840   9.492 -0.0950  0.0482  0.1331
  369loPI   C4A 5898  17.947   4.960   9.093  0.2122 -0.0049 -0.0453
  369loPI   C5A 5899  17.943   5.047   8.639 -0.1944 -0.1575  0.0745
  369loPI   C6A 5900  18.109   4.887   8.291  0.2137 -0.0142  0.0170
  369loPI   C1B 5901  17.538   5.235  10.067 -0.0397  0.0370  0.0975
  369loPI   C2B 5902  17.392   5.151   9.611 -0.0776 -0.0320 -0.1512
  369loPI   C3B 5903  17.505   5.251   9.150  0.1523  0.1563  0.0495
  369loPI   C4B 5904  17.524   5.316   8.715 -0.1103  0.0441  0.3140
  370loPI    C1 5905  17.733   0.369  11.296 -0.0884 -0.1032  0.2332
  370loPI    C2 5906  17.815   0.021  11.475  0.0065 -0.0124  0.3692
  370loPI    C3 5907  17.739   0.346  11.695  0.1128  0.0987  0.2438
  370loPI   PO4 5908  17.761   0.350  11.073  0.1874 -0.0003  0.2763
  370loPI   GL1 5909  17.621   0.517  10.715  0.2714  0.0933 -0.2551
  370loPI   GL2 5910  17.985   0.562  10.669  0.0037  0.1136  0.2869
  370loPI   C1A 5911  17.420   0.499  10.287 -0.2790  0.1320 -0.0018
  370loPI   C2A 5912  17.442   0.403   9.906  0.2097 -0.0035 -0.1537
  370loPI   C3A 5913  17.441   0.422   9.462 -0.0203 -0.0095 -0.1904
  370loPI   C4A 5914  17.443   0.465   9.026 -0.0454 -0.1043 -0.0482
  370loPI   C5A 5915  17.466   0.718   8.687 -0.0741 -0.0881 -0.0573
  370loPI   C6A 5916  17.349   0.925   8.351 -0.1823 -0.0095  0.0457
  370loPI   C1B 5917  17.898   0.797  10.264 -0.2947  0.1282  0.2381
  370loPI   C2B 5918  17.817   0.657   9.783  0.2011  0.0397  0.1724
  370loPI   C3B 5919  17.897   0.603   9.388 -0.0033  0.1679 -0.1449
  370loPI   C4B 5920  17.980   0.786   9.055  0.3086 -0.0487  0.3220
  371loPI    C1 5921   4.370  15.740  11.661 -0.1486 -0.3705  0.0456
  371loPI    C2 5922   4.043  15.963  11.715 -0.1037 -0.2936  0.0015
  371loPI    C3 5923   4.265  15.857  12.029  0.0524 -0.0056 -0.0078
  371loPI   PO4 5924   4.400  15.843  11.341 -0.0602 -0.0628  0.2266
  371loPI   GL1 5925   4.434  15.592  10.939 -0.1854 -0.0071  0.0158
  371loPI   GL2 5926   4.096  15.542  10.856 -0.0922  0.4498 -0.2646
  371loPI   C1A 5927   4.443  15.431  10.513 -0.0986 -0.2156  0.0054
  371loPI   C2A 5928   4.357  15.375  10.059 -0.0351  0.3811 -0.1009
  371loPI   C3A 5929   4.382  15.494   9.666  0.0778  0.1476  0.0410
  371loPI   C4A 5930   4.461  15.426   9.261 -0.1122  0.1001 -0.1132
  371loPI   C5A 5931   4.406  15.509   8.913 -0.0678 -0.0769 -0.0840
  371loPI   C6A 5932   4.592  15.451   8.579  0.1242  0.0150  0.0098
  371loPI   C1B 5933   3.893  15.670  10.376 -0.2252 -0.2005  0.0601
  371loPI   C2B 5934   3.977  15.709   9.955  0.2294 -0.2367 -0.1785
  371loPI   C3B 5935   3.966  15.798   9.526 -0.1747 -0.0850  0.0515
  371loPI   C4B 5936   4.068  15.755   9.195 -0.3118  0.2946 -0.3735
  372loPI    C1 5937   8.014  12.898  11.521  0.0298  0.0124  0.1234
  372loPI    C2 5938   8.374  12.796  11.662  0.0511 -0.1339 -0.0339
  372loPI    C3 5939   8.119  12.998  11.894  0.3573  0.2624 -0.0304
  372loPI   PO4 5940   8.129  13.028  11.237  0.2111 -0.0946 -0.4342
  372loPI   GL1 5941   8.164  12.824  10.833  0.0842  0.3216 -0.4072
  372loPI   GL2 5942   8.296  13.210  10.782 -0.0951 -0.2350  0.0955
  372loPI   C1A 5943   8.044  12.872  10.413 -0.1390 -0.1466  0.2226
  372loPI   C2A 5944   7.957  12.748  10.084 -0.0466  0.0495  0.2166
  372loPI   C3A 5945   8.000  12.834   9.614 -0.0074  0.1242 -0.0920
  372loPI   C4A 5946   8.003  12.881   9.161  0.0210 -0.1851 -0.0731
  372loPI   C5A 5947   8.044  12.984   8.728  0.4372  0.0500  0.3679
  372loPI   C6A 5948   7.970  13.122   8.266  0.0443  0.0645 -0.1738
  372loPI   C1B 5949   8.405  13.214  10.487  0.0437 -0.1517 -0.0382
  372loPI   C2B 5950   8.407  13.134   9.978 -0.2160  0.1957  0.0689
  372loPI   C3B 5951   8.460  12.990   9.569 -0.1695  0.0566  0.2860
  372loPI   C4B 5952   8.480  13.043   9.146 -0.1092  0.0353 -0.0826
  373loPI    C1 5953   7.802   5.840  11.126 -0.0010  0.0401  0.0422
  373loPI    C2 5954   8.016   5.616  11.379 -0.1421 -0.2904 -0.1238
  373loPI    C3 5955   7.777   5.904  11.520  0.1550 -0.1388  0.0828
  373loPI   PO4 5956   7.878   5.947  10.940  0.0422 -0.0879  0.1745
  373loPI   GL1 5957   7.894   5.941  10.451 -0.1957  0.0317  0.0364
  373loPI   GL2 5958   7.906   5.622  10.403 -0.1029 -0.2028  0.1745
  373loPI   C1A 5959   7.813   6.009   9.998  0.1112 -0.1828 -0.0231
  373loPI   C2A 5960   7.427   5.985   9.844 -0.1314  0.1346  0.2698
  373loPI   C3A 5961   7.128   6.231   9.682  0.1376 -0.0294  0.2373
  373loPI   C4A 5962   6.891   6.321   9.280 -0.1715 -0.2317 -0.0088
  373loPI   C5A 5963   6.496   6.395   9.218 -0.0975 -0.0117  0.1922
  373loPI   C6A 5964   6.231   6.203   8.943  0.1669 -0.0736 -0.4303
  373loPI   C1B 5965   7.567   5.567  10.190 -0.0917  0.3187 -0.2036
  373loPI   C2B 5966   7.456   5.475   9.783  0.0261  0.1275  0.2491
  373loPI   C3B 5967   7.523   5.340   9.402 -0.0795  0.3482 -0.0534
  373loPI   C4B 5968   7.488   5.492   9.115  0.2954 -0.1670 -0.1024
  374loPI    C1 5969   3.421   6.551  11.301  0.0712 -0.1016 -0.1139
  374loPI    C2 5970   3.625   6.269  11.498 -0.0818 -0.1235  0.0159
  374loPI    C3 5971   3.278   6.403  11.645 -0.0594  0.0613 -0.0968
  374loPI   PO4 5972   3.420   6.475  11.118  0.1647 -0.1630  0.2219
  374loPI   GL1 5973   3.483   6.506  10.707 -0.1632  0.3390  0.0250
  374loPI   GL2 5974   3.217   6.585  10.558  0.3184  0.0721  0.3517
  374loPI   C1A 5975   3.683   6.660  10.321 -0.0458 -0.1360 -0.0871
  374loPI   C2A 5976   3.595   6.571   9.911 -0.0430  0.0622 -0.1500
  374loPI   C3A 5977   3.612   6.657   9.462 -0.2176  0.2665 -0.0267
  374loPI   C4A 5978   3.530   6.572   9.056 -0.0068  0.0528 -0.0923
  374loPI   C5A 5979   3.637   6.301   8.701 -0.2457  0.3455  0.0753
  374loPI   C6A 5980   3.563   5.960   8.366  0.0957  0.0660 -0.2175
  374loPI   C1B 5981   2.847   6.582  10.319  0.2077 -0.0624  0.0057
  374loPI   C2B 5982   2.702   6.654   9.875 -0.0513  0.0215  0.1013
  374loPI   C3B 5983   2.791   6.473   9.543  0.0826 -0.3415  0.1652
  374loPI   C4B 5984   2.635   6.456   9.086 -0.1958 -0.1097  0.1875
  375loPI    C1 5985  11.318   9.026  11.435 -0.0197  0.1772  0.2206
  375loPI    C2 5986  10.983   9.235  11.502 -0.0381  0.1891  0.0949
  375loPI    C3 5987  10.997   8.844  11.589 -0.1606  0.1374 -0.1122
  375loPI   PO4 5988  11.288   9.043  11.118  0.2464 -0.1393  0.0933
  375loPI   GL1 5989  11.525   9.061  10.785 -0.1153  0.1690 -0.0182
  375loPI   GL2 5990  11.491   9.403  10.745 -0.1081  0.1394  0.1369
  375loPI   C1A 5991  11.647   8.916  10.417 -0.0442 -0.1616 -0.0760
  375loPI   C2A 5992  11.624   9.005   9.918 -0.2375  0.0733  0.0937
  375loPI   C3A 5993  11.536   9.141   9.531  0.1969  0.0968 -0.0103
  375loPI   C4A 5994  11.643   9.173   9.151 -0.2810 -0.1705  0.2436
  375loPI   C5A 5995  11.801   9.435   8.834  0.3147 -0.2973  0.1397
  375loPI   C6A 5996  11.768   9.664   8.437  0.3469 -0.1503 -0.0823
  375loPI   C1B 5997  11.654   9.439  10.382 -0.0712  0.1725  0.1046
  375loPI   C2B 5998  11.637   9.520   9.990 -0.1190  0.2663 -0.1819
  375loPI   C3B 5999  11.538   9.633   9.663  0.0418 -0.0883  0.1547
  375loPI   C4B 6000  11.501   9.655   9.198  0.1232  0.0235 -0.0538
  376loPI    C1 6001  13.297   2.066  11.615 -0.2585  0.2456 -0.0670
  376loPI    C2 6002  13.046   2.191  11.900 -0.0969  0.2562  0.0724
  376loPI    C3 6003  13.398   2.373  11.851  0.0782 -0.0458  0.1788
  376loPI   PO4 6004  13.151   1.980  11.422 -0.2350  0.0741 -0.0650
  376loPI   GL1 6005  13.216   1.867  10.961 -0.1695 -0.0519 -0.2074
  376loPI   GL2 6006  12.909   1.842  10.848  0.0296 -0.2586 -0.0983
  376loPI   C1A 6007  13.340   1.712  10.491  0.0997 -0.0223  0.1882
  376loPI   C2A 6008  13.457   1.768  10.097  0.2174 -0.0831  0.0076
  376loPI   C3A 6009  13.405   1.755   9.635  0.3089  0.2080  0.3066
  376loPI   C4A 6010  13.411   1.702   9.133  0.1639 -0.1288 -0.0724
  376loPI   C5A 6011  13.584   1.533   8.743  0.4627  0.0597 -0.1924
  376loPI   C6A 6012  13.540   1.194   8.398 -0.2629  0.0664 -0.0958
  376loPI   C1B 6013  12.902   1.962  10.447  0.0453 -0.1419  0.0522
  376loPI   C2B 6014  13.005   1.896   9.964 -0.1837 -0.2477  0.1638
  376loPI   C3B 6015  13.049   1.987   9.457 -0.1091  0.0246 -0.3003
  376loPI   C4B 6016  12.990   2.058   9.071 -0.0966 -0.0575  0.0064
  377loPI    C1 6017  15.976   7.707  11.074  0.4188  0.1144 -0.1577
  377loPI    C2 6018  16.329   7.597  11.228  0.2127 -0.0353  0.2193
  377loPI    C3 6019  16.014   7.652  11.469 -0.0962 -0.1828 -0.1417
  377loPI   PO4 6020  16.044   7.919  10.929  0.3704  0.2952  0.0488
  377loPI   GL1 6021  16.247   7.913  10.488  0.1487 -0.1263  0.3168
  377loPI   GL2 6022  16.401   7.714  10.255 -0.2134  0.2201 -0.0984
  377loPI   C1A 6023  16.014   7.897  10.037  0.2028  0.3300  0.1941
  377loPI   C2A 6024  16.063   8.057   9.671 -0.2810 -0.0668  0.3074
  377loPI   C3A 6025  16.114   8.081   9.239 -0.2886  0.0634 -0.0667
  377loPI   C4A 6026  16.203   8.178   8.787 -0.0097 -0.0162  0.3610
  377loPI   C5A 6027  16.165   8.122   8.322  0.1627 -0.4429  0.3597
  377loPI   C6A 6028  15.998   8.170   7.923 -0.3191  0.2457  0.0643
  377loPI   C1B 6029  16.479   7.803   9.878  0.1523 -0.0111 -0.0905
  377loPI   C2B 6030  16.528   7.740   9.426  0.1316 -0.4248  0.0962
  377loPI   C3B 6031  16.547   7.884   8.961 -0.0936 -0.2311 -0.0556
  377loPI   C4B 6032  16.575   7.954   8.561  0.1665  0.1448  0.1067
  378loPI    C1 6033  10.230  14.557  11.341  0.0540 -0.1556 -0.0609
  378loPI    C2 6034   9.884  14.450  11.510 -0.0115 -0.0615 -0.1347
  378loPI    C3 6035  10.194  14.557  11.739 -0.0503 -0.0866 -0.0700
  378loPI   PO4 6036  10.255  14.324  11.139  0.2139  0.1931  0.3972
  378loPI   GL1 6037  10.530  14.384  10.765 -0.2161 -0.0575 -0.0189
  378loPI   GL2 6038  10.356  14.702  10.675  0.1571 -0.2097 -0.1565
  378loPI   C1A 6039  10.591  14.478  10.257 -0.2044 -0.1361  0.1453
  378loPI   C2A 6040  10.615  14.378   9.792 -0.2615  0.2517  0.0083
  378loPI   C3A 6041  10.688  14.274   9.262 -0.0530  0.0331 -0.0448
  378loPI   C4A 6042  10.707  14.180   8.834 -0.1725  0.0802 -0.0401
  378loPI   C5A 6043  10.879  14.391   8.519  0.0946 -0.1331 -0.3707
  378loPI   C6A 6044  11.266  14.532   8.237 -0.2404 -0.2118  0.2937
  378loPI   C1B 6045  10.107  14.700  10.366 -0.0033 -0.1389  0.1855
  378loPI   C2B 6046  10.183  14.744   9.955 -0.3628  0.0412 -0.1227
  378loPI   C3B 6047  10.220  14.586   9.576  0.1582  0.0904  0.0720
  378loPI   C4B 6048  10.280  14.523   9.122  0.1450 -0.5786 -0.4731
  379loPI    C1 6049  10.823   4.066  10.978 -0.0053 -0.0235  0.0208
  379loPI    C2 6050  11.026   4.232  11.280 -0.1697  0.1036  0.0630
  379loPI    C3 6051  10.764   3.939  11.353 -0.2243  0.1481  0.0459
  379loPI   PO4 6052  10.973   4.074  10.745  0.3325  0.1758 -0.1818
  379loPI   GL1 6053  10.929   3.789  10.326 -0.2116  0.3159  0.2268
  379loPI   GL2 6054  11.199   4.074  10.240 -0.1506 -0.1045 -0.5653
  379loPI   C1A 6055  10.967   3.829   9.899  0.2126  0.3080 -0.1563
  379loPI   C2A 6056  10.946   3.951   9.558  0.0905  0.0722  0.2441
  379loPI   C3A 6057  11.090   4.284   9.293  0.2620 -0.1928 -0.4786
  379loPI   C4A 6058  10.844   4.476   8.997 -0.0834 -0.1519  0.1155
  379loPI   C5A 6059  10.428   4.485   8.747  0.1912  0.0202 -0.1461
  379loPI   C6A 6060  10.153   4.868   8.668 -0.0801 -0.1309 -0.3461
  379loPI   C1B 6061  11.129   4.330   9.875 -0.4818  0.1576 -0.2597
  379loPI   C2B 6062  10.768   4.472   9.664 -0.2739 -0.2911  0.1965
  379loPI   C3B 6063  10.693   4.756   9.425  0.0403 -0.1444  0.0500
  379loPI   C4B 6064  10.733   5.207   9.252  0.1057  0.0792  0.1136
  380loPI    C1 6065   2.482  12.327  11.594  0.1234  0.0350 -0.0372
  380loPI    C2 6066   2.684  12.098  11.852 -0.1625 -0.0969  0.0741
  380loPI    C3 6067   2.497  12.428  11.980  0.1399  0.1333 -0.0632
  380loPI   PO4 6068   2.555  12.371  11.436 -0.0224 -0.0743  0.1297
  380loPI   GL1 6069   2.594  12.566  11.000  0.3693 -0.1272 -0.2662
  380loPI   GL2 6070   2.484  12.317  10.932 -0.0039  0.1780 -0.1069
  380loPI   C1A 6071   2.613  12.761  10.664  0.0136  0.0215  0.1450
  380loPI   C2A 6072   2.608  12.855  10.182  0.1199  0.0435  0.1724
  380loPI   C3A 6073   2.615  12.818   9.755  0.2312  0.1535  0.0335
  380loPI   C4A 6074   2.587  12.781   9.297 -0.1485  0.0705  0.3095
  380loPI   C5A 6075   2.594  12.667   8.838 -0.1756  0.1066  0.2595
  380loPI   C6A 6076   2.800  12.880   8.507  0.0094  0.0615 -0.0854
  380loPI   C1B 6077   2.591  12.298  10.495  0.1561 -0.0645  0.0521
  380loPI   C2B 6078   2.686  12.262  10.049  0.2070  0.0004  0.2321
  380loPI   C3B 6079   2.656  12.312   9.673  0.0663  0.1118  0.1237
  380loPI   C4B 6080   2.650  12.291   9.272 -0.1573 -0.1416 -0.1026
  381loPI    C1 6081  14.358   9.205  10.901  0.0880 -0.3141 -0.1023
  381loPI    C2 6082  14.049   9.354  11.107  0.0578 -0.2596 -0.1867
  381loPI    C3 6083  14.345   9.165  11.299  0.1974  0.0840 -0.0538
  381loPI   PO4 6084  14.232   9.037  10.754  0.0719  0.1015 -0.0523
  381loPI   GL1 6085  14.476   8.822  10.597  0.2131  0.0038  0.0838
  381loPI   GL2 6086  14.644   9.028  10.451  0.1166  0.3520 -0.2153
  381loPI   C1A 6087  14.216   8.958  10.169  0.3009 -0.1271  0.0916
  381loPI   C2A 6088  14.285   9.103   9.761 -0.2672 -0.0306 -0.5135
  381loPI   C3A 6089  14.283   9.105   9.373  0.1186 -0.0820  0.0764
  381loPI   C4A 6090  14.239   9.120   8.972 -0.0391  0.1493 -0.1629
  381loPI   C5A 6091  14.405   9.203   8.540 -0.0038  0.0407  0.0317
  381loPI   C6A 6092  14.553   9.146   8.170  0.1777 -0.4420  0.1227
  381loPI   C1B 6093  14.678   8.767  10.041  0.0275 -0.0730 -0.1571
  381loPI   C2B 6094  14.737   8.874   9.580 -0.0798 -0.2117  0.1469
  381loPI   C3B 6095  14.755   8.948   9.096 -0.4151 -0.0221 -0.1044
  381loPI   C4B 6096  14.856   8.936   8.701  0.1401  0.3482 -0.0465
  382loPI    C1 6097   6.016  15.064  11.538  0.0559 -0.1521 -0.0605
  382loPI    C2 6098   5.989  15.206  11.911 -0.0144  0.1365 -0.1727
  382loPI    C3 6099   6.322  15.019  11.792 -0.0669 -0.1334  0.0924
  382loPI   PO4 6100   6.046  15.191  11.349  0.0746 -0.1333 -0.2479
  382loPI   GL1 6101   5.867  15.085  10.990 -0.2208  0.0784 -0.1014
  382loPI   GL2 6102   5.557  15.086  10.893  0.1398 -0.1468 -0.2546
  382loPI   C1A 6103   6.146  14.897  10.681  0.2784  0.4054  0.2014
  382loPI   C2A 6104   6.113  14.975  10.231  0.0868 -0.0167 -0.1843
  382loPI   C3A 6105   6.233  14.928   9.872  0.1432 -0.0130  0.0699
  382loPI   C4A 6106   6.136  14.959   9.498 -0.1826  0.1080 -0.2968
  382loPI   C5A 6107   6.075  14.872   8.984 -0.0826 -0.0963  0.0412
  382loPI   C6A 6108   5.877  15.004   8.726  0.1817  0.1441  0.0395
  382loPI   C1B 6109   5.713  15.200  10.507 -0.1185 -0.1105 -0.1257
  382loPI   C2B 6110   5.650  15.199  10.035 -0.0097  0.0436 -0.4143
  382loPI   C3B 6111   5.684  15.245   9.632 -0.3271  0.0290 -0.0328
  382loPI   C4B 6112   5.728  15.127   9.189  0.1983  0.0095  0.0029
  383loPI    C1 6113   3.370   5.512  11.087 -0.0565  0.2727 -0.1737
  383loPI    C2 6114   3.001   5.548  10.938 -0.2222 -0.2083  0.0989
  383loPI    C3 6115   3.071   5.632  11.323 -0.0294 -0.0511  0.0314
  383loPI   PO4 6116   3.423   5.346  10.965 -0.1026 -0.1706 -0.1297
  383loPI   GL1 6117   3.452   5.224  10.567  0.1557 -0.2626 -0.1387
  383loPI   GL2 6118   3.690   5.471  10.555 -0.0164  0.0207  0.3275
  383loPI   C1A 6119   3.257   5.212  10.212  0.0542  0.1725 -0.0801
  383loPI   C2A 6120   3.336   5.365   9.809 -0.0619 -0.0180 -0.0112
  383loPI   C3A 6121   3.358   5.176   9.497  0.1046 -0.1369  0.2660
  383loPI   C4A 6122   3.551   4.988   9.077  0.3192  0.1756  0.0490
  383loPI   C5A 6123   3.840   4.980   8.804  0.0917 -0.0364 -0.0713
  383loPI   C6A 6124   4.191   4.739   8.791 -0.2015  0.0391 -0.0697
  383loPI   C1B 6125   3.676   5.591  10.113 -0.0567  0.0435  0.0187
  383loPI   C2B 6126   3.804   5.607   9.749 -0.0129 -0.0151 -0.2495
  383loPI   C3B 6127   3.506   5.672   9.450  0.2043  0.0128 -0.1886
  383loPI   C4B 6128   3.067   5.731   9.417  0.1676  0.4486 -0.0485
  384loPI    C1 6129  11.735   2.467  11.043 -0.0248 -0.1833 -0.1795
  384loPI    C2 6130  12.088   2.294  10.970  0.0385 -0.0958 -0.0846
  384loPI    C3 6131  12.021   2.470  11.322 -0.0350  0.0488 -0.1700
  384loPI   PO4 6132  11.704   2.578  10.796 -0.3741 -0.1296  0.1235
  384loPI   GL1 6133  11.656   2.296  10.510 -0.4563 -0.0851  0.2073
  384loPI   GL2 6134  12.011   2.169  10.519  0.1460 -0.4266 -0.0583
  384loPI   C1A 6135  11.606   2.236  10.142 -0.1262 -0.0285  0.1765
  384loPI   C2A 6136  11.688   2.224   9.708 -0.0014 -0.2128 -0.2008
  384loPI   C3A 6137  11.664   2.127   9.345  0.1407 -0.0300 -0.1919
  384loPI   C4A 6138  11.480   2.156   8.945 -0.2864 -0.0276  0.1612
  384loPI   C5A 6139  11.181   2.219   8.689  0.0357 -0.0321 -0.1150
  384loPI   C6A 6140  10.810   2.556   8.706  0.1544 -0.0850 -0.1438
  384loPI   C1B 6141  12.010   1.936  10.174  0.0311 -0.1909  0.1287
  384loPI   C2B 6142  12.071   1.896   9.800 -0.0836 -0.0603 -0.2450
  384loPI   C3B 6143  12.134   1.949   9.362 -0.0711  0.2134 -0.3381
  384loPI   C4B 6144  12.150   1.938   8.945  0.1554  0.1083  0.2835
  385loPI    C1 6145   7.202   6.488  11.077  0.0939 -0.1674  0.1017
  385loPI    C2 6146   7.476   6.205  11.146  0.2104 -0.1223 -0.1614
  385loPI    C3 6147   7.497   6.555  11.339  0.1442 -0.2400  0.0637
  385loPI   PO4 6148   7.252   6.564  10.826 -0.1912  0.0885 -0.0561
  385loPI   GL1 6149   7.410   6.756  10.429 -0.0720 -0.2777 -0.3919
  385loPI   GL2 6150   7.131   6.875  10.397 -0.1474  0.2577 -0.2213
  385loPI   C1A 6151   7.531   6.835   9.992 -0.0154 -0.4438 -0.3358
  385loPI   C2A 6152   7.886   6.891   9.640  0.2926  0.2502  0.0618
  385loPI   C3A 6153   7.994   6.966   9.206 -0.1679  0.2798  0.0043
  385loPI   C4A 6154   8.125   6.996   8.855  0.0152  0.1236 -0.1744
  385loPI   C5A 6155   8.196   7.466   8.766  0.0901 -0.0575  0.2384
  385loPI   C6A 6156   8.462   7.581   8.545 -0.1503 -0.3365 -0.1114
  385loPI   C1B 6157   6.961   7.174  10.106  0.0454 -0.0560  0.0378
  385loPI   C2B 6158   6.525   7.430   9.990  0.3393  0.0998 -0.1603
  385loPI   C3B 6159   6.087   7.179   9.930 -0.1513 -0.1318  0.1807
  385loPI   C4B 6160   5.725   7.354   9.846 -0.0919  0.1128  0.2106
  386loPI    C1 6161   1.737   8.674  11.541  0.0608  0.1185 -0.3241
  386loPI    C2 6162   1.664   8.303  11.671  0.2873  0.1759 -0.0219
  386loPI    C3 6163   1.463   8.612  11.825  0.1258  0.1851 -0.2463
  386loPI   PO4 6164   1.910   8.611  11.207 -0.0801 -0.1427 -0.1955
  386loPI   GL1 6165   1.901   8.615  10.735 -0.2227 -0.2325 -0.0474
  386loPI   GL2 6166   1.575   8.598  10.736  0.0871 -0.0008  0.0158
  386loPI   C1A 6167   2.126   8.947  10.442 -0.0746  0.0671 -0.1395
  386loPI   C2A 6168   2.196   8.835  10.003  0.4395 -0.1481 -0.4280
  386loPI   C3A 6169   2.194   8.843   9.555 -0.1610 -0.3528 -0.1016
  386loPI   C4A 6170   2.243   8.947   9.220  0.2373  0.0596  0.0174
  386loPI   C5A 6171   2.074   8.998   8.746  0.2175  0.0240 -0.1919
  386loPI   C6A 6172   2.163   8.815   8.364  0.0475 -0.0336  0.1789
  386loPI   C1B 6173   1.753   8.531  10.173  0.0480  0.2593  0.0662
  386loPI   C2B 6174   1.726   8.665   9.728 -0.1021 -0.1739 -0.1720
  386loPI   C3B 6175   1.793   8.631   9.374  0.2652  0.0263 -0.1606
  386loPI   C4B 6176   1.774   8.653   8.996  0.0905  0.1096  0.0720
  387loPI    C1 6177  11.190   7.628  11.306 -0.1096 -0.0656  0.1741
  387loPI    C2 6178  10.931   7.891  11.460  0.1447  0.1095  0.3106
  387loPI    C3 6179  11.324   7.961  11.484  0.2022 -0.0776 -0.0304
  387loPI   PO4 6180  11.196   7.552  11.093 -0.0554 -0.0054 -0.1619
  387loPI   GL1 6181  11.471   7.587  10.816  0.0135 -0.0364  0.1406
  387loPI   GL2 6182  11.681   7.337  10.796 -0.0314  0.1194  0.1288
  387loPI   C1A 6183  11.510   7.790  10.427 -0.0519  0.0805 -0.0698
  387loPI   C2A 6184  11.586   7.959   9.976  0.1408 -0.0623 -0.0563
  387loPI   C3A 6185  11.642   7.975   9.647 -0.1961 -0.1373 -0.1272
  387loPI   C4A 6186  11.638   8.052   9.236  0.1459  0.0871  0.0200
  387loPI   C5A 6187  11.482   8.127   8.854 -0.2530  0.3473  0.0672
  387loPI   C6A 6188  11.315   8.409   8.599  0.0139  0.0157 -0.0697
  387loPI   C1B 6189  11.903   7.270  10.353  0.0272  0.0205 -0.1963
  387loPI   C2B 6190  12.005   7.163   9.985  0.0540 -0.1816  0.0506
  387loPI   C3B 6191  11.937   7.142   9.517  0.0587 -0.3599  0.2720
  387loPI   C4B 6192  12.057   7.284   9.062  0.3219  0.3423  0.2501
  388loPI    C1 6193   3.961   5.613  11.035  0.0553  0.2032 -0.0857
  388loPI    C2 6194   3.881   5.797  11.381  0.0517  0.1354 -0.0503
  388loPI    C3 6195   3.886   5.397  11.363 -0.0661  0.1377 -0.1556
  388loPI   PO4 6196   3.884   5.783  10.891 -0.0762  0.2338  0.1576
  388loPI   GL1 6197   3.576   5.986  10.646 -0.1003  0.1070  0.3216
  388loPI   GL2 6198   3.766   6.146  10.482 -0.1506  0.1360  0.1191
  388loPI   C1A 6199   3.302   6.233  10.305 -0.0225  0.2525 -0.1642
  388loPI   C2A 6200   3.149   6.408   9.873  0.0091 -0.5678  0.0917
  388loPI   C3A 6201   3.248   6.302   9.480 -0.1271 -0.2669 -0.1657
  388loPI   C4A 6202   3.380   6.013   9.105  0.1546  0.2956 -0.5630
  388loPI   C5A 6203   3.330   5.695   8.914  0.1822  0.3758  0.2698
  388loPI   C6A 6204   3.201   5.350   9.070  0.0018 -0.0120 -0.2463
  388loPI   C1B 6205   3.989   6.303  10.079  0.2753 -0.1798  0.1523
  388loPI   C2B 6206   4.116   6.466   9.762  0.0502  0.3651 -0.2118
  388loPI   C3B 6207   4.436   6.692   9.587 -0.4292 -0.0362  0.3261
  388loPI   C4B 6208   4.610   6.508   9.177 -0.0199  0.0228  0.0732
  389loPI    C1 6209   9.901  16.546  11.443 -0.1336  0.1881  0.1524
  389loPI    C2 6210   9.623  16.496  11.727 -0.2201  0.0591  0.0467
  389loPI    C3 6211  10.000  16.584  11.828 -0.1864 -0.2651  0.2170
  389loPI   PO4 6212   9.778  16.310  11.261 -0.2168 -0.1683  0.0573
  389loPI   GL1 6213   9.490  16.347  10.884 -0.0031 -0.1382  0.1079
  389loPI   GL2 6214   9.288  16.656  10.794 -0.3260  0.0093  0.1599
  389loPI   C1A 6215   9.299  16.247  10.455 -0.1889 -0.1428 -0.1081
  389loPI   C2A 6216   9.277  16.236  10.007  0.0918 -0.3438 -0.3254
  389loPI   C3A 6217   9.315  16.288   9.627  0.2162  0.2261 -0.0112
  389loPI   C4A 6218   9.185  16.226   9.262  0.0396 -0.0258  0.0560
  389loPI   C5A 6219   9.278  16.366   8.780  0.1589  0.1393 -0.0233
  389loPI   C6A 6220   9.591  16.590   8.620  0.4138  0.1331  0.1777
  389loPI   C1B 6221   9.279  16.739  10.334  0.2041 -0.3299 -0.0367
  389loPI   C2B 6222   9.324  16.739   9.939 -0.3331 -0.2251 -0.1766
  389loPI   C3B 6223   9.239  16.774   9.599  0.1053  0.2472 -0.2741
  389loPI   C4B 6224   9.259  16.701   9.221 -0.0128 -0.0292  0.0768
  390loPI    C1 6225   7.787   2.790  11.134 -0.1235 -0.0494  0.1376
  390loPI    C2 6226   8.094   2.637  11.340 -0.0195  0.1305  0.1192
  390loPI    C3 6227   7.892   2.950  11.485 -0.2608 -0.0500  0.1793
  390loPI   PO4 6228   7.864   2.745  10.885  0.2695  0.5137 -0.0045
  390loPI   GL1 6229   7.932   2.794  10.440 -0.3837  0.0950 -0.0883
  390loPI   GL2 6230   7.988   2.509  10.371 -0.0400 -0.1809  0.1230
  390loPI   C1A 6231   7.846   2.835  10.002  0.4193  0.0270 -0.3446
  390loPI   C2A 6232   7.609   2.954   9.796 -0.0432  0.1153  0.0045
  390loPI   C3A 6233   7.483   3.061   9.390 -0.3786 -0.2859 -0.0488
  390loPI   C4A 6234   7.283   3.087   9.036 -0.1362 -0.0801 -0.0582
  390loPI   C5A 6235   7.192   3.437   8.761  0.0270  0.3999 -0.0190
  390loPI   C6A 6236   7.335   3.667   8.429 -0.0525 -0.0881  0.1230
  390loPI   C1B 6237   8.280   2.541  10.099  0.1759  0.1299 -0.0233
  390loPI   C2B 6238   8.122   2.629   9.633 -0.3414  0.0723 -0.3093
  390loPI   C3B 6239   7.762   2.623   9.400  0.4046  0.0310 -0.0572
  390loPI   C4B 6240   7.856   2.751   9.035 -0.0891 -0.2813 -0.1955
  391loPI    C1 6241  13.433   8.137  11.239  0.0477 -0.0216 -0.1582
  391loPI    C2 6242  13.362   8.250  11.616 -0.1871 -0.1909 -0.1499
  391loPI    C3 6243  13.717   8.095  11.518 -0.0709 -0.0017 -0.0334
  391loPI   PO4 6244  13.293   8.189  11.089 -0.4120 -0.3006 -0.1421
  391loPI   GL1 6245  12.981   8.429  10.869 -0.0013 -0.0608 -0.0617
  391loPI   GL2 6246  12.980   8.153  10.675 -0.0762  0.0254  0.0547
  391loPI   C1A 6247  12.892   8.618  10.543  0.2372 -0.2164  0.1031
  391loPI   C2A 6248  13.015   8.663  10.083  0.2701  0.1164  0.1341
  391loPI   C3A 6249  12.985   8.731   9.737 -0.0032  0.0601  0.0648
  391loPI   C4A 6250  12.912   8.790   9.326 -0.2027 -0.4227  0.1545
  391loPI   C5A 6251  12.943   8.918   8.899 -0.1656  0.4407  0.0932
  391loPI   C6A 6252  12.963   9.042   8.411  0.1503 -0.1215 -0.3706
  391loPI   C1B 6253  12.952   8.164  10.285 -0.1329 -0.0391  0.1142
  391loPI   C2B 6254  12.981   8.194   9.887 -0.0172  0.0028 -0.0065
  391loPI   C3B 6255  12.874   8.269   9.455  0.1992  0.1555 -0.3159
  391loPI   C4B 6256  12.955   8.337   9.114 -0.1554  0.0493 -0.2373
  392loPI    C1 6257  17.476  12.240  11.376  0.1186  0.2081 -0.2096
  392loPI    C2 6258  17.220  12.374  11.652 -0.0178  0.2215 -0.3418
  392loPI    C3 6259  17.552  12.181  11.764 -0.2767 -0.1418 -0.1789
  392loPI   PO4 6260  17.497  12.477  11.197 -0.0214 -0.1089 -0.1669
  392loPI   GL1 6261  17.508  12.409  10.761  0.1266  0.0410 -0.0388
  392loPI   GL2 6262  17.181  12.314  10.751 -0.1593 -0.0178 -0.4948
  392loPI   C1A 6263  17.385  12.463  10.284 -0.1726 -0.1883 -0.0106
  392loPI   C2A 6264  17.398  12.550   9.844 -0.0761 -0.3555  0.0437
  392loPI   C3A 6265  17.435  12.595   9.377 -0.1433 -0.1974  0.1782
  392loPI   C4A 6266  17.359  12.638   8.901  0.0544 -0.2638 -0.0644
  392loPI   C5A 6267  17.438  13.059   8.679 -0.1708 -0.1142  0.0271
  392loPI   C6A 6268  17.671  13.426   8.722 -0.1248  0.1752 -0.0307
  392loPI   C1B 6269  16.930  12.209  10.422  0.1547  0.2596 -0.0440
  392loPI   C2B 6270  16.958  12.332  10.017 -0.0295  0.0160 -0.1718
  392loPI   C3B 6271  16.882  12.330   9.625 -0.1140 -0.0256  0.1932
  392loPI   C4B 6272  16.970  12.319   9.196 -0.0390  0.1284 -0.2662
  393loPI    C1 6273  10.562   0.375  11.472  0.0312  0.2095  0.0622
  393loPI    C2 6274  10.268   0.105  11.497 -0.0309  0.2602 -0.1125
  393loPI    C3 6275  10.639   0.006  11.606 -0.0861  0.1550 -0.0183
  393loPI   PO4 6276  10.538   0.504  11.232  0.3029 -0.1338  0.0071
  393loPI   GL1 6277  10.479   0.673  10.841 -0.0411  0.1207 -0.2263
  393loPI   GL2 6278  10.722   0.727  10.583 -0.4186 -0.1889 -0.0560
  393loPI   C1A 6279  10.211   0.472  10.453  0.1770 -0.0844  0.3012
  393loPI   C2A 6280  10.250   0.463   9.990 -0.0304  0.0359 -0.1751
  393loPI   C3A 6281  10.247   0.330   9.605 -0.1077  0.0564 -0.2113
  393loPI   C4A 6282  10.287   0.349   9.165 -0.0646  0.0023  0.1230
  393loPI   C5A 6283  10.166   0.442   8.766  0.2413  0.3134 -0.0933
  393loPI   C6A 6284   9.867   0.539   8.501 -0.0534 -0.1239 -0.2061
  393loPI   C1B 6285  10.701   0.803  10.216 -0.1730 -0.1326  0.1694
  393loPI   C2B 6286  10.697   0.668   9.747  0.3485 -0.0325  0.1092
  393loPI   C3B 6287  10.622   0.582   9.412 -0.0324 -0.3460  0.3029
  393loPI   C4B 6288  10.618   0.749   8.918  0.0259  0.1349  0.1623
  394loPI    C1 6289   0.140  16.322  11.409  0.3244 -0.0797 -0.3038
  394loPI    C2 6290   0.286  16.693  11.378 -0.0254  0.1067  0.1690
  394loPI    C3 6291   0.270  16.513  11.735 -0.2775 -0.1885  0.0139
  394loPI   PO4 6292  -0.018  16.333  11.322  0.1169  0.0442  0.0873
  394loPI   GL1 6293  -0.115  16.297  10.857 -0.0243 -0.2277 -0.3221
  394loPI   GL2 6294  -0.100  16.499  10.606 -0.0482 -0.0847 -0.2036
  394loPI   C1A 6295   0.252  16.177  10.600  0.1937 -0.0643  0.0050
  394loPI   C2A 6296   0.442  16.269  10.239  0.1921  0.3482  0.0344
  394loPI   C3A 6297   0.317  16.145   9.833 -0.0356 -0.0319 -0.3060
  394loPI   C4A 6298   0.358  16.198   9.358  0.0862  0.0038 -0.0281
  394loPI   C5A 6299   0.398  16.116   8.909  0.1220  0.0125 -0.1001
  394loPI   C6A 6300   0.727  15.861   8.673 -0.3304 -0.0457  0.1378
  394loPI   C1B 6301   0.020  16.434  10.174  0.1176  0.1890  0.5911
  394loPI   C2B 6302  -0.087  16.459   9.730  0.1959 -0.1467  0.0806
  394loPI   C3B 6303  -0.081  16.476   9.344  0.0575 -0.0333  0.0964
  394loPI   C4B 6304  -0.011  16.393   8.940  0.2072 -0.3414 -0.1503
  395loPI    C1 6305   1.696  17.045  11.654 -0.1224  0.3427 -0.2384
  395loPI    C2 6306   1.366  16.822  11.694  0.2249 -0.1426  0.0196
  395loPI    C3 6307   1.438  17.120  11.950  0.0591 -0.1284  0.0505
  395loPI   PO4 6308   1.678  17.092  11.407  0.1063 -0.2182  0.1249
  395loPI   GL1 6309   1.661  17.097  10.975 -0.0630  0.0073 -0.1099
  395loPI   GL2 6310   1.717  17.409  10.951 -0.1303 -0.0649  0.0935
  395loPI   C1A 6311   1.606  17.088  10.582  0.0930  0.1881 -0.3544
  395loPI   C2A 6312   1.639  17.070  10.137 -0.1900  0.0892  0.0942
  395loPI   C3A 6313   1.662  16.936   9.759  0.3900  0.2589 -0.0199
  395loPI   C4A 6314   1.663  16.937   9.297 -0.0081 -0.0038 -0.0180
  395loPI   C5A 6315   1.903  16.798   8.881  0.1546 -0.1257  0.2208
  395loPI   C6A 6316   2.228  16.622   8.850  0.2016  0.0707  0.0214
  395loPI   C1B 6317   1.761  17.579  10.534 -0.3439  0.0961 -0.1099
  395loPI   C2B 6318   1.785  17.531  10.091  0.1254 -0.1487  0.0256
  395loPI   C3B 6319   1.740  17.460   9.720  0.1406  0.1174  0.0507
  395loPI   C4B 6320   1.673  17.423   9.225 -0.3686  0.2493  0.0741
  396loPI    C1 6321  11.905   5.524  11.019  0.4617 -0.1550  0.0593
  396loPI    C2 6322  11.961   5.888  11.177  0.0087 -0.0218 -0.0723
  396loPI    C3 6323  11.979   5.563  11.410  0.0977  0.1107  0.1074
  396loPI   PO4 6324  11.957   5.540  10.823 -0.1268 -0.1490  0.0737
  396loPI   GL1 6325  11.912   5.610  10.359  0.1990  0.0149 -0.1215
  396loPI   GL2 6326  11.712   5.346  10.275  0.1132  0.1632 -0.3094
  396loPI   C1A 6327  11.978   5.703   9.959 -0.2215 -0.0613  0.1852
  396loPI   C2A 6328  11.988   5.708   9.522 -0.1692 -0.1336  0.0821
  396loPI   C3A 6329  12.031   5.795   9.109 -0.3706 -0.3368 -0.1880
  396loPI   C4A 6330  12.008   5.823   8.682  0.0095 -0.1954  0.2424
  396loPI   C5A 6331  11.915   6.220   8.526 -0.1139 -0.1087  0.0515
  396loPI   C6A 6332  12.153   6.563   8.452 -0.0255  0.0610 -0.1066
  396loPI   C1B 6333  11.950   5.224   9.886  0.1108 -0.0187 -0.1823
  396loPI   C2B 6334  12.025   5.252   9.391  0.0406 -0.0259 -0.2355
  396loPI   C3B 6335  12.033   5.193   8.900 -0.2218 -0.1928  0.1425
  396loPI   C4B 6336  12.145   5.179   8.407 -0.4284 -0.0598  0.0650
  397loPI    C1 6337  13.821   6.923  11.069 -0.1472  0.1018  0.0617
  397loPI    C2 6338  13.813   6.553  11.223 -0.1735  0.0925  0.0379
  397loPI    C3 6339  13.808   6.871  11.466 -0.0741  0.0768  0.0610
  397loPI   PO4 6340  13.828   6.826  10.810 -0.0404 -0.0280  0.0179
  397loPI   GL1 6341  13.589   6.782  10.497  0.0204  0.0198 -0.0166
  397loPI   GL2 6342  13.751   6.582  10.233  0.0590  0.1219 -0.1569
  397loPI   C1A 6343  13.295   6.898  10.220 -0.1726 -0.2507  0.1890
  397loPI   C2A 6344  13.381   6.905   9.758 -0.0185 -0.1165 -0.0881
  397loPI   C3A 6345  13.406   7.011   9.303  0.4743 -0.1345  0.1320
  397loPI   C4A 6346  13.458   7.060   8.864 -0.0694  0.0342 -0.0445
  397loPI   C5A 6347  13.563   7.152   8.412 -0.1000 -0.4521 -0.0682
  397loPI   C6A 6348  13.467   7.100   7.942 -0.1363 -0.2386  0.1103
  397loPI   C1B 6349  13.791   6.647   9.856 -0.1362 -0.0763 -0.0180
  397loPI   C2B 6350  13.865   6.733   9.396 -0.2128  0.0655 -0.1447
  397loPI   C3B 6351  13.845   6.724   9.013 -0.0786 -0.0180 -0.2631
  397loPI   C4B 6352  13.846   6.708   8.612  0.0575  0.1691 -0.1006
  398loPI    C1 6353   0.924   2.567  11.292  0.0381  0.1040 -0.1104
  398loPI    C2 6354   1.274   2.438  11.146  0.0711 -0.1023  0.1441
  398loPI    C3 6355   1.187   2.386  11.533 -0.1501  0.1468  0.1306
  398loPI   PO4 6356   0.746   2.472  11.097  0.1834 -0.0799  0.1807
  398loPI   GL1 6357   0.425   2.440  10.748  0.2210 -0.0355  0.0797
  398loPI   GL2 6358   0.493   2.836  10.833  0.1651 -0.2607  0.1902
  398loPI   C1A 6359   0.466   2.570  10.394  0.0127  0.0288  0.0493
  398loPI   C2A 6360   0.509   2.611  10.007  0.0254 -0.0577 -0.0254
  398loPI   C3A 6361   0.446   2.599   9.595 -0.0108  0.0830 -0.1746
  398loPI   C4A 6362   0.395   2.490   9.186 -0.2052 -0.2512  0.0339
  398loPI   C5A 6363   0.299   2.426   8.725  0.3783 -0.0454  0.3394
  398loPI   C6A 6364  -0.042   2.204   8.570  0.0777 -0.1288 -0.4191
  398loPI   C1B 6365   0.443   3.026  10.430 -0.0753  0.0586  0.1752
  398loPI   C2B 6366   0.437   3.082   9.917 -0.0239 -0.2301 -0.0232
  398loPI   C3B 6367   0.402   3.076   9.488 -0.4526 -0.0536  0.3085
  398loPI   C4B 6368   0.491   2.986   9.039  0.1148 -0.1658 -0.2048
  399loPI    C1 6369   0.988   1.484  11.411  0.2037 -0.0918 -0.0559
  399loPI    C2 6370   1.009   1.112  11.557 -0.2047 -0.0053  0.2422
  399loPI    C3 6371   1.091   1.425  11.793  0.0437  0.1026  0.0193
  399loPI   PO4 6372   0.951   1.412  11.170 -0.5345 -0.0696 -0.1620
  399loPI   GL1 6373   0.885   1.687  10.825 -0.2914  0.0757  0.4664
  399loPI   GL2 6374   0.874   2.051  10.782 -0.4160  0.3339 -0.1319
  399loPI   C1A 6375   0.877   1.665  10.309  0.0875 -0.2677  0.0084
  399loPI   C2A 6376   0.848   1.814   9.956 -0.1536 -0.1951 -0.1399
  399loPI   C3A 6377   0.925   1.731   9.534 -0.0734 -0.1215  0.0748
  399loPI   C4A 6378   0.971   1.697   9.052 -0.0603 -0.0818 -0.0178
  399loPI   C5A 6379   1.181   1.337   8.747 -0.0314  0.0082 -0.0815
  399loPI   C6A 6380   1.437   1.275   8.301  0.0483  0.4735  0.2057
  399loPI   C1B 6381   0.894   2.259  10.353 -0.2287 -0.1437  0.0301
  399loPI   C2B 6382   0.953   2.295  10.040 -0.0284  0.0287  0.0339
  399loPI   C3B 6383   0.938   2.285   9.642 -0.4493  0.5207 -0.0779
  399loPI   C4B 6384   1.053   2.332   9.183 -0.0304 -0.3836  0.1982
  400loPI    C1 6385   4.648   0.305  11.781 -0.0178  0.3122  0.4234
  400loPI    C2 6386   4.882   0.007  11.909 -0.1320 -0.1895 -0.4555
  400loPI    C3 6387   4.502   0.031  12.033  0.0397 -0.0521  0.0707
  400loPI   PO4 6388   4.767   0.392  11.461 -0.2030  0.0845  0.1130
  400loPI   GL1 6389   4.904   0.323  11.066  0.2117 -0.0672 -0.0823
  400loPI   GL2 6390   5.040   0.011  10.908 -0.0251 -0.0359  0.0805
  400loPI   C1A 6391   4.944   0.420  10.662 -0.0939  0.0445 -0.2352
  400loPI   C2A 6392   4.911   0.431  10.242  0.0394  0.0035  0.0519
  400loPI   C3A 6393   4.988   0.422   9.859  0.1403 -0.1815  0.1978
  400loPI   C4A 6394   4.893   0.430   9.422 -0.0194 -0.3838  0.0279
  400loPI   C5A 6395   4.836   0.464   8.991  0.0474  0.0447  0.0792
  400loPI   C6A 6396   4.774   0.869   8.741  0.0768  0.1554  0.2159
  400loPI   C1B 6397   4.996  -0.013  10.467 -0.1133 -0.0210  0.0250
  400loPI   C2B 6398   4.930   0.008   9.998 -0.0093  0.1955  0.1007
  400loPI   C3B 6399   4.874  -0.118   9.657  0.1021  0.1839  0.1152
  400loPI   C4B 6400   4.862   0.008   9.218 -0.0950  0.0038 -0.0315
  401loPI    C1 6401  12.081  15.265  11.542 -0.1121  0.0744 -0.0957
  401loPI    C2 6402  11.862  15.149  11.856 -0.0409  0.0168 -0.0670
  401loPI    C3 6403  12.201  15.353  11.914 -0.0167 -0.0124 -0.1055
  401loPI   PO4 6404  12.065  15.055  11.359  0.1635  0.1039  0.2111
  401loPI   GL1 6405  12.200  14.909  10.979  0.0506 -0.0768 -0.1963
  401loPI   GL2 6406  12.213  15.177  10.832  0.3754 -0.1763 -0.0629
  401loPI   C1A 6407  12.460  14.817  10.633 -0.0895 -0.1816  0.1795
  401loPI   C2A 6408  12.456  14.842  10.125  0.1714 -0.2905 -0.0600
  401loPI   C3A 6409  12.478  14.798   9.656  0.2477 -0.2178  0.1074
  401loPI   C4A 6410  12.566  14.756   9.223 -0.0995  0.1663  0.0556
  401loPI   C5A 6411  12.482  14.956   8.837  0.1361  0.1881  0.0651
  401loPI   C6A 6412  12.350  14.725   8.443  0.2167  0.1212  0.3793
  401loPI   C1B 6413  12.125  15.112  10.423  0.2957 -0.1287  0.1093
  401loPI   C2B 6414  12.001  15.108   9.968 -0.1260  0.1001 -0.1366
  401loPI   C3B 6415  11.920  15.057   9.542  0.1408  0.2120 -0.1097
  401loPI   C4B 6416  12.092  15.141   9.204  0.2784  0.1329 -0.1311
  402loPI    C1 6417   4.480   9.789  11.616 -0.1476  0.2553  0.0229
  402loPI    C2 6418   4.266  10.059  11.818 -0.1162  0.0917  0.2793
  402loPI    C3 6419   4.629   9.953  11.949  0.0855  0.2940 -0.0983
  402loPI   PO4 6420   4.463   9.893  11.368 -0.0668 -0.0176 -0.1277
  402loPI   GL1 6421   4.324   9.999  10.939  0.1604  0.1830  0.3622
  402loPI   GL2 6422   4.436   9.720  10.754  0.0292 -0.3218  0.2801
  402loPI   C1A 6423   4.376  10.160  10.470  0.0202  0.2225  0.2954
  402loPI   C2A 6424   4.464  10.210  10.051 -0.2510 -0.1386  0.2517
  402loPI   C3A 6425   4.329  10.224   9.666 -0.0634 -0.1044 -0.1743
  402loPI   C4A 6426   4.295  10.261   9.226 -0.1954  0.0133 -0.2855
  402loPI   C5A 6427   4.536  10.407   8.869  0.2676  0.2052 -0.2227
  402loPI   C6A 6428   4.767  10.338   8.567 -0.3566 -0.1654 -0.1980
  402loPI   C1B 6429   4.476   9.673  10.295 -0.0249  0.0743  0.0196
  402loPI   C2B 6430   4.409   9.738   9.858  0.0510 -0.0881 -0.1835
  402loPI   C3B 6431   4.365   9.759   9.390 -0.0301 -0.1881  0.2087
  402loPI   C4B 6432   4.203   9.750   8.955 -0.0146  0.0438 -0.0641
  403loPI    C1 6433  16.440  12.142  11.347  0.0347 -0.0082  0.0889
  403loPI    C2 6434  16.760  12.123  11.587  0.2972 -0.1774 -0.2643
  403loPI    C3 6435  16.554  12.464  11.555  0.2944 -0.1354  0.1488
  403loPI   PO4 6436  16.511  12.034  11.138 -0.3212 -0.2113 -0.0726
  403loPI   GL1 6437  16.503  12.136  10.654 -0.0636  0.2049  0.0755
  403loPI   GL2 6438  16.528  11.814  10.541  0.1749  0.2297 -0.0979
  403loPI   C1A 6439  16.476  12.456  10.408  0.0410 -0.0057 -0.2953
  403loPI   C2A 6440  16.521  12.492   9.915  0.4578 -0.0141  0.2755
  403loPI   C3A 6441  16.462  12.541   9.443  0.1609 -0.2067 -0.0836
  403loPI   C4A 6442  16.562  12.641   9.065  0.0157 -0.2467 -0.0869
  403loPI   C5A 6443  16.876  12.491   8.719  0.0416  0.4871  0.1725
  403loPI   C6A 6444  17.135  12.305   8.472 -0.2061  0.1942 -0.0787
  403loPI   C1B 6445  16.477  12.015  10.115  0.0905 -0.0811 -0.0999
  403loPI   C2B 6446  16.464  12.073   9.647 -0.3285  0.1724 -0.0946
  403loPI   C3B 6447  16.485  12.084   9.160 -0.2165  0.0775 -0.2653
  403loPI   C4B 6448  16.534  12.175   8.810 -0.0295  0.2471 -0.1077
  404loPI    C1 6449  15.356  10.603  11.525  0.0904 -0.1322 -0.0059
  404loPI    C2 6450  15.462  10.261  11.703  0.0736 -0.1981 -0.1212
  404loPI    C3 6451  15.127  10.449  11.815  0.0348 -0.2674 -0.1199
  404loPI   PO4 6452  15.448  10.699  11.275 -0.1265  0.1178  0.1940
  404loPI   GL1 6453  15.442  10.601  10.791  0.2413 -0.0811 -0.0273
  404loPI   GL2 6454  15.443  10.350  10.616  0.0428 -0.0473 -0.4182
  404loPI   C1A 6455  15.587  10.813  10.326  0.0748 -0.0707 -0.0401
  404loPI   C2A 6456  15.599  10.858   9.903 -0.0985 -0.2052 -0.1899
  404loPI   C3A 6457  15.612  10.949   9.438 -0.2243  0.0976 -0.2014
  404loPI   C4A 6458  15.608  11.096   9.076 -0.0174 -0.2886  0.1404
  404loPI   C5A 6459  15.527  11.247   8.659  0.0407  0.3726 -0.0807
  404loPI   C6A 6460  15.457  11.127   8.177  0.1911  0.0179  0.1847
  404loPI   C1B 6461  15.254  10.164  10.195 -0.0088  0.2221 -0.0540
  404loPI   C2B 6462  15.154  10.056   9.728 -0.0498  0.1854  0.3324
  404loPI   C3B 6463  15.133  10.152   9.287  0.1509 -0.1052  0.0430
  404loPI   C4B 6464  15.160  10.272   8.881 -0.0409  0.2443  0.1586
  405loPI    C1 6465  14.988   3.374  11.158 -0.2668 -0.1689 -0.0344
  405loPI    C2 6466  15.286   3.145  11.296 -0.0192  0.0785 -0.1488
  405loPI    C3 6467  15.033   3.320  11.552 -0.0531 -0.1125 -0.0496
  405loPI   PO4 6468  14.970   3.290  10.930  0.1996 -0.1317 -0.1655
  405loPI   GL1 6469  15.455   3.187  10.697  0.0300 -0.3355  0.3408
  405loPI   GL2 6470  15.465   2.964  10.787  0.1788 -0.0953  0.0136
  405loPI   C1A 6471  15.190   3.163  10.270  0.1205 -0.2856  0.0758
  405loPI   C2A 6472  15.124   3.312   9.819  0.0022  0.1223 -0.0699
  405loPI   C3A 6473  15.152   3.377   9.444 -0.2446 -0.0492 -0.2889
  405loPI   C4A 6474  15.174   3.403   9.030 -0.0244 -0.0254  0.0683
  405loPI   C5A 6475  15.207   3.245   8.665 -0.0679  0.0121 -0.1737
  405loPI   C6A 6476  15.097   3.379   8.204 -0.2850  0.3910 -0.1516
  405loPI   C1B 6477  15.656   3.012  10.243  0.0314  0.2174 -0.1438
  405loPI   C2B 6478  15.614   3.064   9.819 -0.0154  0.0280 -0.2186
  405loPI   C3B 6479  15.642   3.055   9.415 -0.1776  0.0491  0.3676
  405loPI   C4B 6480  15.585   2.916   8.929 -0.1126  0.0366 -0.1021
  406loPI    C1 6481   5.260  14.059  11.695  0.0913  0.2021  0.0633
  406loPI    C2 6482   5.569  13.820  11.610 -0.1649 -0.0785 -0.0964
  406loPI    C3 6483   5.455  13.872  11.990  0.1008  0.0591 -0.0330
  406loPI   PO4 6484   5.059  14.083  11.423  0.0054  0.3853  0.1854
  406loPI   GL1 6485   5.190  14.011  10.962  0.2034  0.4236  0.2229
  406loPI   GL2 6486   4.823  14.073  11.015 -0.0842 -0.2529 -0.0399
  406loPI   C1A 6487   5.174  13.831  10.514 -0.0880 -0.0776 -0.1745
  406loPI   C2A 6488   5.197  13.940  10.111 -0.0956 -0.0180  0.1260
  406loPI   C3A 6489   5.276  13.898   9.575  0.0811 -0.0679  0.0202
  406loPI   C4A 6490   5.372  13.866   9.146 -0.0525 -0.2388  0.1640
  406loPI   C5A 6491   5.449  14.069   8.638 -0.1206 -0.3485 -0.1634
  406loPI   C6A 6492   5.337  14.190   8.241  0.1717  0.0383  0.0269
  406loPI   C1B 6493   4.810  14.216  10.678 -0.0110  0.0080  0.2088
  406loPI   C2B 6494   4.808  14.177  10.287 -0.3294 -0.3056  0.3894
  406loPI   C3B 6495   4.845  14.177   9.821 -0.1199 -0.0537  0.0985
  406loPI   C4B 6496   4.939  14.119   9.374  0.4586  0.1894  0.1098
  407loPI    C1 6497   2.423   0.407  11.686  0.2490  0.2041 -0.1074
  407loPI    C2 6498   2.609   0.222  11.988  0.0681  0.1425 -0.0323
  407loPI    C3 6499   2.259   0.404  12.050 -0.1363 -0.1565 -0.2756
  407loPI   PO4 6500   2.645   0.561  11.543  0.0492 -0.2133  0.1855
  407loPI   GL1 6501   2.970   0.509  11.223 -0.0623 -0.1349  0.0689
  407loPI   GL2 6502   2.673   0.449  11.069  0.3566  0.1083 -0.1748
  407loPI   C1A 6503   3.101   0.436  10.824  0.2426  0.0333 -0.1638
  407loPI   C2A 6504   3.154   0.465  10.409 -0.0799  0.2134 -0.0694
  407loPI   C3A 6505   3.156   0.441   9.914 -0.0186 -0.1903  0.3698
  407loPI   C4A 6506   2.986   0.429   9.469 -0.0176  0.1258  0.0090
  407loPI   C5A 6507   2.903   0.268   8.992  0.0883  0.0254  0.1433
  407loPI   C6A 6508   3.025  -0.164   8.982 -0.1536  0.1850  0.2690
  407loPI   C1B 6509   2.691   0.328  10.583  0.1958  0.4177  0.0067
  407loPI   C2B 6510   2.714   0.179  10.185  0.0991 -0.1485 -0.1209
  407loPI   C3B 6511   2.585   0.193   9.769 -0.4841 -0.1531  0.2761
  407loPI   C4B 6512   2.549   0.095   9.322 -0.0838 -0.0965  0.3400
  408loPI    C1 6513  16.690  17.863  11.155  0.0675  0.2088 -0.1557
  408loPI    C2 6514  16.490  17.998  11.474 -0.1174  0.0401 -0.1986
  408loPI    C3 6515  16.866  17.868  11.514 -0.1258  0.0576 -0.0570
  408loPI   PO4 6516  16.618  17.602  11.058 -0.1809  0.1574 -0.1514
  408loPI   GL1 6517  16.777  17.345  10.638  0.0295  0.2877  0.1116
  408loPI   GL2 6518  17.076  17.158  10.782  0.0098 -0.2353  0.0271
  408loPI   C1A 6519  16.875  17.380  10.214  0.0639  0.0375  0.0531
  408loPI   C2A 6520  16.919  17.395   9.780 -0.0091 -0.1906 -0.2073
  408loPI   C3A 6521  16.979  17.657   9.433  0.1029 -0.0975 -0.3308
  408loPI   C4A 6522  17.039  17.614   9.022  0.0373  0.0899  0.1454
  408loPI   C5A 6523  17.456  17.774   8.800  0.0377  0.0543  0.1158
  408loPI   C6A 6524  17.473  18.080   8.544 -0.0413  0.1388  0.0053
  408loPI   C1B 6525  16.884  16.929  10.439 -0.1212  0.1205  0.0418
  408loPI   C2B 6526  16.972  16.934  10.067 -0.0535  0.0548 -0.0755
  408loPI   C3B 6527  16.945  16.932   9.630  0.4151 -0.0863  0.4385
  408loPI   C4B 6528  16.937  17.018   9.148 -0.2377  0.5156 -0.1798
  409loPI    C1 6529  12.578   9.764  11.219  0.0729 -0.0017  0.0714
  409loPI    C2 6530  12.710   9.699  11.591  0.1077  0.0615  0.0701
  409loPI    C3 6531  12.630  10.071  11.469  0.1980  0.0520 -0.0196
  409loPI   PO4 6532  12.741   9.657  11.011 -0.3054  0.2288 -0.1693
  409loPI   GL1 6533  12.914   9.727  10.615  0.0348  0.0776  0.1519
  409loPI   GL2 6534  13.194   9.568  10.680 -0.2208  0.1539  0.4221
  409loPI   C1A 6535  12.871   9.771  10.136 -0.1921 -0.0158 -0.3368
  409loPI   C2A 6536  12.911   9.817   9.692 -0.3788 -0.0585 -0.3275
  409loPI   C3A 6537  12.896   9.861   9.182 -0.0192  0.1721 -0.0326
  409loPI   C4A 6538  12.886   9.894   8.680  0.3903  0.5412  0.0549
  409loPI   C5A 6539  12.793  10.274   8.456 -0.0613 -0.4558 -0.1019
  409loPI   C6A 6540  12.897  10.452   8.139  0.1080 -0.1978  0.0508
  409loPI   C1B 6541  13.281   9.428  10.293  0.0621  0.0588 -0.0824
  409loPI   C2B 6542  13.406   9.472   9.793  0.0872 -0.1772  0.0192
  409loPI   C3B 6543  13.382   9.586   9.360 -0.0497  0.0588 -0.0900
  409loPI   C4B 6544  13.287   9.671   8.912  0.6009  0.1611  0.2983
  410loPI    C1 6545  10.030  13.101  11.051  0.0215  0.1400  0.0762
  410loPI    C2 6546   9.640  13.136  11.135  0.0035  0.1531 -0.0119
  410loPI    C3 6547   9.904  13.081  11.430 -0.0825 -0.0153  0.0345
  410loPI   PO4 6548  10.085  13.295  10.882  0.0896  0.2252  0.0851
  410loPI   GL1 6549   9.754  13.259  10.686  0.4018 -0.5284 -0.0882
  410loPI   GL2 6550   9.454  13.207  10.682 -0.1333 -0.3573 -0.4436
  410loPI   C1A 6551   9.778  13.433  10.304  0.2435  0.1190 -0.0298
  410loPI   C2A 6552   9.717  13.412   9.843  0.0469  0.0084 -0.1857
  410loPI   C3A 6553   9.839  13.338   9.473 -0.1032 -0.0365  0.0284
  410loPI   C4A 6554   9.780  13.358   8.991 -0.0308 -0.0910 -0.1504
  410loPI   C5A 6555   9.898  13.671   8.722 -0.2634 -0.3471  0.0906
  410loPI   C6A 6556   9.854  13.776   8.390  0.1349  0.0159 -0.1277
  410loPI   C1B 6557   9.375  13.116  10.245  0.2402 -0.2079 -0.0894
  410loPI   C2B 6558   9.300  13.140   9.742  0.2571  0.0170  0.1451
  410loPI   C3B 6559   9.373  13.074   9.377  0.0420 -0.1831  0.0183
  410loPI   C4B 6560   9.246  13.004   9.050 -0.1063 -0.3041  0.2307
  411loPI    C1 6561  12.025   7.276  11.284 -0.0476 -0.0029 -0.1031
  411loPI    C2 6562  12.124   7.584  11.519  0.1016 -0.0574 -0.0935
  411loPI    C3 6563  11.954   7.258  11.677  0.3615 -0.1655 -0.0314
  411loPI   PO4 6564  12.191   7.407  11.071 -0.0004 -0.1425  0.2335
  411loPI   GL1 6565  12.546   7.528  10.872  0.0205 -0.3107  0.1072
  411loPI   GL2 6566  12.583   7.236  10.836  0.3350 -0.0245 -0.0689
  411loPI   C1A 6567  12.383   7.470  10.369  0.0484  0.0460 -0.1650
  411loPI   C2A 6568  12.475   7.480  10.004 -0.2446  0.0256 -0.1784
  411loPI   C3A 6569  12.457   7.424   9.550  0.0136 -0.0835  0.1512
  411loPI   C4A 6570  12.470   7.658   9.173 -0.1990 -0.3919  0.0914
  411loPI   C5A 6571  12.451   7.643   8.674  0.0578 -0.1662 -0.0764
  411loPI   C6A 6572  12.821   7.785   8.506  0.0803  0.1394  0.1660
  411loPI   C1B 6573  12.810   7.164  10.431  0.0236 -0.0765 -0.0323
  411loPI   C2B 6574  12.883   7.211  10.013 -0.4144  0.0988  0.0399
  411loPI   C3B 6575  12.917   7.209   9.558  0.2910  0.0004 -0.3279
  411loPI   C4B 6576  12.881   7.337   9.138 -0.0621 -0.0519  0.0934
  412loPI    C1 6577   3.998   0.749  11.646  0.0447  0.0112 -0.0105
  412loPI    C2 6578   4.381   0.763  11.760  0.0288  0.0658  0.0370
  412loPI    C3 6579   4.111   0.997  11.939  0.0052  0.1598 -0.1199
  412loPI   PO4 6580   3.897   0.815  11.450 -0.2255 -0.1280  0.2280
  412loPI   GL1 6581   4.056   0.834  11.040  0.0191 -0.0745  0.0833
  412loPI   GL2 6582   4.069   0.385  10.931 -0.2005 -0.1599  0.0970
  412loPI   C1A 6583   3.997   0.999  10.665  0.2111  0.0740  0.0195
  412loPI   C2A 6584   4.061   0.933  10.243  0.0029 -0.2138  0.2385
  412loPI   C3A 6585   4.142   1.000   9.868 -0.0426 -0.3029  0.0897
  412loPI   C4A 6586   3.956   0.883   9.383  0.1106  0.0354 -0.3408
  412loPI   C5A 6587   3.860   0.830   8.917 -0.0527 -0.3280 -0.0271
  412loPI   C6A 6588   3.758   0.970   8.467 -0.2646  0.0158  0.0165
  412loPI   C1B 6589   4.021   0.408  10.560 -0.3303  0.1374  0.1465
  412loPI   C2B 6590   4.106   0.411  10.113  0.3329  0.0095 -0.2658
  412loPI   C3B 6591   4.023   0.476   9.669 -0.0442 -0.0101 -0.1678
  412loPI   C4B 6592   4.030   0.425   9.226 -0.0656 -0.1826  0.1108
  413loPI    C1 6593   9.889  15.485  11.722  0.2406 -0.3012  0.0751
  413loPI    C2 6594   9.703  15.466  12.075 -0.0264  0.1978 -0.0281
  413loPI    C3 6595  10.051  15.661  12.042  0.1031 -0.0254 -0.0033
  413loPI   PO4 6596   9.618  15.554  11.394 -0.2721  0.0455 -0.1002
  413loPI   GL1 6597   9.447  15.513  10.952  0.1485  0.2635  0.1424
  413loPI   GL2 6598   9.552  15.826  10.996 -0.0724 -0.2489  0.1225
  413loPI   C1A 6599   9.739  15.400  10.622 -0.0642  0.5023 -0.0392
  413loPI   C2A 6600   9.773  15.541  10.203  0.2911 -0.0747  0.1806
  413loPI   C3A 6601   9.639  15.478   9.771  0.2225 -0.2036  0.2371
  413loPI   C4A 6602   9.774  15.360   9.396  0.3520 -0.0415  0.1084
  413loPI   C5A 6603   9.825  15.253   8.907 -0.1395  0.1617  0.0246
  413loPI   C6A 6604   9.614  15.383   8.600 -0.2975  0.0601 -0.1757
  413loPI   C1B 6605   9.563  15.855  10.577 -0.0771  0.1957 -0.1530
  413loPI   C2B 6606   9.361  15.755  10.252 -0.0443  0.2555 -0.0994
  413loPI   C3B 6607   9.196  15.780   9.787 -0.0828 -0.3816  0.0758
  413loPI   C4B 6608   9.264  15.639   9.359 -0.0855  0.2053 -0.1534
  414loPI    C1 6609   6.002   5.895  10.983 -0.1314  0.0650  0.0034
  414loPI    C2 6610   6.175   5.709  11.293 -0.0370  0.1654  0.0121
  414loPI    C3 6611   5.783   5.792  11.302 -0.0340  0.1702  0.1055
  414loPI   PO4 6612   5.903   5.704  10.735 -0.0388  0.1758 -0.2775
  414loPI   GL1 6613   5.456   5.727  10.478  0.0027 -0.2803 -0.1117
  414loPI   GL2 6614   5.184   5.897  10.560  0.1411 -0.0608  0.1698
  414loPI   C1A 6615   5.637   5.861  10.106  0.0903 -0.1962  0.1842
  414loPI   C2A 6616   5.686   5.830   9.667 -0.0931  0.1325  0.1431
  414loPI   C3A 6617   5.989   5.763   9.286  0.1245  0.0357 -0.1646
  414loPI   C4A 6618   6.236   5.668   8.838 -0.2673 -0.1754 -0.0839
  414loPI   C5A 6619   6.181   5.513   8.460 -0.3770 -0.0270  0.1291
  414loPI   C6A 6620   6.049   5.637   8.006  0.2698 -0.0064 -0.0038
  414loPI   C1B 6621   5.101   5.903  10.157  0.1026 -0.0999  0.3853
  414loPI   C2B 6622   5.186   5.930   9.729  0.0811  0.0801  0.2060
  414loPI   C3B 6623   5.195   5.836   9.356  0.0018 -0.2555 -0.0604
  414loPI   C4B 6624   5.217   5.868   8.883  0.1056 -0.3060 -0.1846
  415loPI    C1 6625   4.899  17.219  11.497 -0.1902  0.0282  0.1060
  415loPI    C2 6626   5.267  17.257  11.649 -0.1501 -0.0520  0.0293
  415loPI    C3 6627   4.950  17.366  11.866 -0.1056 -0.3373  0.2442
  415loPI   PO4 6628   4.876  17.293  11.250 -0.1159 -0.0454  0.0883
  415loPI   GL1 6629   4.799  17.150  10.824 -0.0323 -0.0438  0.0418
  415loPI   GL2 6630   4.752  16.807  10.718 -0.0063 -0.1536  0.1499
  415loPI   C1A 6631   4.942  17.335  10.422 -0.0119 -0.0175 -0.2978
  415loPI   C2A 6632   4.906  17.298   9.973 -0.1244 -0.0543  0.0125
  415loPI   C3A 6633   4.927  17.319   9.492  0.2415 -0.4368  0.0669
  415loPI   C4A 6634   4.910  17.414   9.074 -0.1313 -0.0047  0.1353
  415loPI   C5A 6635   5.096  17.226   8.605 -0.3230 -0.2177  0.1331
  415loPI   C6A 6636   4.978  16.796   8.427 -0.1080 -0.3351 -0.2576
  415loPI   C1B 6637   4.862  16.771  10.279 -0.0098 -0.0518 -0.2213
  415loPI   C2B 6638   4.867  16.798   9.812 -0.0000 -0.1888  0.1067
  415loPI   C3B 6639   4.914  16.840   9.326  0.1455 -0.1467  0.1436
  415loPI   C4B 6640   4.788  16.869   8.867 -0.1163 -0.2630 -0.2809
  416loPI    C1 6641   0.202   7.398  11.149  0.1069 -0.0102 -0.1216
  416loPI    C2 6642   0.440   7.172  11.378  0.0295 -0.0812 -0.1107
  416loPI    C3 6643   0.046   7.180  11.446 -0.0185 -0.2496 -0.3592
  416loPI   PO4 6644   0.237   7.261  10.783  0.1860  0.1586  0.1334
  416loPI   GL1 6645   0.348   7.265  10.351  0.0426  0.2810 -0.3670
  416loPI   GL2 6646   0.605   7.079  10.426 -0.1899  0.0243 -0.0654
  416loPI   C1A 6647   0.383   7.330  10.013 -0.0575 -0.1629  0.1875
  416loPI   C2A 6648   0.366   7.372   9.595  0.3754  0.3222 -0.3206
  416loPI   C3A 6649   0.458   7.318   9.147 -0.0652 -0.2647 -0.1863
  416loPI   C4A 6650   0.452   7.118   8.798 -0.0300  0.1769 -0.0226
  416loPI   C5A 6651   0.159   6.858   8.489 -0.0606 -0.1767 -0.0345
  416loPI   C6A 6652   0.152   6.424   8.513  0.0939  0.1821  0.0130
  416loPI   C1B 6653   0.789   6.997   9.969 -0.2084  0.0209  0.0066
  416loPI   C2B 6654   0.798   7.100   9.490  0.0077 -0.2712 -0.5462
  416loPI   C3B 6655   0.964   6.983   9.138  0.3456  0.0216 -0.1939
  416loPI   C4B 6656   0.998   6.830   8.690 -0.0970  0.0164  0.2925
  417loPI    C1 6657  12.023   6.508  11.178  0.0689 -0.0529 -0.2025
  417loPI    C2 6658  11.787   6.794  11.028  0.1407  0.0017 -0.2116
  417loPI    C3 6659  11.905   6.811  11.410  0.0439 -0.0814 -0.1777
  417loPI   PO4 6660  12.077   6.427  11.032 -0.2691  0.6177  0.2959
  417loPI   GL1 6661  11.765   6.438  10.704  0.0547  0.2564 -0.3409
  417loPI   GL2 6662  11.794   6.086  10.619  0.1519 -0.3795  0.2563
  417loPI   C1A 6663  12.038   6.689  10.342  0.0676  0.3004  0.1084
  417loPI   C2A 6664  11.971   6.602   9.994 -0.0777  0.0126 -0.0635
  417loPI   C3A 6665  11.837   6.712   9.653  0.0470  0.1236 -0.4572
  417loPI   C4A 6666  12.058   6.677   9.339 -0.0230 -0.2707 -0.0295
  417loPI   C5A 6667  12.111   6.792   8.873  0.1082  0.0906  0.2333
  417loPI   C6A 6668  12.100   7.057   8.558  0.0052 -0.0497 -0.1085
  417loPI   C1B 6669  11.947   6.139  10.177  0.1746  0.0145 -0.0168
  417loPI   C2B 6670  11.970   6.172   9.781  0.2963  0.4758  0.1300
  417loPI   C3B 6671  11.933   6.203   9.335  0.1641 -0.0674 -0.0577
  417loPI   C4B 6672  12.106   6.319   8.953 -0.2885  0.3760  0.3111
  418loPI    C1 6673   1.693   5.275  11.413 -0.1432 -0.0346  0.0059
  418loPI    C2 6674   1.468   4.966  11.530 -0.0258 -0.0571  0.1757
  418loPI    C3 6675   1.819   5.036  11.707  0.1421 -0.0728 -0.1438
  418loPI   PO4 6676   1.639   5.308  11.131 -0.1542 -0.0021  0.1529
  418loPI   GL1 6677   1.535   5.272  10.679 -0.1227  0.0885 -0.2887
  418loPI   GL2 6678   1.884   5.157  10.645  0.1448 -0.1784 -0.1098
  418loPI   C1A 6679   1.348   5.523  10.443 -0.0004 -0.1267 -0.1009
  418loPI   C2A 6680   1.262   5.670  10.038  0.0296  0.2416 -0.3619
  418loPI   C3A 6681   1.389   5.792   9.611  0.3855 -0.1371 -0.0814
  418loPI   C4A 6682   1.437   5.608   9.122  0.0029 -0.0315 -0.1814
  418loPI   C5A 6683   1.331   5.581   8.635  0.1447  0.2252  0.0354
  418loPI   C6A 6684   1.056   5.674   8.183 -0.1769  0.2860  0.0217
  418loPI   C1B 6685   2.204   5.332  10.299 -0.2836 -0.0146  0.0390
  418loPI   C2B 6686   2.057   5.418   9.941 -0.1356 -0.0132  0.0078
  418loPI   C3B 6687   1.824   5.442   9.540  0.3866  0.0459  0.1692
  418loPI   C4B 6688   1.872   5.321   9.126 -0.0724 -0.3439 -0.0786
  419loPI    C1 6689   7.389   3.069  11.002  0.4315 -0.0497  0.0275
  419loPI    C2 6690   7.159   2.855  11.249  0.0783  0.2312 -0.0501
  419loPI    C3 6691   7.412   3.127  11.397  0.3154 -0.0294  0.0317
  419loPI   PO4 6692   7.459   2.980  10.768  0.1354  0.0280 -0.0461
  419loPI   GL1 6693   7.468   2.938  10.350 -0.4617 -0.2615 -0.5009
  419loPI   GL2 6694   7.193   3.103  10.333 -0.1746  0.0813 -0.0126
  419loPI   C1A 6695   7.570   3.374  10.104 -0.1680 -0.1138  0.2098
  419loPI   C2A 6696   7.623   3.544   9.620 -0.1130  0.1312  0.1042
  419loPI   C3A 6697   7.741   3.414   9.189  0.0885  0.3900 -0.0036
  419loPI   C4A 6698   8.041   3.237   8.922  0.1219  0.1572  0.1021
  419loPI   C5A 6699   8.215   2.829   8.716  0.4251 -0.0346  0.0652
  419loPI   C6A 6700   8.104   2.453   8.623 -0.0815 -0.1375 -0.1705
  419loPI   C1B 6701   6.863   3.204   9.996 -0.0251  0.4045  0.0952
  419loPI   C2B 6702   6.540   3.143   9.669 -0.2348 -0.1070  0.0202
  419loPI   C3B 6703   6.460   2.917   9.227 -0.2326 -0.0136  0.0920
  419loPI   C4B 6704   6.403   2.528   8.972  0.0955 -0.2980  0.2094
  420loPI    C1 6705  13.768  14.450  11.619 -0.0735 -0.2293  0.0293
  420loPI    C2 6706  14.132  14.476  11.784 -0.0393 -0.1385 -0.0596
  420loPI    C3 6707  13.923  14.136  11.814  0.1384 -0.2608 -0.1850
  420loPI   PO4 6708  13.906  14.504  11.337 -0.2145 -0.0227  0.2531
  420loPI   GL1 6709  13.723  14.416  10.982 -0.1382  0.1394 -0.1860
  420loPI   GL2 6710  13.820  14.190  10.906  0.0655 -0.0482  0.1205
  420loPI   C1A 6711  13.834  14.543  10.598  0.3889 -0.1952 -0.1634
  420loPI   C2A 6712  13.799  14.599  10.088  0.1087 -0.1644  0.1984
  420loPI   C3A 6713  13.728  14.618   9.661 -0.3878 -0.0561 -0.1406
  420loPI   C4A 6714  13.846  14.580   9.246 -0.3431 -0.1427  0.3104
  420loPI   C5A 6715  13.838  14.535   8.868  0.1774 -0.2161 -0.2022
  420loPI   C6A 6716  13.455  14.579   8.622 -0.1948 -0.1969 -0.4977
  420loPI   C1B 6717  13.839  14.044  10.484 -0.0208  0.4928  0.1599
  420loPI   C2B 6718  13.716  14.056  10.185  0.0328 -0.0831  0.0559
  420loPI   C3B 6719  13.727  14.073   9.719 -0.0733  0.5790 -0.2730
  420loPI   C4B 6720  13.916  14.113   9.428  0.0016 -0.0464  0.3232
  421loPI    C1 6721   0.821  14.961  11.457  0.0185  0.1768 -0.0901
  421loPI    C2 6722   0.829  15.224  11.758 -0.1122  0.1288 -0.0438
  421loPI    C3 6723   0.983  14.858  11.808  0.0192  0.1769 -0.0904
  421loPI   PO4 6724   0.902  14.974  11.249  0.3865  0.1608 -0.1490
  421loPI   GL1 6725   0.818  14.722  10.897  0.2735  0.0466  0.1388
  421loPI   GL2 6726   1.038  14.402  10.929 -0.4016 -0.3298  0.3681
  421loPI   C1A 6727   0.841  14.918  10.544 -0.0615  0.0046 -0.0776
  421loPI   C2A 6728   0.815  14.968  10.117  0.2243 -0.0166 -0.1246
  421loPI   C3A 6729   0.753  14.889   9.783 -0.0794 -0.1047 -0.3721
  421loPI   C4A 6730   0.781  14.931   9.353  0.0039  0.1069 -0.0382
  421loPI   C5A 6731   0.672  14.924   8.924 -0.0708 -0.2360 -0.2921
  421loPI   C6A 6732   0.850  14.913   8.549 -0.1576 -0.0464 -0.0126
  421loPI   C1B 6733   1.237  14.189  10.480 -0.0549  0.0756 -0.0842
  421loPI   C2B 6734   1.273  14.161  10.016  0.1624 -0.0933 -0.0287
  421loPI   C3B 6735   1.211  14.133   9.532  0.0882  0.1571  0.1870
  421loPI   C4B 6736   1.275  14.081   9.079  0.0194 -0.0528  0.0379
  422loPI    C1 6737  15.796   8.964  10.861  0.3425 -0.1133 -0.1136
  422loPI    C2 6738  15.986   9.311  10.924  0.2158 -0.0645  0.0059
  422loPI    C3 6739  15.759   9.152  11.212 -0.2180  0.0615 -0.2566
  422loPI   PO4 6740  15.847   8.922  10.582  0.0339 -0.0685 -0.1023
  422loPI   GL1 6741  16.018   8.893  10.225 -0.0816 -0.0596 -0.0565
  422loPI   GL2 6742  16.448   8.891  10.172 -0.0412 -0.0246  0.1317
  422loPI   C1A 6743  15.980   9.127   9.772 -0.0487  0.1743 -0.1124
  422loPI   C2A 6744  16.027   9.172   9.352 -0.3024  0.0592  0.1529
  422loPI   C3A 6745  16.042   9.101   8.907 -0.0585  0.1902 -0.0251
  422loPI   C4A 6746  16.077   9.392   8.466 -0.1439 -0.1411 -0.0989
  422loPI   C5A 6747  15.896   9.850   8.565 -0.2644 -0.2730  0.2030
  422loPI   C6A 6748  15.626  10.153   8.584 -0.2470 -0.0251 -0.1632
  422loPI   C1B 6749  16.468   8.926   9.723  0.2085  0.0293  0.0158
  422loPI   C2B 6750  16.504   8.914   9.275 -0.0213  0.3165 -0.2390
  422loPI   C3B 6751  16.536   8.886   8.726  0.0747  0.0776 -0.0913
  422loPI   C4B 6752  16.572   9.073   8.379  0.0417 -0.1309  0.0152
  423loPI    C1 6753   5.669  17.368  11.890 -0.1275  0.0014 -0.0631
  423loPI    C2 6754   5.372  17.537  12.098 -0.1382 -0.1498  0.0459
  423loPI    C3 6755   5.435  17.143  12.123 -0.1690 -0.1780 -0.2746
  423loPI   PO4 6756   5.732  17.426  11.618  0.4220  0.0335 -0.1597
  423loPI   GL1 6757   5.618  17.318  11.201  0.0963  0.1943 -0.0357
  423loPI   GL2 6758   5.333  17.240  11.030 -0.0017  0.0728  0.2459
  423loPI   C1A 6759   5.774  17.282  10.798  0.2241 -0.0279 -0.1209
  423loPI   C2A 6760   5.846  17.246  10.290  0.0429  0.0876 -0.0764
  423loPI   C3A 6761   5.763  17.354   9.889  0.0551 -0.2808 -0.0267
  423loPI   C4A 6762   5.809  17.298   9.581  0.1612 -0.1142  0.3582
  423loPI   C5A 6763   5.786  17.283   9.158  0.0705 -0.0546  0.2078
  423loPI   C6A 6764   5.484  17.380   8.970 -0.1228 -0.3357  0.0362
  423loPI   C1B 6765   5.339  17.574  10.693  0.1420  0.2911 -0.0011
  423loPI   C2B 6766   5.323  17.538  10.243 -0.1133  0.1494 -0.5888
  423loPI   C3B 6767   5.312  17.632   9.836 -0.2699 -0.0274 -0.1486
  423loPI   C4B 6768   5.374  17.557   9.470  0.0825  0.3393 -0.2235
  424loPI    C1 6769   8.460  14.170  11.410  0.1824 -0.0846  0.1439
  424loPI    C2 6770   8.342  13.879  11.658 -0.2046 -0.0082  0.0546
  424loPI    C3 6771   8.352  14.258  11.785 -0.1434 -0.0025  0.0332
  424loPI   PO4 6772   8.274  14.155  11.212 -0.0859  0.2530  0.3244
  424loPI   GL1 6773   8.424  14.018  10.840  0.0333 -0.1117  0.1376
  424loPI   GL2 6774   8.380  13.718  10.644  0.1522 -0.0063 -0.2769
  424loPI   C1A 6775   8.385  14.180  10.448  0.4298 -0.1684 -0.0388
  424loPI   C2A 6776   8.401  14.130  10.056 -0.2211 -0.0542 -0.0555
  424loPI   C3A 6777   8.442  14.106   9.616  0.0802 -0.2790  0.2059
  424loPI   C4A 6778   8.537  14.093   9.204  0.3375  0.1303 -0.4350
  424loPI   C5A 6779   8.318  14.151   8.882 -0.1904 -0.0493 -0.0351
  424loPI   C6A 6780   8.068  13.958   8.579 -0.1146  0.0603  0.0188
  424loPI   C1B 6781   8.413  13.678  10.246  0.2030  0.3546 -0.2901
  424loPI   C2B 6782   8.404  13.642   9.871 -0.1002  0.3445 -0.3509
  424loPI   C3B 6783   8.505  13.566   9.413  0.1440 -0.1191  0.1947
  424loPI   C4B 6784   8.481  13.634   8.936 -0.1893  0.1196 -0.0306
  425loPI    C1 6785  17.486   1.751  11.615 -0.0813 -0.1710 -0.1687
  425loPI    C2 6786  17.592   2.126  11.707 -0.1418 -0.1873 -0.0299
  425loPI    C3 6787  17.440   1.886  11.989 -0.0648 -0.3300 -0.1086
  425loPI   PO4 6788  17.460   1.810  11.315 -0.0146 -0.1342  0.0126
  425loPI   GL1 6789  17.434   1.821  10.944  0.1520 -0.1471 -0.1773
  425loPI   GL2 6790  17.370   2.044  10.760 -0.0663 -0.1433 -0.0231
  425loPI   C1A 6791  17.333   1.478  10.661  0.3615  0.2215  0.0214
  425loPI   C2A 6792  17.389   1.409  10.333  0.4199 -0.0015  0.1188
  425loPI   C3A 6793  17.436   1.535   9.867  0.2156  0.3354 -0.0443
  425loPI   C4A 6794  17.605   1.477   9.470  0.0269 -0.0329  0.0259
  425loPI   C5A 6795  17.625   1.626   9.052  0.2601  0.3355  0.3090
  425loPI   C6A 6796  17.675   1.727   8.605  0.1529 -0.0043  0.0057
  425loPI   C1B 6797  17.464   2.004  10.300 -0.0968 -0.2226  0.0945
  425loPI   C2B 6798  17.571   2.099   9.862  0.1178  0.2082  0.0216
  425loPI   C3B 6799  17.590   1.959   9.441 -0.2457 -0.2737  0.0626
  425loPI   C4B 6800  17.344   2.084   9.025  0.1179  0.2502  0.0447
  426loPI    C1 6801  14.893   8.366  11.100  0.0499  0.1335  0.0060
  426loPI    C2 6802  15.252   8.256  11.237 -0.0069  0.0571  0.0944
  426loPI    C3 6803  14.969   8.380  11.492 -0.0119  0.2104  0.0155
  426loPI   PO4 6804  14.947   8.302  10.879 -0.0237  0.0602  0.0186
  426loPI   GL1 6805  14.717   8.371  10.559  0.2602  0.1176  0.1835
  426loPI   GL2 6806  15.041   8.465  10.427 -0.1403  0.0074  0.1162
  426loPI   C1A 6807  14.707   8.195  10.092 -0.0666  0.1220  0.0458
  426loPI   C2A 6808  14.706   8.277   9.639 -0.2035  0.0081 -0.2828
  426loPI   C3A 6809  14.795   8.395   9.254 -0.0830  0.3808  0.5388
  426loPI   C4A 6810  14.820   8.407   8.868 -0.3777 -0.4262 -0.2594
  426loPI   C5A 6811  14.811   8.557   8.445  0.2054 -0.2400  0.0454
  426loPI   C6A 6812  15.089   8.865   8.292  0.1027 -0.1514  0.1335
  426loPI   C1B 6813  15.098   8.511  10.027 -0.0816  0.1665  0.0601
  426loPI   C2B 6814  15.160   8.519   9.615 -0.1768 -0.2070  0.0658
  426loPI   C3B 6815  15.198   8.679   9.260 -0.3617 -0.1051 -0.1857
  426loPI   C4B 6816  15.251   8.677   8.753  0.2419  0.0158 -0.0695
  427loPI    C1 6817   4.520   2.275  11.253  0.0363  0.1275  0.0675
  427loPI    C2 6818   4.262   2.511  11.447 -0.0719  0.0674 -0.0018
  427loPI    C3 6819   4.614   2.657  11.324 -0.2172  0.2456 -0.2134
  427loPI   PO4 6820   4.304   2.054  11.108  0.0211 -0.0780  0.0999
  427loPI   GL1 6821   4.060   2.069  10.671 -0.0935 -0.1081  0.1164
  427loPI   GL2 6822   4.341   2.217  10.620 -0.1176  0.3097 -0.0507
  427loPI   C1A 6823   4.021   1.954  10.265  0.0623  0.2095 -0.1733
  427loPI   C2A 6824   4.032   1.937   9.872 -0.4611 -0.3189 -0.2445
  427loPI   C3A 6825   3.941   1.986   9.373 -0.0507  0.2853  0.0546
  427loPI   C4A 6826   3.894   1.922   8.961 -0.2388  0.1403 -0.2557
  427loPI   C5A 6827   3.936   1.870   8.571 -0.0766 -0.0192  0.1311
  427loPI   C6A 6828   4.070   2.101   8.119 -0.1492 -0.1990 -0.2141
  427loPI   C1B 6829   4.441   2.228  10.177 -0.0113  0.0995 -0.0725
  427loPI   C2B 6830   4.486   2.210   9.727  0.0699  0.0376 -0.0007
  427loPI   C3B 6831   4.529   2.166   9.354 -0.0786  0.0672  0.0754
  427loPI   C4B 6832   4.367   1.990   8.930 -0.0490  0.0527  0.2322
  428loPI    C1 6833  13.332   1.478  11.619  0.0544  0.1171 -0.1094
  428loPI    C2 6834  13.693   1.614  11.724  0.1501 -0.1634 -0.0666
  428loPI    C3 6835  13.372   1.710  11.942  0.1936  0.1061 -0.1182
  428loPI   PO4 6836  13.271   1.490  11.361 -0.4188 -0.0353 -0.2738
  428loPI   GL1 6837  13.331   1.298  10.947 -0.1801  0.0333 -0.3908
  428loPI   GL2 6838  13.572   1.431  10.977 -0.0207 -0.0330  0.0616
  428loPI   C1A 6839  13.346   1.248  10.437 -0.0834  0.0839 -0.0730
  428loPI   C2A 6840  13.459   1.169  10.013 -0.1193 -0.1053 -0.1733
  428loPI   C3A 6841  13.458   1.240   9.597 -0.1865 -0.0412  0.2511
  428loPI   C4A 6842  13.485   1.185   9.145  0.1893 -0.0467  0.0605
  428loPI   C5A 6843  13.366   0.982   8.838  0.0568 -0.2305 -0.1493
  428loPI   C6A 6844  13.024   0.692   8.702 -0.0492 -0.1630 -0.1593
  428loPI   C1B 6845  13.750   1.468  10.505 -0.2636  0.3502  0.0071
  428loPI   C2B 6846  13.879   1.458  10.129  0.1510 -0.3247 -0.0276
  428loPI   C3B 6847  13.915   1.533   9.733  0.1299  0.1881 -0.0877
  428loPI   C4B 6848  13.878   1.513   9.325  0.0236 -0.1136  0.0712
  429loPI    C1 6849  11.370  10.610  11.455 -0.4505  0.0017  0.0978
  429loPI    C2 6850  11.556  10.784  11.764 -0.3190 -0.2030  0.1363
  429loPI    C3 6851  11.302  10.481  11.828 -0.1868 -0.3370  0.0348
  429loPI   PO4 6852  11.466  10.568  11.359 -0.1658 -0.0339  0.2210
  429loPI   GL1 6853  11.468  10.828  10.938  0.1882 -0.2873 -0.2555
  429loPI   GL2 6854  11.511  10.530  10.892 -0.4492  0.1610 -0.1113
  429loPI   C1A 6855  11.212  10.765  10.465 -0.3142 -0.1285 -0.1084
  429loPI   C2A 6856  11.131  10.835  10.001 -0.2466  0.0158  0.0095
  429loPI   C3A 6857  11.155  10.967   9.498  0.0030 -0.1028 -0.0527
  429loPI   C4A 6858  11.017  10.995   9.092  0.0449  0.2880 -0.0070
  429loPI   C5A 6859  10.924  10.868   8.685  0.2314  0.1828 -0.3255
  429loPI   C6A 6860  10.492  10.656   8.544 -0.0870 -0.1847 -0.0854
  429loPI   C1B 6861  11.680  10.500  10.566  0.0803 -0.0258 -0.2375
  429loPI   C2B 6862  11.645  10.556  10.161  0.0971 -0.0592 -0.2127
  429loPI   C3B 6863  11.636  10.700   9.748  0.3198  0.0321  0.2036
  429loPI   C4B 6864  11.534  10.687   9.302  0.0717  0.2677 -0.0635
  430loPI    C1 6865  15.674   1.167  11.708  0.3378 -0.1512 -0.0688
  430loPI    C2 6866  15.762   0.879  11.971  0.3350  0.0287  0.1322
  430loPI    C3 6867  15.404   0.884  11.793  0.4208 -0.2264 -0.0545
  430loPI   PO4 6868  15.779   1.211  11.453 -0.0506  0.3532 -0.0639
  430loPI   GL1 6869  15.547   1.066  11.081  0.1020 -0.0249 -0.1463
  430loPI   GL2 6870  15.795   1.161  10.964  0.3080  0.1145  0.2040
  430loPI   C1A 6871  15.472   0.948  10.610 -0.2304  0.1567 -0.0668
  430loPI   C2A 6872  15.543   0.775  10.247 -0.0438  0.0103  0.4771
  430loPI   C3A 6873  15.572   0.961   9.949 -0.2675  0.1732 -0.0288
  430loPI   C4A 6874  15.713   0.948   9.557  0.0880 -0.0094  0.1226
  430loPI   C5A 6875  15.747   0.979   9.078  0.1896 -0.1005  0.1529
  430loPI   C6A 6876  15.684   1.087   8.683  0.2634 -0.1111  0.0112
  430loPI   C1B 6877  15.906   1.269  10.486 -0.1318  0.2874 -0.2455
  430loPI   C2B 6878  16.005   1.117  10.120 -0.0314 -0.0284 -0.0024
  430loPI   C3B 6879  16.149   1.272   9.746 -0.1364  0.0901  0.1153
  430loPI   C4B 6880  16.208   1.188   9.373 -0.0316  0.0066  0.0426
  431loPI    C1 6881  10.102   4.746  10.917 -0.0215 -0.1527 -0.0689
  431loPI    C2 6882   9.917   4.881  11.245  0.2330 -0.0908  0.0516
  431loPI    C3 6883   9.949   4.487  11.180 -0.0830 -0.1019 -0.0543
  431loPI   PO4 6884  10.210   4.930  10.844 -0.5206 -0.1016  0.2170
  431loPI   GL1 6885  10.327   4.915  10.439  0.0745  0.2800  0.2347
  431loPI   GL2 6886  10.210   5.020  10.136 -0.1069 -0.2224  0.2013
  431loPI   C1A 6887  10.397   4.565   9.989  0.1263  0.1936 -0.0518
  431loPI   C2A 6888  10.290   4.495   9.499  0.0349 -0.2394 -0.0307
  431loPI   C3A 6889   9.942   4.488   9.235 -0.0856 -0.0833  0.0371
  431loPI   C4A 6890   9.936   4.281   8.816  0.4198  0.2554  0.3181
  431loPI   C5A 6891   9.915   3.974   8.596  0.3178  0.0819 -0.1279
  431loPI   C6A 6892   9.835   3.604   8.415 -0.0249  0.4728 -0.0994
  431loPI   C1B 6893  10.398   5.464  10.022  0.0875 -0.1019 -0.0932
  431loPI   C2B 6894  10.723   5.684   9.777 -0.0020  0.4466  0.2074
  431loPI   C3B 6895  11.053   5.496   9.559  0.2320 -0.2558 -0.3118
  431loPI   C4B 6896  11.080   5.645   9.111  0.1140  0.2823  0.2075
  432loPI    C1 6897   6.627  10.387  11.249  0.3899  0.0539  0.1473
  432loPI    C2 6898   6.336  10.619  11.397  0.0288 -0.1407 -0.2355
  432loPI    C3 6899   6.714  10.750  11.391 -0.0636  0.1611  0.1671
  432loPI   PO4 6900   6.575  10.340  11.038  0.3544 -0.1200 -0.0983
  432loPI   GL1 6901   6.758  10.323  10.747 -0.0296 -0.2497  0.1462
  432loPI   GL2 6902   7.091  10.189  10.592 -0.1709 -0.0419  0.1964
  432loPI   C1A 6903   6.731  10.561  10.315  0.2723  0.1392  0.0620
  432loPI   C2A 6904   6.660  10.448   9.971 -0.2064 -0.1560  0.1015
  432loPI   C3A 6905   6.607  10.533   9.655  0.0058  0.3021 -0.0846
  432loPI   C4A 6906   6.513  10.534   9.062 -0.1500 -0.1717 -0.0151
  432loPI   C5A 6907   6.681  10.620   8.682 -0.2866 -0.2523 -0.0094
  432loPI   C6A 6908   6.674  10.680   8.214  0.1627  0.2719 -0.0113
  432loPI   C1B 6909   7.050  10.189  10.117  0.0004  0.2226 -0.2026
  432loPI   C2B 6910   7.107  10.206   9.760  0.0471 -0.1728 -0.1431
  432loPI   C3B 6911   7.014  10.273   9.417 -0.0225 -0.0392  0.1398
  432loPI   C4B 6912   6.992  10.236   9.041 -0.0589  0.0005 -0.2350
  433loPI    C1 6913  17.494  14.776  11.658 -0.2559 -0.0944  0.0764
  433loPI    C2 6914  17.519  15.147  11.803  0.0284 -0.1051  0.0606
  433loPI    C3 6915  17.717  14.849  11.982  0.1701 -0.1655 -0.1922
  433loPI   PO4 6916  17.519  14.888  11.405 -0.1215 -0.2308 -0.0753
  433loPI   GL1 6917  17.557  14.799  11.002 -0.2301 -0.1953 -0.2349
  433loPI   GL2 6918  17.817  14.822  10.783 -0.3465  0.2530  0.2517
  433loPI   C1A 6919  17.312  14.989  10.653 -0.1807  0.2004  0.1527
  433loPI   C2A 6920  17.343  15.146  10.300  0.1826  0.0902  0.0493
  433loPI   C3A 6921  17.352  15.159   9.845  0.1130  0.2516  0.2397
  433loPI   C4A 6922  17.362  15.173   9.365  0.4266 -0.0233 -0.2067
  433loPI   C5A 6923  17.319  15.207   8.890  0.2499 -0.0108  0.2499
  433loPI   C6A 6924  17.504  15.154   8.477 -0.0068  0.2140 -0.1393
  433loPI   C1B 6925  17.740  14.825  10.342 -0.2784  0.0252  0.3485
  433loPI   C2B 6926  17.721  14.841   9.933  0.1119 -0.2548 -0.1513
  433loPI   C3B 6927  17.774  14.944   9.518 -0.0736  0.1281 -0.2571
  433loPI   C4B 6928  17.823  15.022   9.107  0.3375  0.0703  0.2588
  434loPI    C1 6929   3.639  10.696  11.610 -0.2205 -0.0538  0.0145
  434loPI    C2 6930   3.870  10.443  11.817  0.1184  0.0153 -0.2704
  434loPI    C3 6931   3.628  10.696  12.010 -0.0121 -0.3258  0.0229
  434loPI   PO4 6932   3.717  10.699  11.414 -0.1601 -0.0555 -0.1561
  434loPI   GL1 6933   3.936  10.528  11.065  0.3895  0.0010  0.1936
  434loPI   GL2 6934   3.859  10.337  10.880  0.1356 -0.0451 -0.1194
  434loPI   C1A 6935   4.295  10.548  10.723 -0.0976 -0.0908 -0.2117
  434loPI   C2A 6936   4.396  10.652  10.280  0.1928 -0.1973  0.0144
  434loPI   C3A 6937   4.358  10.735   9.902 -0.1785  0.1125  0.1319
  434loPI   C4A 6938   4.360  10.811   9.484 -0.0357  0.1532 -0.0037
  434loPI   C5A 6939   4.235  10.764   9.010 -0.1584 -0.0731 -0.2702
  434loPI   C6A 6940   4.038  10.289   8.819 -0.1721 -0.0719 -0.1397
  434loPI   C1B 6941   3.871  10.483  10.499 -0.4784 -0.1074  0.0738
  434loPI   C2B 6942   3.941  10.536  10.109  0.1627  0.0093  0.1553
  434loPI   C3B 6943   3.886  10.499   9.659 -0.5903 -0.0453  0.1302
  434loPI   C4B 6944   3.854  10.537   9.222 -0.0423 -0.1559 -0.3475
  435loPI    C1 6945   9.026   7.468  11.027  0.2845 -0.0144 -0.3251
  435loPI    C2 6946   9.187   7.140  10.865 -0.1601 -0.3497 -0.1118
  435loPI    C3 6947   8.887   7.106  11.127 -0.2133  0.2330 -0.0846
  435loPI   PO4 6948   8.937   7.608  10.854  0.0777 -0.1966 -0.1963
  435loPI   GL1 6949   8.883   7.630  10.426  0.1710 -0.0500  0.3027
  435loPI   GL2 6950   8.928   7.967  10.479 -0.4212 -0.1470 -0.0077
  435loPI   C1A 6951   9.215   7.833  10.101  0.2074 -0.2970 -0.0772
  435loPI   C2A 6952   9.321   7.837   9.673 -0.0943 -0.0816  0.0246
  435loPI   C3A 6953   9.343   7.812   9.230  0.1374  0.5054  0.0629
  435loPI   C4A 6954   9.462   7.713   8.752 -0.0475 -0.0408 -0.3261
  435loPI   C5A 6955   9.441   7.442   8.406  0.1987  0.2914  0.2984
  435loPI   C6A 6956   9.253   7.097   8.209  0.1620  0.0758  0.2905
  435loPI   C1B 6957   8.735   8.005  10.122  0.0701 -0.0682 -0.3670
  435loPI   C2B 6958   8.787   8.140   9.672 -0.0881 -0.0325 -0.0127
  435loPI   C3B 6959   8.787   8.161   9.214 -0.2532  0.0288  0.0983
  435loPI   C4B 6960   9.019   7.906   8.831 -0.2592 -0.3035 -0.0767
  436loPI    C1 6961   8.414  11.836  11.510  0.1018 -0.1193 -0.1005
  436loPI    C2 6962   8.529  12.218  11.482  0.1764 -0.1354 -0.0212
  436loPI    C3 6963   8.410  12.071  11.834  0.0183 -0.1491 -0.0798
  436loPI   PO4 6964   8.460  11.751  11.253  0.0170 -0.0880  0.0930
  436loPI   GL1 6965   8.445  12.121  10.987 -0.2785  0.0493 -0.4032
  436loPI   GL2 6966   8.174  12.258  10.779  0.2373 -0.3506  0.0090
  436loPI   C1A 6967   8.452  11.985  10.551 -0.1463 -0.1956 -0.1419
  436loPI   C2A 6968   8.466  11.993  10.010 -0.1459  0.1173 -0.2635
  436loPI   C3A 6969   8.423  11.979   9.653 -0.0068  0.1036 -0.0491
  436loPI   C4A 6970   8.391  12.032   9.192  0.2035 -0.1301 -0.1855
  436loPI   C5A 6971   8.342  12.020   8.743 -0.3591  0.2867  0.2662
  436loPI   C6A 6972   8.656  12.136   8.371 -0.1529 -0.0394  0.2161
  436loPI   C1B 6973   8.086  12.195  10.278  0.1143  0.1375 -0.2795
  436loPI   C2B 6974   8.074  12.294   9.844  0.3382  0.0245 -0.0823
  436loPI   C3B 6975   7.946  12.329   9.424  0.1439  0.2024  0.0951
  436loPI   C4B 6976   7.976  12.378   8.984  0.1918 -0.4024  0.0543
  437loPI    C1 6977   6.142   4.905  11.015  0.1607 -0.0896 -0.0327
  437loPI    C2 6978   5.974   5.197  10.799 -0.0028 -0.0117  0.1955
  437loPI    C3 6979   6.283   5.279  11.040 -0.0483 -0.0266  0.2593
  437loPI   PO4 6980   6.195   4.597  10.741 -0.0338 -0.3148 -0.3714
  437loPI   GL1 6981   5.977   4.366  10.369  0.0751  0.0723  0.2305
  437loPI   GL2 6982   6.410   4.307  10.377 -0.2545 -0.0010  0.0168
  437loPI   C1A 6983   5.852   4.276   9.957  0.0256  0.2237  0.0265
  437loPI   C2A 6984   5.928   4.322   9.507 -0.1388 -0.0046  0.0172
  437loPI   C3A 6985   5.826   4.152   9.105  0.2770  0.0332 -0.0421
  437loPI   C4A 6986   5.814   4.026   8.729  0.1131 -0.2523 -0.1274
  437loPI   C5A 6987   6.008   4.023   8.340  0.1812  0.2648  0.0768
  437loPI   C6A 6988   6.252   3.628   8.216 -0.1434  0.0374  0.0334
  437loPI   C1B 6989   6.351   4.388   9.953  0.2233  0.1967  0.0521
  437loPI   C2B 6990   6.418   4.479   9.571 -0.0328  0.0292  0.1146
  437loPI   C3B 6991   6.530   4.422   9.169 -0.0554  0.3037 -0.1671
  437loPI   C4B 6992   6.555   4.736   8.759  0.0141 -0.1294 -0.2992
  438loPI    C1 6993  15.100  13.675  11.007  0.0414 -0.1681  0.1214
  438loPI    C2 6994  14.958  13.608  10.639 -0.1946  0.1593  0.1485
  438loPI    C3 6995  14.880  13.350  10.935 -0.1324 -0.0262  0.0044
  438loPI   PO4 6996  15.207  13.904  10.947  0.0286 -0.0156 -0.0745
  438loPI   GL1 6997  15.284  13.920  10.459 -0.1792  0.3150 -0.3176
  438loPI   GL2 6998  15.638  14.037  10.443 -0.1693  0.1174  0.2019
  438loPI   C1A 6999  15.087  13.905  10.036 -0.1433 -0.1841  0.0043
  438loPI   C2A 7000  15.200  13.754   9.690 -0.3488 -0.2182 -0.0831
  438loPI   C3A 7001  15.163  13.806   9.281 -0.0275  0.0405  0.0798
  438loPI   C4A 7002  15.189  13.847   8.917 -0.2744 -0.2337 -0.1331
  438loPI   C5A 7003  15.112  14.052   8.497 -0.2673 -0.1450  0.1873
  438loPI   C6A 7004  15.158  14.222   8.136  0.0756  0.0386  0.0174
  438loPI   C1B 7005  15.605  14.055   9.921  0.2702 -0.0641  0.0413
  438loPI   C2B 7006  15.605  13.973   9.453 -0.0107 -0.2741  0.2537
  438loPI   C3B 7007  15.661  13.999   9.035 -0.0578 -0.0363  0.0934
  438loPI   C4B 7008  15.554  14.187   8.670  0.2503 -0.1425 -0.3777
  439loPI    C1 7009  13.085  12.136  11.478  0.1159 -0.0876 -0.0966
  439loPI    C2 7010  13.245  11.769  11.472  0.0955 -0.1006  0.0952
  439loPI    C3 7011  13.083  11.912  11.809  0.2183  0.1344  0.0570
  439loPI   PO4 7012  13.052  12.178  11.247  0.1487 -0.1163 -0.0327
  439loPI   GL1 7013  13.020  12.217  10.767 -0.2608 -0.2086  0.2646
  439loPI   GL2 7014  13.029  11.998  10.585  0.1891  0.2939 -0.0911
  439loPI   C1A 7015  12.835  12.435  10.439  0.0044 -0.0415 -0.0642
  439loPI   C2A 7016  12.820  12.562  10.058 -0.4601 -0.0194 -0.1956
  439loPI   C3A 7017  12.882  12.434   9.645  0.1491 -0.2003 -0.0966
  439loPI   C4A 7018  13.068  12.494   9.271 -0.1839 -0.0676 -0.0108
  439loPI   C5A 7019  12.918  12.691   8.855 -0.1136  0.0407 -0.1613
  439loPI   C6A 7020  12.815  12.956   8.457 -0.3623 -0.0181  0.0709
  439loPI   C1B 7021  12.880  11.958  10.253 -0.1225  0.2078 -0.1858
  439loPI   C2B 7022  12.912  11.948   9.823  0.0553 -0.3269  0.3183
  439loPI   C3B 7023  13.018  11.976   9.390  0.1510  0.0610 -0.2275
  439loPI   C4B 7024  12.795  12.151   8.970 -0.0495 -0.1558 -0.0992
  440loPI    C1 7025   1.005   3.236  11.449  0.0344  0.1791 -0.2019
  440loPI    C2 7026   1.256   2.945  11.336  0.1434  0.1647  0.0695
  440loPI    C3 7027   1.065   2.920  11.686 -0.3315  0.1196 -0.1834
  440loPI   PO4 7028   1.093   3.408  11.222 -0.1290  0.1375 -0.0876
  440loPI   GL1 7029   1.270   3.324  10.929  0.0989  0.1023 -0.2222
  440loPI   GL2 7030   1.487   3.565  10.735  0.3910  0.2969 -0.2642
  440loPI   C1A 7031   1.352   3.075  10.518  0.0716 -0.0745 -0.0089
  440loPI   C2A 7032   1.431   3.053  10.133 -0.2996  0.3872  0.1154
  440loPI   C3A 7033   1.319   3.102   9.661 -0.1625  0.0590 -0.0660
  440loPI   C4A 7034   1.437   3.005   9.291 -0.0496 -0.0430 -0.0532
  440loPI   C5A 7035   1.172   2.967   8.863 -0.2652 -0.0182  0.4216
  440loPI   C6A 7036   1.241   2.857   8.541 -0.1812 -0.1057  0.0290
  440loPI   C1B 7037   1.294   3.591  10.367 -0.0420  0.1319 -0.0641
  440loPI   C2B 7038   1.399   3.585  10.000  0.0055  0.0880  0.0176
  440loPI   C3B 7039   1.381   3.614   9.528 -0.0632 -0.2326  0.1541
  440loPI   C4B 7040   1.429   3.434   9.113  0.2183 -0.4416 -0.3031
  441loPI    C1 7041  10.269   8.913  11.192  0.1505  0.0268  0.2093
  441loPI    C2 7042  10.078   9.255  11.110 -0.0424 -0.1377 -0.0426
  441loPI    C3 7043  10.072   9.107  11.481 -0.0525  0.0728  0.0426
  441loPI   PO4 7044  10.339   8.812  11.042 -0.1249  0.2628 -0.1280
  441loPI   GL1 7045  10.568   8.540  10.805 -0.0446  0.2443  0.0026
  441loPI   GL2 7046  10.279   8.589  10.623 -0.1598 -0.1521 -0.4789
  441loPI   C1A 7047  10.641   8.414  10.396 -0.0077 -0.0517  0.0418
  441loPI   C2A 7048  10.621   8.418   9.980 -0.0072  0.1466  0.0104
  441loPI   C3A 7049  10.738   8.514   9.498  0.1980  0.2703 -0.0249
  441loPI   C4A 7050  10.626   8.621   9.062  0.0531 -0.1312  0.1906
  441loPI   C5A 7051  10.777   8.585   8.638  0.0536 -0.1280 -0.0194
  441loPI   C6A 7052  10.906   8.383   8.278  0.0190 -0.1603  0.1120
  441loPI   C1B 7053  10.165   8.794  10.332  0.4620 -0.0477 -0.0539
  441loPI   C2B 7054  10.182   8.862   9.836 -0.1500 -0.0819 -0.0354
  441loPI   C3B 7055  10.113   8.878   9.348 -0.1563 -0.1672  0.0387
  441loPI   C4B 7056  10.199   8.886   8.968  0.0644  0.1039 -0.0359
  442loPI    C1 7057   0.969  12.281  11.578  0.0754 -0.2000 -0.2879
  442loPI    C2 7058   0.595  12.168  11.664  0.1191 -0.2207 -0.1228
  442loPI    C3 7059   0.889  12.105  11.928  0.2307 -0.1605 -0.2318
  442loPI   PO4 7060   0.916  12.357  11.244 -0.2898 -0.1860  0.0066
  442loPI   GL1 7061   0.735  12.432  10.828 -0.3994  0.1227 -0.0219
  442loPI   GL2 7062   0.431  12.392  10.758 -0.4926 -0.3252  0.0155
  442loPI   C1A 7063   0.854  12.228  10.482 -0.1829 -0.0802 -0.1239
  442loPI   C2A 7064   0.822  12.285  10.139 -0.2827  0.0057  0.2048
  442loPI   C3A 7065   0.887  12.250   9.657  0.1379  0.1744 -0.1587
  442loPI   C4A 7066   0.849  12.339   9.251  0.0889  0.1851  0.2833
  442loPI   C5A 7067   0.987  12.270   8.813 -0.2795 -0.2130  0.0639
  442loPI   C6A 7068   0.978  12.118   8.404 -0.5464  0.1533 -0.0276
  442loPI   C1B 7069   0.358  12.453  10.391 -0.0956 -0.0713  0.0256
  442loPI   C2B 7070   0.270  12.594   9.984  0.0599 -0.0106 -0.0034
  442loPI   C3B 7071   0.373  12.541   9.566 -0.1489  0.1090  0.0930
  442loPI   C4B 7072   0.340  12.506   9.089  0.1391  0.0096  0.2416
  443loPI    C1 7073   8.686   6.310  10.886  0.0001 -0.0262 -0.0420
  443loPI    C2 7074   8.905   6.193  11.199 -0.1244 -0.3150 -0.0602
  443loPI    C3 7075   8.793   6.575  11.166  0.0067 -0.2541  0.1748
  443loPI   PO4 7076   8.726   6.211  10.741 -0.0898  0.2596 -0.1611
  443loPI   GL1 7077   8.792   6.132  10.310  0.0906 -0.0760  0.1345
  443loPI   GL2 7078   8.794   5.828  10.377 -0.2611 -0.0548  0.0988
  443loPI   C1A 7079   8.838   6.047   9.938 -0.0094 -0.0117  0.1595
  443loPI   C2A 7080   8.893   6.032   9.534 -0.0106  0.0793 -0.1275
  443loPI   C3A 7081   8.904   6.245   9.169  0.1737  0.1584 -0.3573
  443loPI   C4A 7082   8.858   6.703   8.944  0.0032 -0.0193  0.1593
  443loPI   C5A 7083   9.143   7.043   8.904 -0.1328 -0.1484  0.0788
  443loPI   C6A 7084   9.202   7.381   9.125  0.3336 -0.1478 -0.3383
  443loPI   C1B 7085   8.893   5.502  10.121 -0.0501  0.1624 -0.1896
  443loPI   C2B 7086   9.195   5.212   9.963  0.1445 -0.1954 -0.0894
  443loPI   C3B 7087   9.093   4.851   9.693 -0.2366  0.1917  0.1325
  443loPI   C4B 7088   9.257   4.714   9.286 -0.1976 -0.0301 -0.0744
  444loPI    C1 7089  13.623  12.258  11.133  0.0289  0.2370 -0.1209
  444loPI    C2 7090  13.572  12.480  11.462  0.0714  0.0729 -0.0024
  444loPI    C3 7091  13.939  12.362  11.354  0.0473  0.0463 -0.0560
  444loPI   PO4 7092  13.492  12.359  10.962  0.1743  0.1064 -0.0708
  444loPI   GL1 7093  13.495  12.188  10.528 -0.0251  0.0340 -0.2685
  444loPI   GL2 7094  13.695  12.548  10.527 -0.0088  0.0943 -0.0424
  444loPI   C1A 7095  13.278  12.185  10.070  0.0242 -0.2611  0.0721
  444loPI   C2A 7096  13.399  12.250   9.630  0.0553  0.0267 -0.0820
  444loPI   C3A 7097  13.424  12.146   9.152 -0.2320 -0.2586  0.3707
  444loPI   C4A 7098  13.385  12.324   8.826 -0.0688  0.6050 -0.2307
  444loPI   C5A 7099  13.259  12.588   8.466  0.1977  0.0403 -0.2644
  444loPI   C6A 7100  13.183  12.476   8.061  0.2217  0.0017  0.0303
  444loPI   C1B 7101  13.780  12.474  10.015 -0.1557 -0.3886 -0.3499
  444loPI   C2B 7102  13.864  12.424   9.589 -0.0970 -0.2615 -0.0719
  444loPI   C3B 7103  13.731  12.543   9.157 -0.0697  0.1389  0.1303
  444loPI   C4B 7104  13.736  12.660   8.641  0.1010  0.0377 -0.1755
  445loPI    C1 7105   1.240  17.245  11.338  0.0194  0.0705 -0.2849
  445loPI    C2 7106   0.914  17.391  11.519  0.0029 -0.0086 -0.2501
  445loPI    C3 7107   1.276  17.462  11.672 -0.0141 -0.1117 -0.1611
  445loPI   PO4 7108   1.196  17.287  11.146 -0.1172 -0.2437 -0.0554
  445loPI   GL1 7109   1.171  16.918  10.814 -0.0623  0.2332 -0.3205
  445loPI   GL2 7110   0.898  17.044  10.631 -0.0319 -0.1720  0.1059
  445loPI   C1A 7111   1.249  16.722  10.345  0.0217  0.2563 -0.0160
  445loPI   C2A 7112   1.280  16.678   9.927 -0.2620  0.1405 -0.1481
  445loPI   C3A 7113   1.236  16.635   9.488 -0.2691 -0.0449  0.1759
  445loPI   C4A 7114   1.212  16.683   9.080  0.2027 -0.1087  0.1485
  445loPI   C5A 7115   1.430  16.857   8.675 -0.2109 -0.0296 -0.1231
  445loPI   C6A 7116   1.353  17.197   8.490  0.3073  0.0045  0.1646
  445loPI   C1B 7117   0.748  16.971  10.210 -0.3171  0.2528 -0.1214
  445loPI   C2B 7118   0.796  16.893   9.694  0.1145  0.1068  0.0848
  445loPI   C3B 7119   0.818  16.999   9.251 -0.3308  0.2434 -0.2353
  445loPI   C4B 7120   0.847  17.021   8.842  0.0207  0.2071 -0.1134
  446loPI    C1 7121  14.366  15.251  11.570  0.0159 -0.0956  0.0628
  446loPI    C2 7122  14.059  14.995  11.593 -0.0287 -0.0336  0.1623
  446loPI    C3 7123  14.270  15.085  11.921 -0.0759  0.1335  0.1477
  446loPI   PO4 7124  14.424  15.203  11.204  0.2338  0.0892  0.0300
  446loPI   GL1 7125  14.285  15.359  10.818 -0.2412  0.0468  0.1666
  446loPI   GL2 7126  14.504  15.640  10.916  0.3416 -0.0059  0.2431
  446loPI   C1A 7127  14.201  15.398  10.282 -0.1746 -0.4231  0.0460
  446loPI   C2A 7128  14.195  15.401   9.872  0.0590 -0.0700  0.1029
  446loPI   C3A 7129  14.306  15.393   9.349 -0.1131 -0.2227  0.2211
  446loPI   C4A 7130  14.360  15.479   8.961 -0.5080 -0.2474 -0.1428
  446loPI   C5A 7131  14.239  15.511   8.522  0.1230  0.2588  0.1894
  446loPI   C6A 7132  14.029  15.320   8.152  0.0080  0.0239  0.1087
  446loPI   C1B 7133  14.637  15.693  10.544  0.0861  0.0337  0.1076
  446loPI   C2B 7134  14.685  15.645  10.160 -0.0269 -0.0275 -0.2325
  446loPI   C3B 7135  14.706  15.626   9.676  0.0704  0.1371 -0.3764
  446loPI   C4B 7136  14.783  15.652   9.266 -0.0732  0.3318 -0.0809
  447loPI    C1 7137  13.112  17.591  11.661 -0.0183 -0.0275 -0.2682
  447loPI    C2 7138  13.204  17.978  11.701  0.2221 -0.1105  0.0100
  447loPI    C3 7139  12.865  17.836  11.858  0.2386 -0.0547  0.0969
  447loPI   PO4 7140  13.201  17.556  11.419  0.0201 -0.4512  0.1289
  447loPI   GL1 7141  13.245  17.704  10.986  0.0803 -0.0559 -0.0348
  447loPI   GL2 7142  13.395  17.970  10.985  0.0277  0.1464  0.1860
  447loPI   C1A 7143  13.225  17.444  10.710 -0.2096 -0.0788  0.0688
  447loPI   C2A 7144  13.353  17.529  10.211 -0.0935 -0.1925  0.0119
  447loPI   C3A 7145  13.438  17.439   9.743  0.1217 -0.0064  0.2147
  447loPI   C4A 7146  13.406  17.438   9.352  0.2423 -0.0568  0.0920
  447loPI   C5A 7147  13.255  17.678   8.994  0.2310  0.3255  0.2977
  447loPI   C6A 7148  13.308  18.081   8.796  0.0016 -0.0758  0.0771
  447loPI   C1B 7149  13.322  17.952  10.498  0.0932 -0.4565  0.0081
  447loPI   C2B 7150  13.335  17.984  10.095 -0.2668 -0.2404  0.0045
  447loPI   C3B 7151  13.447  18.108   9.714  0.0661 -0.0318 -0.0111
  447loPI   C4B 7152  13.413  17.980   9.376  0.0523  0.1740  0.1373
  448loPI    C1 7153   7.796   2.215  10.792 -0.0317 -0.1810 -0.0595
  448loPI    C2 7154   8.056   1.956  10.952  0.0009 -0.0976  0.0236
  448loPI    C3 7155   7.830   2.185  11.190 -0.0093 -0.0313 -0.0496
  448loPI   PO4 7156   7.690   2.171  10.636  0.2211 -0.1987 -0.2697
  448loPI   GL1 7157   7.568   1.912  10.308 -0.1108 -0.0127 -0.1097
  448loPI   GL2 7158   7.516   1.557  10.316  0.0640  0.2105 -0.2766
  448loPI   C1A 7159   7.523   1.918   9.886  0.0141  0.1469 -0.1151
  448loPI   C2A 7160   7.529   1.973   9.385 -0.0326  0.0197  0.1718
  448loPI   C3A 7161   7.495   1.927   8.938  0.2718 -0.2158 -0.0551
  448loPI   C4A 7162   7.657   2.121   8.527 -0.0662  0.0632 -0.0460
  448loPI   C5A 7163   7.650   2.355   8.097  0.1036 -0.1116 -0.1107
  448loPI   C6A 7164   7.938   2.650   7.804 -0.1364  0.0003 -0.3002
  448loPI   C1B 7165   7.490   1.444   9.926  0.0312 -0.3621 -0.1121
  448loPI   C2B 7166   7.511   1.490   9.460  0.0739  0.0604 -0.1328
  448loPI   C3B 7167   7.501   1.463   9.063  0.5446 -0.2583  0.3376
  448loPI   C4B 7168   7.451   1.592   8.579 -0.2663 -0.3383  0.2752
  449loPI    C1 7169  11.050   0.251  11.370  0.1063 -0.2576  0.0644
  449loPI    C2 7170  11.335   0.504  11.492  0.0223 -0.0667 -0.1285
  449loPI    C3 7171  11.339   0.124  11.615  0.1794  0.0141  0.1228
  449loPI   PO4 7172  10.964   0.216  11.132 -0.1717  0.2132  0.2213
  449loPI   GL1 7173  10.845   0.294  10.859  0.5535  0.4756  0.2243
  449loPI   GL2 7174  10.598   0.173  10.722  0.0083 -0.1517  0.2261
  449loPI   C1A 7175  11.092   0.454  10.473  0.0065 -0.1258 -0.3036
  449loPI   C2A 7176  11.028   0.370  10.013 -0.1681 -0.1347 -0.1026
  449loPI   C3A 7177  11.063   0.381   9.700  0.3875  0.0033 -0.0303
  449loPI   C4A 7178  11.123   0.298   9.202 -0.1130 -0.2163 -0.1093
  449loPI   C5A 7179  11.018   0.468   8.879 -0.2439 -0.1826 -0.1909
  449loPI   C6A 7180  10.758   0.400   8.491 -0.2250 -0.0742  0.2319
  449loPI   C1B 7181  10.608   0.150  10.315 -0.0329  0.2842 -0.2092
  449loPI   C2B 7182  10.638   0.105   9.866  0.2880  0.0312  0.2102
  449loPI   C3B 7183  10.701   0.052   9.376 -0.2039  0.0082  0.0673
  449loPI   C4B 7184  10.612   0.096   8.902 -0.0584 -0.2210 -0.3496
  450loPI    C1 7185  12.947   0.569  11.576 -0.0279 -0.0864  0.0720
  450loPI    C2 7186  13.258   0.591  11.826  0.0140  0.4087 -0.0145
  450loPI    C3 7187  12.923   0.405  11.940  0.2633  0.0516  0.1563
  450loPI   PO4 7188  13.031   0.554  11.378 -0.1012 -0.1142 -0.2450
  450loPI   GL1 7189  12.944   0.358  10.980  0.1196 -0.3267 -0.0897
  450loPI   GL2 7190  12.742   0.212  10.912  0.2012  0.1052  0.2733
  450loPI   C1A 7191  12.947   0.399  10.505  0.1158 -0.1287 -0.1743
  450loPI   C2A 7192  12.991   0.380   9.978  0.1553  0.0093 -0.1091
  450loPI   C3A 7193  13.057   0.479   9.547  0.0511 -0.2509  0.0433
  450loPI   C4A 7194  12.953   0.366   9.130 -0.1817  0.0245  0.0293
  450loPI   C5A 7195  12.822   0.215   8.751  0.1147 -0.1628 -0.2069
  450loPI   C6A 7196  13.018  -0.111   8.454  0.0016 -0.0279 -0.0318
  450loPI   C1B 7197  12.492   0.104  10.446 -0.0547  0.2840  0.0544
  450loPI   C2B 7198  12.522   0.132  10.025 -0.0614 -0.3813 -0.1558
  450loPI   C3B 7199  12.623   0.127   9.589  0.0636 -0.2067 -0.0624
  450loPI   C4B 7200  12.538   0.137   9.196 -0.0321  0.2156 -0.2231
  451loPI    C1 7201  14.147   8.074  11.246  0.1629 -0.0846 -0.0539
  451loPI    C2 7202  14.526   8.139  11.353  0.0990 -0.0849  0.1768
  451loPI    C3 7203  14.263   8.003  11.622 -0.1137  0.1145  0.0727
  451loPI   PO4 7204  14.018   8.245  11.125 -0.2140  0.1300  0.2237
  451loPI   GL1 7205  13.698   8.356  10.811  0.1742 -0.0419 -0.0113
  451loPI   GL2 7206  13.410   8.452  10.631 -0.0598 -0.1149  0.1715
  451loPI   C1A 7207  13.760   8.214  10.439 -0.0253  0.2134 -0.3565
  451loPI   C2A 7208  13.820   8.170   9.967 -0.0849  0.2284  0.0671
  451loPI   C3A 7209  13.812   8.225   9.532  0.0575  0.1261  0.0508
  451loPI   C4A 7210  13.853   8.380   9.111 -0.2501  0.2514  0.0373
  451loPI   C5A 7211  13.950   8.427   8.660  0.0080 -0.3243  0.0952
  451loPI   C6A 7212  14.069   8.237   8.140 -0.1192  0.3949 -0.0413
  451loPI   C1B 7213  13.382   8.424  10.214  0.0420  0.2542  0.0008
  451loPI   C2B 7214  13.406   8.426   9.794 -0.0350  0.0247  0.1310
  451loPI   C3B 7215  13.312   8.506   9.353  0.2385 -0.0463 -0.2638
  451loPI   C4B 7216  13.426   8.681   8.968 -0.2158 -0.1921 -0.1059
  452loPI    C1 7217  17.033  14.972  11.726 -0.0225 -0.1139 -0.0828
  452loPI    C2 7218  16.965  15.195  12.051  0.4008 -0.0908 -0.0056
  452loPI    C3 7219  16.815  14.825  12.028  0.0129  0.0605  0.0290
  452loPI   PO4 7220  17.105  15.171  11.506  0.2044  0.0643  0.0573
  452loPI   GL1 7221  17.069  15.305  11.033 -0.0459  0.3387  0.3689
  452loPI   GL2 7222  17.278  15.422  10.867  0.1967  0.1941  0.0641
  452loPI   C1A 7223  16.800  15.382  10.607 -0.1518 -0.1507  0.3308
  452loPI   C2A 7224  16.846  15.426  10.140  0.1967  0.2413 -0.1354
  452loPI   C3A 7225  16.944  15.410   9.677  0.1301  0.1813 -0.1203
  452loPI   C4A 7226  16.974  15.469   9.252  0.1042 -0.0935  0.0210
  452loPI   C5A 7227  16.762  15.494   8.928 -0.1262  0.0669 -0.0899
  452loPI   C6A 7228  16.436  15.589   8.719  0.0794  0.0445  0.4679
  452loPI   C1B 7229  17.356  15.651  10.472  0.0704  0.2785  0.1158
  452loPI   C2B 7230  17.296  15.620   9.991  0.0056 -0.2509 -0.1443
  452loPI   C3B 7231  17.353  15.647   9.587  0.2117  0.0248 -0.4085
  452loPI   C4B 7232  17.373  15.750   9.158  0.0053 -0.1764  0.1838
  453loPI    C1 7233  17.721  12.660  11.619  0.1365 -0.0076 -0.0305
  453loPI    C2 7234  17.799  12.857  11.958 -0.1927 -0.2518  0.1918
  453loPI    C3 7235  17.926  12.480  11.911  0.0581 -0.1395 -0.0559
  453loPI   PO4 7236  17.906  12.837  11.387  0.0631 -0.0997 -0.0638
  453loPI   GL1 7237  17.849  12.856  10.950 -0.1046  0.2380  0.1192
  453loPI   GL2 7238  17.958  13.148  10.778  0.1922  0.0798  0.1270
  453loPI   C1A 7239  17.877  12.713  10.493 -0.0412 -0.0253 -0.0560
  453loPI   C2A 7240  17.748  12.895  10.081 -0.2946 -0.0956  0.0382
  453loPI   C3A 7241  17.847  12.825   9.719 -0.1758 -0.5274 -0.0294
  453loPI   C4A 7242  17.885  12.851   9.340 -0.2472  0.1479  0.1646
  453loPI   C5A 7243  17.916  12.929   8.850 -0.1862  0.3454  0.0971
  453loPI   C6A 7244  17.932  12.924   8.425 -0.0804 -0.0307 -0.0589
  453loPI   C1B 7245  17.751  13.256  10.431  0.0634 -0.0704 -0.0789
  453loPI   C2B 7246  17.818  13.403   9.987  0.0750  0.0492  0.2463
  453loPI   C3B 7247  17.799  13.337   9.575  0.0652 -0.0309  0.0852
  453loPI   C4B 7248  17.845  13.304   9.137 -0.0174 -0.0222 -0.1848
  454loPI    C1 7249  15.646  15.066  11.449  0.1817  0.2228 -0.1716
  454loPI    C2 7250  15.672  15.422  11.630 -0.1513  0.1240  0.0825
  454loPI    C3 7251  15.635  15.090  11.849  0.0115 -0.0556 -0.1572
  454loPI   PO4 7252  15.823  15.073  11.274 -0.2784 -0.3998  0.2631
  454loPI   GL1 7253  15.654  14.942  10.906 -0.1537 -0.0647 -0.4145
  454loPI   GL2 7254  15.498  14.695  10.763 -0.0218  0.0551 -0.0060
  454loPI   C1A 7255  15.546  15.199  10.511 -0.1320  0.0781 -0.1395
  454loPI   C2A 7256  15.593  15.109  10.046 -0.1181  0.0263 -0.0022
  454loPI   C3A 7257  15.620  15.059   9.575  0.3081  0.0499  0.0360
  454loPI   C4A 7258  15.569  15.070   9.102  0.1656 -0.2215 -0.3419
  454loPI   C5A 7259  15.465  15.098   8.638  0.1173  0.2511 -0.0401
  454loPI   C6A 7260  15.268  15.073   8.187 -0.0473 -0.0775  0.1902
  454loPI   C1B 7261  15.545  14.674  10.293 -0.3534  0.0313 -0.2389
  454loPI   C2B 7262  15.592  14.624   9.844  0.0062 -0.1777 -0.2328
  454loPI   C3B 7263  15.626  14.521   9.448 -0.0147 -0.0544  0.0632
  454loPI   C4B 7264  15.627  14.545   9.002 -0.0612  0.1337  0.0757
  455loPI    C1 7265  15.737   4.124  11.480  0.0486 -0.1131 -0.0383
  455loPI    C2 7266  15.771   3.795  11.705 -0.1351 -0.0033  0.1533
  455loPI    C3 7267  16.000   4.113  11.781  0.1460 -0.1342 -0.1235
  455loPI   PO4 7268  15.753   3.967  11.187 -0.2231  0.1065  0.1152
  455loPI   GL1 7269  15.730   3.908  10.740  0.4523  0.0190  0.1161
  455loPI   GL2 7270  15.697   3.639  10.538  0.3421 -0.1090 -0.2195
  455loPI   C1A 7271  15.595   4.183  10.413  0.0204 -0.1814 -0.1392
  455loPI   C2A 7272  15.574   4.081   9.988  0.0602  0.0752  0.0239
  455loPI   C3A 7273  15.636   4.113   9.600 -0.1213 -0.0034  0.0556
  455loPI   C4A 7274  15.631   4.259   9.169  0.0233 -0.1215 -0.1416
  455loPI   C5A 7275  15.729   4.432   8.824  0.1540 -0.3646 -0.0133
  455loPI   C6A 7276  15.966   4.756   8.600  0.0572 -0.1165  0.0813
  455loPI   C1B 7277  15.605   3.569  10.159 -0.0514 -0.2059 -0.2112
  455loPI   C2B 7278  15.577   3.630   9.739  0.0451 -0.0100  0.1173
  455loPI   C3B 7279  15.586   3.690   9.285  0.0686  0.1547 -0.1967
  455loPI   C4B 7280  15.733   3.435   9.025  0.1868  0.3532 -0.1975
  456loPI    C1 7281  11.115   8.409  11.285 -0.2552 -0.0146  0.1146
  456loPI    C2 7282  11.384   8.485  11.571  0.0197 -0.1701 -0.0971
  456loPI    C3 7283  11.014   8.367  11.669 -0.0661  0.3232  0.2052
  456loPI   PO4 7284  11.200   8.556  11.117  0.0271 -0.2106  0.1446
  456loPI   GL1 7285  11.404   8.533  10.761 -0.1824 -0.0942  0.1551
  456loPI   GL2 7286  11.116   8.805  10.637 -0.0904 -0.1812 -0.0494
  456loPI   C1A 7287  11.578   8.400  10.392  0.1274 -0.1402  0.1315
  456loPI   C2A 7288  11.585   8.440   9.983  0.0769  0.2920 -0.2935
  456loPI   C3A 7289  11.622   8.602   9.545  0.2190  0.0782 -0.1383
  456loPI   C4A 7290  11.536   8.608   9.085 -0.3677 -0.1465  0.1430
  456loPI   C5A 7291  11.482   8.931   8.667 -0.2297  0.1242  0.2832
  456loPI   C6A 7292  11.185   8.816   8.267  0.0239 -0.1190  0.0754
  456loPI   C1B 7293  11.217   8.702  10.204  0.0724 -0.2915  0.1457
  456loPI   C2B 7294  11.192   8.758   9.775 -0.0763  0.0977  0.1090
  456loPI   C3B 7295  11.168   8.860   9.378  0.1719 -0.3910 -0.1673
  456loPI   C4B 7296  11.104   8.781   8.970  0.2846  0.1826  0.0923
  457loPI    C1 7297   0.477   7.694  10.829 -0.0701 -0.0935 -0.0560
  457loPI    C2 7298   0.248   8.014  10.759  0.3028  0.1772 -0.0735
  457loPI    C3 7299   0.294   7.878  11.133 -0.1153 -0.0618 -0.1024
  457loPI   PO4 7300   0.579   7.647  10.609 -0.2117  0.1392  0.1230
  457loPI   GL1 7301   0.418   7.775  10.305 -0.1339  0.0394 -0.0272
  457loPI   GL2 7302   0.061   7.669  10.389 -0.1849  0.0427 -0.1817
  457loPI   C1A 7303   0.341   7.809   9.841 -0.2172 -0.0563 -0.0844
  457loPI   C2A 7304   0.351   7.872   9.376 -0.0873  0.1264 -0.2510
  457loPI   C3A 7305   0.403   7.836   8.920 -0.0991  0.2370 -0.2396
  457loPI   C4A 7306   0.431   7.729   8.429  0.0183  0.1345 -0.0439
  457loPI   C5A 7307   0.590   7.361   8.384  0.1331 -0.0987  0.0906
  457loPI   C6A 7308   0.890   7.087   8.211 -0.0841  0.1506  0.4381
  457loPI   C1B 7309  -0.138   7.596  10.088 -0.3379  0.0424 -0.1708
  457loPI   C2B 7310  -0.054   7.580   9.663  0.1292  0.0335 -0.0047
  457loPI   C3B 7311  -0.035   7.571   9.235 -0.0416 -0.2293  0.1402
  457loPI   C4B 7312   0.111   7.479   8.873  0.2549 -0.0543  0.1608
  458loPI    C1 7313  11.288  10.126  11.543 -0.4118  0.0158 -0.0716
  458loPI    C2 7314  11.161   9.788  11.715 -0.1798  0.0182  0.1086
  458loPI    C3 7315  11.426  10.022  11.903  0.1702 -0.0370 -0.2988
  458loPI   PO4 7316  11.303  10.115  11.267 -0.0982 -0.1367 -0.0215
  458loPI   GL1 7317  11.440   9.989  10.892  0.0356 -0.0196 -0.1899
  458loPI   GL2 7318  11.169  10.262  10.694 -0.3041 -0.0035  0.1245
  458loPI   C1A 7319  11.625  10.046  10.479  0.1157  0.0520 -0.4464
  458loPI   C2A 7320  11.557  10.063  10.038  0.0052 -0.2467  0.1739
  458loPI   C3A 7321  11.629  10.159   9.596  0.3591  0.1547  0.1240
  458loPI   C4A 7322  11.518  10.205   9.173  0.1091  0.0641 -0.0606
  458loPI   C5A 7323  11.364  10.457   8.845 -0.1171 -0.1019  0.2083
  458loPI   C6A 7324  11.441  10.825   8.826 -0.1518  0.3579  0.0947
  458loPI   C1B 7325  11.175  10.284  10.308  0.0826 -0.1370  0.1342
  458loPI   C2B 7326  11.063  10.298   9.908  0.3079  0.0539  0.0091
  458loPI   C3B 7327  11.152  10.399   9.564  0.1928 -0.1680 -0.1284
  458loPI   C4B 7328  10.998  10.448   9.205  0.0875  0.0495  0.0423
  459loPI    C1 7329  10.192  13.796  11.176 -0.0642  0.1763 -0.0550
  459loPI    C2 7330   9.853  13.609  11.276  0.0299  0.0855  0.0975
  459loPI    C3 7331  10.205  13.474  11.413  0.1374  0.1204 -0.1394
  459loPI   PO4 7332  10.160  13.837  10.939 -0.0802  0.2162 -0.1255
  459loPI   GL1 7333  10.209  13.688  10.562 -0.0833 -0.0128  0.1121
  459loPI   GL2 7334  10.477  13.885  10.576 -0.2097  0.1921  0.1299
  459loPI   C1A 7335  10.275  13.626  10.106  0.0720  0.0460 -0.1607
  459loPI   C2A 7336  10.245  13.600   9.619  0.2039 -0.0417  0.0713
  459loPI   C3A 7337  10.215  13.459   9.157 -0.1296 -0.3950 -0.1912
  459loPI   C4A 7338  10.332  13.459   8.759  0.1069 -0.0764  0.1976
  459loPI   C5A 7339  10.320  13.526   8.268  0.0641  0.1967  0.0050
  459loPI   C6A 7340  10.021  13.521   7.982 -0.1701  0.4697 -0.0291
  459loPI   C1B 7341  10.644  13.931  10.161 -0.2963 -0.1228  0.1100
  459loPI   C2B 7342  10.641  13.879   9.704 -0.0821  0.0683  0.3409
  459loPI   C3B 7343  10.689  13.751   9.258  0.0006  0.2362  0.0028
  459loPI   C4B 7344  10.786  13.638   8.859 -0.1415 -0.1084  0.3339
  460loPI    C1 7345  16.161  15.467  11.497  0.1872 -0.0703 -0.3047
  460loPI    C2 7346  16.170  15.847  11.371  0.2310  0.0392  0.0192
  460loPI    C3 7347  16.332  15.749  11.724  0.0623 -0.2496  0.0196
  460loPI   PO4 7348  16.253  15.378  11.197  0.0472 -0.0723 -0.2139
  460loPI   GL1 7349  16.346  15.283  10.812 -0.2167  0.1044  0.2737
  460loPI   GL2 7350  16.054  15.375  10.676 -0.4135  0.0845  0.0076
  460loPI   C1A 7351  16.390  15.114  10.380 -0.0309  0.0864  0.1098
  460loPI   C2A 7352  16.448  15.143   9.982 -0.0622 -0.1278  0.1879
  460loPI   C3A 7353  16.418  15.068   9.468 -0.2118 -0.0188  0.2375
  460loPI   C4A 7354  16.473  15.122   9.048  0.2632  0.3939 -0.2716
  460loPI   C5A 7355  16.373  15.082   8.585 -0.0917 -0.1265  0.2639
  460loPI   C6A 7356  16.240  14.730   8.332 -0.0773  0.0538  0.2378
  460loPI   C1B 7357  15.981  15.379  10.289  0.1548 -0.0012 -0.1493
  460loPI   C2B 7358  16.074  15.321   9.727  0.0738  0.1599  0.2892
  460loPI   C3B 7359  16.006  15.371   9.259  0.1804 -0.0396 -0.0267
  460loPI   C4B 7360  16.002  15.369   8.843 -0.0545  0.1315 -0.0341
  461loPI    C1 7361   2.633  10.001  11.483 -0.0839  0.1133  0.0541
  461loPI    C2 7362   2.985  10.125  11.338 -0.0646 -0.1205 -0.1042
  461loPI    C3 7363   2.922  10.120  11.733  0.1102 -0.0799 -0.0752
  461loPI   PO4 7364   2.581   9.926  11.261  0.1707 -0.3141 -0.0346
  461loPI   GL1 7365   2.629  10.231  10.974  0.1089 -0.0418  0.0940
  461loPI   GL2 7366   2.916  10.067  10.805 -0.1050  0.1943  0.2430
  461loPI   C1A 7367   2.507  10.218  10.513 -0.1515 -0.1398  0.1755
  461loPI   C2A 7368   2.619  10.220  10.079 -0.0376  0.0591  0.0537
  461loPI   C3A 7369   2.591  10.257   9.594 -0.2209  0.4361  0.1930
  461loPI   C4A 7370   2.612  10.227   9.163 -0.1325  0.2436 -0.1182
  461loPI   C5A 7371   2.645  10.365   8.788  0.1929  0.1384  0.1888
  461loPI   C6A 7372   2.542  10.068   8.416 -0.3186 -0.1743 -0.2922
  461loPI   C1B 7373   3.055  10.026  10.387 -0.3828 -0.1435 -0.0979
  461loPI   C2B 7374   3.013   9.983   9.921 -0.0257 -0.3949 -0.0746
  461loPI   C3B 7375   3.054  10.001   9.620  0.0620 -0.1172  0.1734
  461loPI   C4B 7376   2.998   9.983   9.244 -0.1558  0.1586  0.0038
  462loPI    C1 7377  14.308   4.849  11.415 -0.1742  0.0088  0.0788
  462loPI    C2 7378  14.215   4.623  11.731  0.2194 -0.1498  0.0856
  462loPI    C3 7379  14.504   4.898  11.760 -0.1717  0.2755  0.0413
  462loPI   PO4 7380  14.253   4.665  11.088  0.2924  0.2708 -0.1730
  462loPI   GL1 7381  14.304   4.677  10.593 -0.0143  0.2455 -0.1408
  462loPI   GL2 7382  14.294   4.394  10.515 -0.0394  0.0432 -0.0018
  462loPI   C1A 7383  14.249   4.813  10.096  0.3418 -0.0542  0.0950
  462loPI   C2A 7384  14.174   4.956   9.620 -0.2475  0.2070 -0.3742
  462loPI   C3A 7385  14.230   4.940   9.208 -0.0515 -0.2198 -0.2316
  462loPI   C4A 7386  14.254   4.970   8.769  0.1736  0.1130 -0.3589
  462loPI   C5A 7387  14.507   4.629   8.533 -0.3349 -0.1186  0.0784
  462loPI   C6A 7388  14.691   4.353   8.279 -0.4585 -0.6122  0.3142
  462loPI   C1B 7389  14.227   4.286  10.171 -0.2762  0.1757 -0.0902
  462loPI   C2B 7390  14.284   4.247   9.793 -0.2096  0.0714  0.2893
  462loPI   C3B 7391  14.297   4.383   9.376  0.3226  0.0521 -0.1765
  462loPI   C4B 7392  14.268   4.381   8.951  0.1371  0.2856 -0.2084
  463loPI    C1 7393   5.991  11.033  11.470 -0.1891  0.4030  0.0496
  463loPI    C2 7394   6.196  11.274  11.714  0.1348 -0.0951  0.2855
  463loPI    C3 7395   6.182  10.881  11.787 -0.2187 -0.1810 -0.2000
  463loPI   PO4 7396   5.935  11.169  11.173  0.0212 -0.2108  0.0286
  463loPI   GL1 7397   5.823  11.115  10.784  0.0691 -0.3478 -0.1586
  463loPI   GL2 7398   5.639  10.884  10.826  0.1121  0.0506  0.3152
  463loPI   C1A 7399   6.166  10.853  10.458 -0.3367 -0.0876 -0.1356
  463loPI   C2A 7400   6.278  10.667  10.034  0.0044  0.2038  0.0335
  463loPI   C3A 7401   6.154  10.849   9.568 -0.2914  0.3602 -0.0064
  463loPI   C4A 7402   6.132  10.860   9.205 -0.2069 -0.0620 -0.1356
  463loPI   C5A 7403   6.155  10.805   8.797  0.0435 -0.1340 -0.0285
  463loPI   C6A 7404   6.470  11.088   8.565  0.0863  0.4843 -0.2715
  463loPI   C1B 7405   5.728  11.056  10.331 -0.2643  0.0286  0.1269
  463loPI   C2B 7406   5.834  10.978   9.927  0.1923  0.1904  0.1251
  463loPI   C3B 7407   5.666  10.979   9.512  0.1477 -0.0748 -0.4741
  463loPI   C4B 7408   5.726  11.165   9.131 -0.2680  0.0072 -0.0061
  464loPI    C1 7409   2.159   9.051  11.526 -0.1538 -0.0436 -0.0443
  464loPI    C2 7410   1.961   8.966  11.862 -0.1782  0.2215  0.0106
  464loPI    C3 7411   2.360   8.989  11.866 -0.1615 -0.0305 -0.0374
  464loPI   PO4 7412   2.026   9.261  11.437 -0.1721  0.0386 -0.2780
  464loPI   GL1 7413   1.895   9.331  11.047 -0.1036 -0.2133  0.3277
  464loPI   GL2 7414   1.859   9.066  10.831  0.2776  0.0480  0.0622
  464loPI   C1A 7415   1.794   9.535  10.594 -0.1989 -0.2543  0.3435
  464loPI   C2A 7416   1.730   9.618  10.122 -0.0814  0.0494 -0.0274
  464loPI   C3A 7417   1.754   9.617   9.684 -0.0135 -0.0650 -0.2722
  464loPI   C4A 7418   1.758   9.623   9.230 -0.0281  0.0747  0.0739
  464loPI   C5A 7419   1.781   9.815   8.873 -0.2753 -0.1720  0.0014
  464loPI   C6A 7420   2.170   9.917   8.685 -0.0607  0.1539 -0.3065
  464loPI   C1B 7421   1.625   9.037  10.521 -0.2409  0.0912  0.2778
  464loPI   C2B 7422   1.750   9.057  10.111  0.0353  0.2386 -0.0645
  464loPI   C3B 7423   1.606   9.140   9.643 -0.0267 -0.1172 -0.2474
  464loPI   C4B 7424   1.724   9.146   9.199 -0.0161  0.0633  0.0213
  465loPI    C1 7425  14.976   9.426  11.035 -0.3223 -0.0018  0.0978
  465loPI    C2 7426  14.853   9.142  11.289 -0.1617 -0.0785  0.0913
  465loPI    C3 7427  15.216   9.304  11.331 -0.1580 -0.0480 -0.0526
  465loPI   PO4 7428  14.886   9.320  10.790 -0.0683 -0.0686  0.0268
  465loPI   GL1 7429  15.126   9.103  10.487 -0.2882  0.1115  0.1974
  465loPI   GL2 7430  15.421   9.075  10.339  0.2551 -0.2410 -0.0141
  465loPI   C1A 7431  15.046   9.086  10.035 -0.2508  0.1388  0.3067
  465loPI   C2A 7432  15.142   9.093   9.598 -0.0962 -0.2990  0.0728
  465loPI   C3A 7433  15.187   9.253   9.227 -0.3065  0.1218 -0.1289
  465loPI   C4A 7434  15.271   9.239   8.786  0.0296  0.1356  0.1154
  465loPI   C5A 7435  15.040   9.374   8.326 -0.1840 -0.1766  0.2988
  465loPI   C6A 7436  15.137   9.256   7.878  0.1408  0.2115  0.3508
  465loPI   C1B 7437  15.663   9.306  10.033  0.2330  0.0435  0.1844
  465loPI   C2B 7438  15.579   9.374   9.594 -0.0095 -0.2011  0.0295
  465loPI   C3B 7439  15.639   9.452   9.205  0.2137 -0.2765  0.0543
  465loPI   C4B 7440  15.675   9.486   8.836  0.0275 -0.0573  0.0080
  466loPI    C1 7441   3.817   8.227  11.452  0.1040  0.2354 -0.1071
  466loPI    C2 7442   3.922   8.602  11.540 -0.0348  0.2515 -0.0084
  466loPI    C3 7443   3.630   8.422  11.747  0.1961  0.0044  0.1079
  466loPI   PO4 7444   3.759   8.329  11.148 -0.3952  0.4283 -0.0101
  466loPI   GL1 7445   3.509   8.417  10.782  0.0659 -0.2111 -0.0685
  466loPI   GL2 7446   3.231   8.291  10.666  0.2473  0.0786  0.1070
  466loPI   C1A 7447   3.516   8.618  10.434  0.0242  0.4498  0.3097
  466loPI   C2A 7448   3.517   8.718  10.111 -0.0438 -0.1632 -0.0038
  466loPI   C3A 7449   3.536   8.694   9.683  0.0025  0.3176 -0.6982
  466loPI   C4A 7450   3.464   8.672   9.221 -0.0448  0.3181  0.2844
  466loPI   C5A 7451   3.665   8.743   8.804  0.2359 -0.0997 -0.1327
  466loPI   C6A 7452   3.872   8.719   8.420  0.1169  0.0294 -0.1635
  466loPI   C1B 7453   3.109   8.329  10.339 -0.1871  0.1809  0.1209
  466loPI   C2B 7454   3.092   8.392   9.966  0.0193  0.0898 -0.0696
  466loPI   C3B 7455   3.053   8.450   9.553 -0.2869 -0.1558  0.0678
  466loPI   C4B 7456   3.036   8.385   9.114 -0.0896 -0.0831 -0.2049
  467loPI    C1 7457   2.693   4.571  11.090 -0.0106  0.0243  0.0346
  467loPI    C2 7458   2.537   4.261  10.890 -0.0002  0.0392  0.0034
  467loPI    C3 7459   2.452   4.313  11.278 -0.0191  0.0093  0.0033
  467loPI   PO4 7460   2.943   4.559  10.900 -0.1265 -0.1873  0.0908
  467loPI   GL1 7461   3.043   4.726  10.463  0.0184  0.1998  0.0119
  467loPI   GL2 7462   3.361   4.741  10.375 -0.1518 -0.0059 -0.3278
  467loPI   C1A 7463   2.981   4.684  10.028  0.2642  0.0344  0.2544
  467loPI   C2A 7464   2.782   4.918   9.656 -0.0145  0.0641 -0.0842
  467loPI   C3A 7465   2.849   4.931   9.172  0.1966  0.1292 -0.2440
  467loPI   C4A 7466   3.146   4.820   8.868  0.0671 -0.0350 -0.0925
  467loPI   C5A 7467   3.440   5.129   8.510 -0.1425  0.1387  0.1464
  467loPI   C6A 7468   3.794   5.458   8.387 -0.1522  0.2230  0.0672
  467loPI   C1B 7469   3.529   4.797   9.906  0.0430  0.0717 -0.2220
  467loPI   C2B 7470   3.762   4.772   9.464 -0.2082 -0.3850  0.1776
  467loPI   C3B 7471   3.938   4.512   9.108 -0.2183  0.1778 -0.1718
  467loPI   C4B 7472   3.769   4.247   8.749  0.0167 -0.1654  0.1651
  468loPI    C1 7473   8.938  11.666  11.328  0.2819  0.0381  0.0147
  468loPI    C2 7474   8.775  11.381  11.557  0.1439 -0.1009 -0.2528
  468loPI    C3 7475   8.870  11.735  11.716  0.1016 -0.2146  0.0303
  468loPI   PO4 7476   9.137  11.454  11.170 -0.0688 -0.1256 -0.1678
  468loPI   GL1 7477   9.160  11.370  10.784  0.0881 -0.2651 -0.0374
  468loPI   GL2 7478   9.394  11.493  10.662 -0.0118 -0.1174 -0.0263
  468loPI   C1A 7479   8.925  11.155  10.559 -0.3599 -0.1410 -0.0210
  468loPI   C2A 7480   8.864  11.090  10.080 -0.2333  0.0689 -0.1157
  468loPI   C3A 7481   8.915  11.185   9.739  0.0817 -0.1451  0.1425
  468loPI   C4A 7482   8.816  11.264   9.351 -0.1028 -0.2066  0.0693
  468loPI   C5A 7483   8.600  11.433   8.982  0.1312  0.2434 -0.0452
  468loPI   C6A 7484   8.180  11.599   9.032 -0.1559 -0.1125  0.3334
  468loPI   C1B 7485   9.432  11.380  10.248  0.2112 -0.0419 -0.0449
  468loPI   C2B 7486   9.394  11.494   9.786  0.2291 -0.0736 -0.0078
  468loPI   C3B 7487   9.369  11.405   9.389 -0.2330  0.1319 -0.0802
  468loPI   C4B 7488   9.246  11.491   9.026  0.0091 -0.0016  0.0761
  469loPI    C1 7489   2.702  13.812  11.717  0.0836 -0.1452 -0.0001
  469loPI    C2 7490   2.412  14.087  11.715  0.1145 -0.1125 -0.1984
  469loPI    C3 7491   2.402  13.788  11.980  0.0169  0.0111 -0.0610
  469loPI   PO4 7492   2.693  13.743  11.483  0.0327 -0.0344 -0.0805
  469loPI   GL1 7493   2.791  13.656  11.013 -0.2507  0.0343 -0.0245
  469loPI   GL2 7494   2.435  13.765  10.866  0.3390  0.0551  0.1473
  469loPI   C1A 7495   2.940  13.673  10.657 -0.4936  0.2457 -0.5014
  469loPI   C2A 7496   3.025  13.606  10.344  0.0644  0.2256  0.1251
  469loPI   C3A 7497   3.009  13.623   9.876  0.1914 -0.2979 -0.1529
  469loPI   C4A 7498   3.056  13.563   9.388 -0.1111  0.1236  0.1393
  469loPI   C5A 7499   3.050  13.428   9.010  0.2682 -0.4151  0.4190
  469loPI   C6A 7500   2.674  13.253   8.852 -0.0845  0.0650  0.3093
  469loPI   C1B 7501   2.533  13.862  10.411 -0.1840 -0.0226 -0.0267
  469loPI   C2B 7502   2.582  13.890   9.997 -0.5496 -0.1359  0.1177
  469loPI   C3B 7503   2.734  13.880   9.598  0.0163  0.0845 -0.2687
  469loPI   C4B 7504   2.692  13.924   9.254  0.0674  0.0905  0.0797
  470loPI    C1 7505   6.240   1.253  11.059  0.0877 -0.0184  0.2529
  470loPI    C2 7506   6.137   1.040  11.382 -0.1127  0.0533  0.2377
  470loPI    C3 7507   6.194   1.435  11.412 -0.0597  0.0487  0.1996
  470loPI   PO4 7508   6.161   1.114  10.873 -0.3508  0.1933  0.0278
  470loPI   GL1 7509   6.215   0.830  10.457  0.0821 -0.0786  0.3863
  470loPI   GL2 7510   6.438   0.917  10.499  0.0239 -0.2242 -0.0900
  470loPI   C1A 7511   6.193   0.705   9.931 -0.1681 -0.2367 -0.0019
  470loPI   C2A 7512   6.251   0.686   9.509 -0.1134  0.1907 -0.0150
  470loPI   C3A 7513   6.187   0.671   9.006  0.0564 -0.0050  0.3722
  470loPI   C4A 7514   6.291   0.668   8.575 -0.0901 -0.2331  0.1172
  470loPI   C5A 7515   6.766   0.839   8.382 -0.2353 -0.3667 -0.0701
  470loPI   C6A 7516   6.703   1.118   8.044 -0.3024  0.2513 -0.1184
  470loPI   C1B 7517   6.660   0.884  10.138 -0.2945 -0.0782  0.0621
  470loPI   C2B 7518   6.622   0.984   9.697 -0.2081  0.3386  0.1903
  470loPI   C3B 7519   6.614   0.952   9.221 -0.2329  0.2432 -0.1124
  470loPI   C4B 7520   6.680   1.035   8.820  0.0684 -0.3216 -0.1670
  471loPI    C1 7521  11.645  17.180  11.276 -0.2376 -0.0239 -0.2729
  471loPI    C2 7522  11.448  17.513  11.377  0.1810  0.1093  0.1406
  471loPI    C3 7523  11.528  17.237  11.655 -0.1192 -0.3225 -0.1886
  471loPI   PO4 7524  11.577  17.080  11.122  0.0779  0.0362 -0.0237
  471loPI   GL1 7525  11.855  16.835  10.804 -0.3866  0.0314 -0.0829
  471loPI   GL2 7526  11.556  17.019  10.637 -0.0627 -0.2486  0.1111
  471loPI   C1A 7527  11.927  16.810  10.397 -0.2396  0.0527  0.0149
  471loPI   C2A 7528  11.940  16.697   9.979 -0.1173  0.2087 -0.0133
  471loPI   C3A 7529  11.990  16.718   9.557 -0.1140 -0.1822 -0.1055
  471loPI   C4A 7530  12.117  16.735   9.143  0.1433 -0.2642 -0.0843
  471loPI   C5A 7531  12.022  16.716   8.784  0.1252  0.1222  0.1048
  471loPI   C6A 7532  11.769  16.832   8.402 -0.1612  0.0671  0.2244
  471loPI   C1B 7533  11.541  17.036  10.172 -0.0263  0.0579  0.3676
  471loPI   C2B 7534  11.548  16.987   9.763 -0.3238 -0.0579  0.0218
  471loPI   C3B 7535  11.591  16.985   9.327 -0.1666 -0.0794  0.0559
  471loPI   C4B 7536  11.625  16.929   8.951 -0.0145  0.0549  0.0185
  472loPI    C1 7537   2.204   6.729  11.361  0.0841 -0.1590  0.1005
  472loPI    C2 7538   1.851   6.579  11.476 -0.0217 -0.0328 -0.0559
  472loPI    C3 7539   1.990   6.914  11.645 -0.0164 -0.0361 -0.0535
  472loPI   PO4 7540   2.254   6.845  11.066 -0.0599 -0.0550  0.2302
  472loPI   GL1 7541   2.174   6.772  10.528 -0.1042  0.1697 -0.1320
  472loPI   GL2 7542   2.479   6.588  10.676 -0.2715 -0.1399  0.0208
  472loPI   C1A 7543   2.223   6.835  10.063 -0.1282 -0.1713  0.1134
  472loPI   C2A 7544   2.264   6.747   9.657 -0.0617 -0.1352 -0.0724
  472loPI   C3A 7545   2.229   6.696   9.247 -0.1115 -0.1026  0.0662
  472loPI   C4A 7546   2.149   6.597   8.776  0.1963  0.0917  0.0291
  472loPI   C5A 7547   2.056   6.224   8.622 -0.4126  0.1469  0.0589
  472loPI   C6A 7548   2.221   5.812   8.482  0.0386  0.2706  0.1086
  472loPI   C1B 7549   2.417   6.395  10.216 -0.1097  0.0944  0.1091
  472loPI   C2B 7550   2.396   6.291   9.797  0.3261 -0.0643 -0.1761
  472loPI   C3B 7551   2.236   6.236   9.362 -0.0894  0.2265  0.2794
  472loPI   C4B 7552   2.360   6.001   8.983 -0.0243  0.1174  0.2596
  473loPI    C1 7553  16.833  13.897  11.507 -0.1500 -0.1256 -0.0355
  473loPI    C2 7554  16.614  13.619  11.320 -0.1583 -0.0796 -0.0943
  473loPI    C3 7555  16.742  13.554  11.693 -0.1426 -0.1711 -0.1152
  473loPI   PO4 7556  17.021  13.978  11.275  0.1853  0.2759  0.1111
  473loPI   GL1 7557  16.995  14.324  10.996 -0.1196  0.1802  0.1574
  473loPI   GL2 7558  16.855  14.329  10.755 -0.0390 -0.0710 -0.2085
  473loPI   C1A 7559  17.336  14.530  10.662  0.2288  0.0614  0.0957
  473loPI   C2A 7560  17.292  14.683  10.247 -0.0831  0.2480 -0.3377
  473loPI   C3A 7561  17.318  14.631   9.730  0.1826 -0.0443  0.3287
  473loPI   C4A 7562  17.347  14.702   9.312 -0.0204 -0.1699  0.1166
  473loPI   C5A 7563  17.371  14.714   8.795  0.1760  0.0295 -0.1499
  473loPI   C6A 7564  17.269  14.694   8.434  0.0018  0.0836  0.0311
  473loPI   C1B 7565  16.850  14.323  10.316 -0.2175 -0.4534 -0.0323
  473loPI   C2B 7566  16.826  14.424   9.941 -0.2860 -0.1046  0.2869
  473loPI   C3B 7567  16.953  14.361   9.524  0.1985  0.0125 -0.1954
  473loPI   C4B 7568  17.023  14.389   9.054 -0.0386 -0.0575  0.2795
  474loPI    C1 7569   3.285   7.314  11.304 -0.3347 -0.1476  0.0317
  474loPI    C2 7570   3.281   7.464  11.675 -0.0560 -0.1921  0.0545
  474loPI    C3 7571   3.622   7.327  11.518 -0.1547 -0.0962 -0.2507
  474loPI   PO4 7572   3.158   7.425  11.129  0.1602 -0.0180  0.1985
  474loPI   GL1 7573   2.984   7.359  10.703  0.3562  0.2035 -0.0797
  474loPI   GL2 7574   3.033   7.034  10.594 -0.0584 -0.0251  0.2417
  474loPI   C1A 7575   3.103   7.382  10.226  0.4615  0.0226 -0.0660
  474loPI   C2A 7576   3.080   7.400   9.841 -0.1804 -0.3578  0.0863
  474loPI   C3A 7577   3.132   7.338   9.415  0.0607  0.0707  0.1054
  474loPI   C4A 7578   3.188   7.190   8.953 -0.3654 -0.0325  0.1031
  474loPI   C5A 7579   3.086   7.400   8.583 -0.0532  0.0023 -0.1174
  474loPI   C6A 7580   3.242   7.434   8.167  0.0108  0.1897 -0.0660
  474loPI   C1B 7581   3.211   6.885  10.201 -0.0639 -0.0845 -0.0756
  474loPI   C2B 7582   3.173   6.878   9.691 -0.0862 -0.0828  0.1490
  474loPI   C3B 7583   3.088   6.822   9.241  0.2520 -0.0492 -0.1458
  474loPI   C4B 7584   3.033   6.692   8.847 -0.1225 -0.1667  0.0377
  475loPI    C1 7585   0.770   4.423  11.396 -0.0044  0.0232 -0.1822
  475loPI    C2 7586   1.026   4.723  11.464  0.1855 -0.1815  0.0217
  475loPI    C3 7587   0.689   4.696  11.677  0.1419 -0.0840 -0.0344
  475loPI   PO4 7588   0.836   4.298  11.165  0.0776  0.0681 -0.2097
  475loPI   GL1 7589   0.963   4.182  10.759 -0.0223  0.2114  0.2580
  475loPI   GL2 7590   0.871   3.968  10.623  0.0621  0.1237  0.1551
  475loPI   C1A 7591   1.234   4.139  10.396 -0.1167  0.0314  0.0085
  475loPI   C2A 7592   1.347   4.086   9.964 -0.1163 -0.2406  0.1730
  475loPI   C3A 7593   1.456   4.137   9.585  0.1922  0.1774 -0.1264
  475loPI   C4A 7594   1.525   3.980   9.263 -0.1588  0.1234 -0.1006
  475loPI   C5A 7595   1.464   3.948   8.893 -0.1159 -0.2481 -0.1776
  475loPI   C6A 7596   1.820   4.137   8.663 -0.1548 -0.3308  0.1008
  475loPI   C1B 7597   0.952   3.861  10.122 -0.4131  0.2098  0.1138
  475loPI   C2B 7598   0.975   3.865   9.628 -0.0876  0.2045  0.0175
  475loPI   C3B 7599   0.972   3.835   9.228 -0.2088  0.2181  0.0728
  475loPI   C4B 7600   1.028   3.707   8.842  0.2782 -0.1312 -0.3828
  476loPI    C1 7601  10.649  11.139  11.139 -0.0483 -0.2956  0.0801
  476loPI    C2 7602  10.460  11.062  11.484  0.0073 -0.3084  0.1078
  476loPI    C3 7603  10.532  10.766  11.225 -0.2577 -0.2563 -0.0280
  476loPI   PO4 7604  10.544  11.391  11.025  0.1917  0.0915  0.0987
  476loPI   GL1 7605  10.344  11.438  10.597  0.0956  0.0628 -0.1565
  476loPI   GL2 7606  10.591  11.278  10.501 -0.0610  0.0529  0.0176
  476loPI   C1A 7607  10.372  11.443  10.061  0.1313  0.3318 -0.2018
  476loPI   C2A 7608  10.174  11.458   9.730  0.4307 -0.0788  0.1203
  476loPI   C3A 7609  10.117  11.515   9.314  0.0594  0.2254  0.1431
  476loPI   C4A 7610  10.092  11.301   8.819  0.2531  0.1872  0.0720
  476loPI   C5A 7611  10.516  11.164   8.588  0.0285 -0.0681  0.0202
  476loPI   C6A 7612  10.871  11.070   8.230  0.0888 -0.2854 -0.0311
  476loPI   C1B 7613  10.780  11.076  10.244 -0.1053  0.0235 -0.2919
  476loPI   C2B 7614  10.742  11.055   9.795 -0.1872 -0.0878 -0.0260
  476loPI   C3B 7615  10.708  11.119   9.448  0.0222  0.2668  0.0537
  476loPI   C4B 7616  10.554  11.199   9.077  0.0461  0.0106  0.0708
  477loPI    C1 7617  13.473  13.505  11.231  0.0659 -0.1343  0.0396
  477loPI    C2 7618  13.108  13.644  11.146 -0.0434 -0.4605 -0.0422
  477loPI    C3 7619  13.239  13.645  11.524  0.0455  0.0564 -0.0669
  477loPI   PO4 7620  13.534  13.425  10.993  0.0117 -0.1040  0.0956
  477loPI   GL1 7621  13.424  13.744  10.765 -0.1948 -0.1901  0.0006
  477loPI   GL2 7622  13.708  13.550  10.534  0.0402  0.1097  0.0305
  477loPI   C1A 7623  13.336  13.817  10.300 -0.0196  0.0528 -0.1976
  477loPI   C2A 7624  13.343  13.775   9.873 -0.0488  0.2423  0.0402
  477loPI   C3A 7625  13.365  13.829   9.391 -0.1479 -0.4758 -0.0475
  477loPI   C4A 7626  13.648  14.006   8.956 -0.2247  0.1262 -0.0165
  477loPI   C5A 7627  13.777  14.106   8.537  0.0061 -0.1289 -0.1545
  477loPI   C6A 7628  13.893  14.322   8.154  0.0499  0.0337 -0.0456
  477loPI   C1B 7629  13.660  13.503  10.094 -0.0943 -0.0320 -0.0711
  477loPI   C2B 7630  13.905  13.581   9.622  0.0601 -0.0155  0.0337
  477loPI   C3B 7631  13.855  13.603   9.172 -0.1556 -0.2205 -0.3036
  477loPI   C4B 7632  13.569  13.524   8.728  0.2693  0.1159 -0.0431
  478loPI    C1 7633  17.860  11.868  11.449 -0.0638  0.2978  0.4011
  478loPI    C2 7634  18.008  12.233  11.520  0.4395  0.1711  0.0591
  478loPI    C3 7635  18.086  11.933  11.773 -0.0449  0.3082  0.3858
  478loPI   PO4 7636  17.939  11.864  11.217 -0.2320  0.1930 -0.0139
  478loPI   GL1 7637  17.852  11.897  10.771  0.1705 -0.2061 -0.1831
  478loPI   GL2 7638  18.007  11.606  10.619  0.0943  0.2519  0.1140
  478loPI   C1A 7639  17.806  12.183  10.384 -0.1856 -0.0686  0.1868
  478loPI   C2A 7640  17.791  12.298  10.041  0.2127 -0.2804  0.0537
  478loPI   C3A 7641  17.760  12.255   9.614  0.1246 -0.0676  0.1655
  478loPI   C4A 7642  17.770  12.359   9.115  0.0591  0.0759  0.1718
  478loPI   C5A 7643  17.828  12.452   8.744  0.3787  0.0699 -0.2076
  478loPI   C6A 7644  17.598  12.518   8.443 -0.0381 -0.0614 -0.3471
  478loPI   C1B 7645  17.920  11.735  10.254 -0.1396 -0.1912  0.0401
  478loPI   C2B 7646  17.841  11.819   9.823 -0.0846  0.0228 -0.0046
  478loPI   C3B 7647  17.865  11.793   9.383  0.1098  0.1833 -0.0306
  478loPI   C4B 7648  17.894  11.894   8.949  0.1094 -0.0799  0.0438
  479loPI    C1 7649   5.155   8.057  11.356  0.1590  0.0972 -0.2331
  479loPI    C2 7650   4.968   7.778  11.574  0.3626  0.0995 -0.0523
  479loPI    C3 7651   5.272   7.985  11.731  0.3298  0.2993 -0.2457
  479loPI   PO4 7652   5.119   7.950  11.062 -0.1975 -0.1017  0.0977
  479loPI   GL1 7653   5.180   8.047  10.718 -0.2960 -0.0231  0.1994
  479loPI   GL2 7654   4.902   7.905  10.563  0.1158 -0.3154 -0.2158
  479loPI   C1A 7655   5.255   8.213  10.299  0.0752 -0.2068  0.0450
  479loPI   C2A 7656   5.299   8.221   9.914 -0.0717  0.0203 -0.1129
  479loPI   C3A 7657   5.272   8.193   9.498  0.0334  0.2765  0.1254
  479loPI   C4A 7658   5.384   8.130   9.087 -0.2343 -0.1535 -0.3347
  479loPI   C5A 7659   5.495   8.153   8.625 -0.1159  0.0583 -0.1658
  479loPI   C6A 7660   5.908   8.050   8.453  0.3187  0.0632 -0.3224
  479loPI   C1B 7661   4.794   7.926  10.131 -0.1924 -0.0600 -0.0969
  479loPI   C2B 7662   4.777   7.951   9.631  0.2481 -0.1245 -0.1435
  479loPI   C3B 7663   4.823   7.963   9.148  0.0689 -0.1606  0.1704
  479loPI   C4B 7664   4.785   7.948   8.763 -0.0333 -0.3571  0.1933
  480loPI    C1 7665   2.133  11.534  11.523  0.1346  0.0054  0.1602
  480loPI    C2 7666   2.313  11.890  11.531 -0.1212  0.1396  0.0712
  480loPI    C3 7667   2.216  11.708  11.873  0.1617  0.0747  0.1194
  480loPI   PO4 7668   2.085  11.501  11.294 -0.0680 -0.0100  0.0266
  480loPI   GL1 7669   2.102  11.781  10.982  0.2013  0.1799  0.2469
  480loPI   GL2 7670   2.116  11.566  10.802 -0.1410 -0.1241 -0.1156
  480loPI   C1A 7671   2.116  12.041  10.590  0.0245 -0.0867 -0.1928
  480loPI   C2A 7672   2.181  12.065  10.225  0.1536  0.0790  0.0471
  480loPI   C3A 7673   2.193  12.062   9.765  0.0879  0.0604 -0.1710
  480loPI   C4A 7674   2.152  12.038   9.310  0.1056 -0.0482 -0.0031
  480loPI   C5A 7675   2.079  11.923   8.914 -0.0473  0.1445 -0.1441
  480loPI   C6A 7676   2.201  11.619   8.624  0.3558 -0.1643 -0.2119
  480loPI   C1B 7677   2.148  11.480  10.445  0.0670 -0.0619 -0.2137
  480loPI   C2B 7678   2.183  11.537  10.007 -0.0111 -0.0824 -0.2110
  480loPI   C3B 7679   2.221  11.612   9.599 -0.1359 -0.0464  0.1212
  480loPI   C4B 7680   2.058  11.488   9.106 -0.0020  0.0289 -0.0106
  481loPI    C1 7681   4.867   0.945  11.794 -0.0001 -0.1128 -0.0820
  481loPI    C2 7682   4.958   0.617  12.005 -0.1276 -0.1827 -0.1350
  481loPI    C3 7683   4.655   0.852  12.121  0.0610  0.0015 -0.0090
  481loPI   PO4 7684   4.808   0.932  11.599 -0.0417  0.2923  0.2245
  481loPI   GL1 7685   4.763   0.835  11.115  0.0917  0.3977 -0.0852
  481loPI   GL2 7686   4.915   0.998  10.963  0.0738 -0.0856 -0.0394
  481loPI   C1A 7687   4.492   0.773  10.715 -0.0159 -0.1416 -0.0654
  481loPI   C2A 7688   4.460   0.649  10.373  0.1294  0.2863  0.2461
  481loPI   C3A 7689   4.473   0.619   9.904 -0.1706  0.1178  0.0174
  481loPI   C4A 7690   4.480   0.760   9.468  0.0571  0.3171 -0.1138
  481loPI   C5A 7691   4.389   0.727   9.017  0.2214 -0.0508  0.3528
  481loPI   C6A 7692   4.212   0.715   8.504 -0.1268 -0.2210 -0.1560
  481loPI   C1B 7693   4.908   0.954  10.517  0.1853 -0.0607  0.1381
  481loPI   C2B 7694   4.847   0.889  10.042  0.1022 -0.0724 -0.1678
  481loPI   C3B 7695   4.893   0.969   9.633  0.2511 -0.1810  0.0152
  481loPI   C4B 7696   4.940   0.904   9.224  0.2599 -0.2354 -0.1050
  482loPI    C1 7697   0.461  12.572  11.386  0.3218  0.0557  0.0231
  482loPI    C2 7698   0.764  12.758  11.570  0.0360  0.1830  0.3773
  482loPI    C3 7699   0.393  12.785  11.718 -0.0922 -0.2698  0.1563
  482loPI   PO4 7700   0.422  12.649  11.167  0.0076 -0.1827 -0.0722
  482loPI   GL1 7701   0.418  12.894  10.812 -0.1377 -0.1459 -0.0117
  482loPI   GL2 7702   0.578  13.225  10.765  0.0084  0.0299  0.0620
  482loPI   C1A 7703   0.317  13.058  10.400  0.2562 -0.1270  0.1740
  482loPI   C2A 7704   0.345  13.200  10.030 -0.2186  0.0194  0.1006
  482loPI   C3A 7705   0.370  13.092   9.597 -0.0896 -0.0305 -0.1594
  482loPI   C4A 7706   0.413  13.127   9.118 -0.0594  0.1640  0.3606
  482loPI   C5A 7707   0.548  12.900   8.723  0.2032  0.4541 -0.1456
  482loPI   C6A 7708   0.479  12.974   8.275  0.1186  0.0447  0.2625
  482loPI   C1B 7709   0.747  13.293  10.351 -0.0477  0.3061 -0.0110
  482loPI   C2B 7710   0.940  13.313  10.046 -0.0299  0.2470 -0.1003
  482loPI   C3B 7711   0.807  13.402   9.697 -0.0621 -0.0116  0.1117
  482loPI   C4B 7712   0.751  13.347   9.398 -0.1483 -0.1673  0.0723
  483loPI    C1 7713   2.003  15.615  11.504  0.1024  0.3375 -0.0287
  483loPI    C2 7714   2.384  15.735  11.480  0.2348 -0.0455  0.0848
  483loPI    C3 7715   2.271  15.485  11.771 -0.0933  0.0219  0.0193
  483loPI   PO4 7716   1.953  15.331  11.345 -0.1350 -0.0858 -0.0242
  483loPI   GL1 7717   1.880  15.432  10.945 -0.0194  0.3083  0.2092
  483loPI   GL2 7718   2.117  15.260  10.721  0.0769  0.1379 -0.0761
  483loPI   C1A 7719   1.685  15.377  10.521  0.1795 -0.0912  0.1335
  483loPI   C2A 7720   1.635  15.438  10.106  0.1609 -0.0980  0.3759
  483loPI   C3A 7721   1.672  15.424   9.703  0.2613 -0.4016  0.0361
  483loPI   C4A 7722   1.751  15.397   9.311  0.3287 -0.1953 -0.2541
  483loPI   C5A 7723   1.686  15.317   8.932 -0.1930 -0.2495  0.0151
  483loPI   C6A 7724   1.579  15.044   8.667  0.3747  0.1187 -0.0462
  483loPI   C1B 7725   2.167  15.175  10.360 -0.2977  0.2102  0.2147
  483loPI   C2B 7726   2.122  15.230   9.919  0.4971 -0.1267  0.2238
  483loPI   C3B 7727   2.157  15.176   9.456  0.0831 -0.0078  0.0973
  483loPI   C4B 7728   2.157  15.255   9.068 -0.4682  0.0982 -0.0200
  484loPI    C1 7729  10.777  12.330  11.021  0.1069 -0.0065 -0.1216
  484loPI    C2 7730  10.666  12.458  11.383 -0.3217 -0.2117 -0.1727
  484loPI    C3 7731  10.866  12.702  11.136 -0.0058 -0.0774  0.2048
  484loPI   PO4 7732  10.582  12.221  10.931 -0.4106 -0.4118  0.0027
  484loPI   GL1 7733  10.478  11.943  10.691 -0.0376  0.2655  0.0472
  484loPI   GL2 7734  10.789  11.672  10.612 -0.4128 -0.2502 -0.1365
  484loPI   C1A 7735  10.280  11.894  10.379  0.1885 -0.1612  0.2148
  484loPI   C2A 7736  10.211  11.982   9.952  0.1137  0.2212 -0.2713
  484loPI   C3A 7737  10.247  12.066   9.594 -0.0446 -0.4185 -0.1764
  484loPI   C4A 7738  10.228  11.974   9.223 -0.1653 -0.1789  0.5187
  484loPI   C5A 7739  10.122  11.871   8.861  0.1423  0.1190  0.1404
  484loPI   C6A 7740  10.271  11.820   8.421 -0.0117  0.0030 -0.3769
  484loPI   C1B 7741  10.788  11.675  10.152  0.1451  0.2596  0.1487
  484loPI   C2B 7742  10.644  11.737   9.755  0.3386  0.1325  0.1633
  484loPI   C3B 7743  10.697  11.753   9.373  0.1446  0.2371 -0.3194
  484loPI   C4B 7744  10.632  11.762   8.907 -0.0343 -0.1128 -0.0574
  485loPI    C1 7745   2.964   3.036  11.326  0.0988  0.0344  0.0466
  485loPI    C2 7746   2.700   2.738  11.356  0.0781  0.0370 -0.1039
  485loPI    C3 7747   3.017   2.749  11.599 -0.1195  0.0960  0.1566
  485loPI   PO4 7748   2.913   3.132  11.089 -0.3352 -0.0944  0.1556
  485loPI   GL1 7749   2.786   2.808  10.850 -0.0095 -0.3069 -0.0440
  485loPI   GL2 7750   3.048   2.605  10.702 -0.0002 -0.1847 -0.1512
  485loPI   C1A 7751   2.674   2.896  10.478  0.0240  0.1662  0.1199
  485loPI   C2A 7752   2.779   2.772  10.012 -0.0431  0.0872  0.0765
  485loPI   C3A 7753   2.708   2.859   9.594  0.2850  0.0032  0.1462
  485loPI   C4A 7754   2.618   2.703   9.162 -0.0928  0.1733 -0.0319
  485loPI   C5A 7755   2.735   2.784   8.770  0.2067 -0.2388  0.0064
  485loPI   C6A 7756   2.945   2.824   8.367  0.1696  0.2545  0.2713
  485loPI   C1B 7757   3.128   2.661  10.327 -0.2230  0.2062  0.0172
  485loPI   C2B 7758   3.219   2.519   9.902 -0.1126 -0.1401 -0.0472
  485loPI   C3B 7759   3.287   2.510   9.482  0.2682  0.0433 -0.1624
  485loPI   C4B 7760   3.100   2.499   9.134  0.1392  0.1387  0.1732
  486loPI    C1 7761  15.265   4.030  11.270 -0.0399 -0.1876 -0.0836
  486loPI    C2 7762  15.379   3.666  11.392 -0.0468 -0.1826 -0.0621
  486loPI    C3 7763  15.296   3.950  11.661  0.1254 -0.1135 -0.0807
  486loPI   PO4 7764  15.290   4.123  11.017  0.1199  0.0848 -0.0286
  486loPI   GL1 7765  15.163   4.076  10.663  0.1319  0.0509  0.0768
  486loPI   GL2 7766  15.220   3.831  10.429 -0.0562 -0.0661  0.2750
  486loPI   C1A 7767  15.164   4.343  10.183 -0.1798  0.0938 -0.1923
  486loPI   C2A 7768  15.133   4.400   9.773  0.1139 -0.0719 -0.2039
  486loPI   C3A 7769  15.176   4.475   9.287  0.1517 -0.0751  0.1408
  486loPI   C4A 7770  15.251   4.448   8.854  0.0580  0.1731  0.0842
  486loPI   C5A 7771  15.170   4.291   8.474 -0.0080  0.2318 -0.1746
  486loPI   C6A 7772  15.101   4.154   8.064  0.2195  0.5260 -0.2546
  486loPI   C1B 7773  15.127   3.747   9.969  0.0185 -0.2208 -0.1496
  486loPI   C2B 7774  15.164   3.883   9.579 -0.5389 -0.2836  0.0644
  486loPI   C3B 7775  15.183   3.980   9.136 -0.0259 -0.1786  0.2119
  486loPI   C4B 7776  15.472   3.917   8.780  0.0185 -0.2434  0.0215
  487loPI    C1 7777   0.124   4.641  11.518  0.3139  0.0656 -0.1658
  487loPI    C2 7778   0.231   4.368  11.790 -0.0645  0.0463 -0.0297
  487loPI    C3 7779   0.224   4.756  11.887  0.2122  0.0821 -0.1430
  487loPI   PO4 7780   0.333   4.649  11.226 -0.2750  0.2536 -0.0792
  487loPI   GL1 7781   0.305   4.651  10.692  0.0857 -0.0064  0.0921
  487loPI   GL2 7782   0.661   4.527  10.590  0.1041 -0.0524 -0.0149
  487loPI   C1A 7783   0.390   4.639  10.219 -0.0688 -0.1137  0.0109
  487loPI   C2A 7784   0.416   4.625   9.763  0.0704 -0.1090 -0.0138
  487loPI   C3A 7785   0.548   4.616   9.439  0.0383 -0.2597 -0.2120
  487loPI   C4A 7786   0.458   4.645   9.046  0.0712 -0.0769 -0.2663
  487loPI   C5A 7787   0.604   4.606   8.556  0.2013 -0.1378  0.0208
  487loPI   C6A 7788   0.919   4.546   8.236 -0.2950 -0.0731 -0.0288
  487loPI   C1B 7789   0.834   4.337  10.233  0.1050 -0.2153  0.3454
  487loPI   C2B 7790   0.856   4.390   9.783  0.2468 -0.0555  0.4327
  487loPI   C3B 7791   0.964   4.365   9.406  0.2381 -0.0513 -0.1402
  487loPI   C4B 7792   0.882   4.373   8.923  0.0967  0.0263 -0.2385
  488loPI    C1 7793   7.604  14.586  11.589  0.1904  0.2837  0.0446
  488loPI    C2 7794   7.433  14.521  11.945  0.5272 -0.1065  0.1435
  488loPI    C3 7795   7.411  14.883  11.775  0.1722  0.0238  0.4530
  488loPI   PO4 7796   7.520  14.418  11.366  0.1640  0.0482  0.1746
  488loPI   GL1 7797   7.164  14.309  11.124 -0.2800 -0.0906 -0.0295
  488loPI   GL2 7798   6.855  14.510  11.063 -0.0554 -0.0439 -0.0313
  488loPI   C1A 7799   7.046  14.285  10.687  0.1640  0.1626  0.1329
  488loPI   C2A 7800   7.070  14.346  10.221  0.1826 -0.1817  0.3357
  488loPI   C3A 7801   7.113  14.380   9.836  0.1781  0.3067  0.0269
  488loPI   C4A 7802   7.061  14.359   9.503 -0.2556  0.3819 -0.1703
  488loPI   C5A 7803   7.015  14.540   9.069  0.0036  0.0448 -0.0748
  488loPI   C6A 7804   6.767  14.841   8.776  0.0638  0.0362 -0.2934
  488loPI   C1B 7805   6.547  14.645  10.726  0.0793 -0.0923 -0.3216
  488loPI   C2B 7806   6.555  14.593  10.192 -0.1266 -0.0942 -0.4385
  488loPI   C3B 7807   6.597  14.567   9.786  0.0302 -0.1394  0.3313
  488loPI   C4B 7808   6.584  14.640   9.291  0.4183  0.1331  0.0048
  489loPI    C1 7809   4.515  11.472  11.504  0.0661 -0.1199  0.0843
  489loPI    C2 7810   4.567  11.867  11.545 -0.2536 -0.0336 -0.2856
  489loPI    C3 7811   4.837  11.613  11.697 -0.0190  0.3253 -0.0870
  489loPI   PO4 7812   4.460  11.375  11.255 -0.0657 -0.0028  0.2635
  489loPI   GL1 7813   4.424  11.047  10.909 -0.5435  0.0855 -0.0706
  489loPI   GL2 7814   4.650  10.922  10.971 -0.0040  0.1303  0.3486
  489loPI   C1A 7815   4.325  11.091  10.564  0.0710  0.0185  0.0300
  489loPI   C2A 7816   4.333  11.253  10.167  0.5076  0.2855  0.0259
  489loPI   C3A 7817   4.331  11.240   9.709  0.0853 -0.3570 -0.2769
  489loPI   C4A 7818   4.447  11.261   9.334  0.1298  0.0546  0.3622
  489loPI   C5A 7819   4.210  11.401   9.059  0.2945 -0.2102 -0.1042
  489loPI   C6A 7820   3.882  11.642   8.867 -0.1033 -0.1808  0.2867
  489loPI   C1B 7821   4.855  10.881  10.553 -0.3242  0.0117 -0.2962
  489loPI   C2B 7822   4.810  11.035  10.079 -0.4685  0.1638 -0.0972
  489loPI   C3B 7823   4.824  11.115   9.673  0.0872  0.4238  0.2881
  489loPI   C4B 7824   4.866  11.585   9.531  0.1773  0.1185 -0.0217
  490loPI    C1 7825  17.069  13.295  11.423 -0.1072  0.0848 -0.1441
  490loPI    C2 7826  17.358  13.566  11.371 -0.1581  0.1848  0.0795
  490loPI    C3 7827  17.244  13.465  11.740 -0.1108 -0.1747 -0.0005
  490loPI   PO4 7828  16.976  13.247  11.228 -0.0481 -0.4270  0.1593
  490loPI   GL1 7829  17.027  13.536  10.993 -0.0980 -0.0776  0.1004
  490loPI   GL2 7830  16.997  13.754  10.868  0.3022 -0.1413 -0.0853
  490loPI   C1A 7831  16.882  13.323  10.606  0.1864  0.1829  0.1120
  490loPI   C2A 7832  16.865  13.416  10.142  0.1790 -0.2593  0.3354
  490loPI   C3A 7833  16.948  13.332   9.740  0.2584  0.2594 -0.2502
  490loPI   C4A 7834  16.955  13.350   9.297 -0.0776  0.1279  0.1871
  490loPI   C5A 7835  17.101  13.385   8.800 -0.0554  0.2859 -0.0868
  490loPI   C6A 7836  16.876  13.416   8.417  0.0490  0.3016  0.1359
  490loPI   C1B 7837  16.857  13.842  10.460  0.0224  0.1843 -0.2651
  490loPI   C2B 7838  16.869  13.887  10.027  0.2899 -0.0709  0.1109
  490loPI   C3B 7839  16.973  13.821   9.526  0.0382  0.2631 -0.2697
  490loPI   C4B 7840  17.032  13.872   8.986  0.0743 -0.0248  0.1946
  491loPI    C1 7841   5.686   1.673  11.326  0.1439  0.0350 -0.1293
  491loPI    C2 7842   5.728   1.331  11.528 -0.0584 -0.0268 -0.1889
  491loPI    C3 7843   5.632   1.667  11.722 -0.1507 -0.0649 -0.1681
  491loPI   PO4 7844   5.884   1.683  11.166  0.2004  0.1524  0.3631
  491loPI   GL1 7845   5.821   1.688  10.765  0.3906 -0.1842  0.1801
  491loPI   GL2 7846   5.927   1.455  10.610  0.0438 -0.0503  0.2670
  491loPI   C1A 7847   5.420   1.788  10.598 -0.2129 -0.1932  0.2535
  491loPI   C2A 7848   5.343   1.783  10.154  0.0215 -0.0571 -0.1948
  491loPI   C3A 7849   5.337   1.818   9.779  0.1525  0.0262  0.0776
  491loPI   C4A 7850   5.394   1.775   9.345  0.1158 -0.0470 -0.1619
  491loPI   C5A 7851   5.287   1.749   8.922  0.1548 -0.2742 -0.2752
  491loPI   C6A 7852   5.305   1.564   8.531  0.0051  0.0640 -0.0117
  491loPI   C1B 7853   5.796   1.638  10.209  0.1196 -0.0639 -0.0399
  491loPI   C2B 7854   5.781   1.555   9.746 -0.0328  0.1105 -0.0328
  491loPI   C3B 7855   5.749   1.386   9.361  0.0324  0.2050  0.0263
  491loPI   C4B 7856   5.695   1.469   8.917  0.0302 -0.0483 -0.3152
  492loPI    C1 7857   4.386  17.031  11.572  0.1011  0.1227  0.0172
  492loPI    C2 7858   4.167  17.012  11.906  0.0321 -0.0076 -0.0346
  492loPI    C3 7859   4.564  17.059  11.929  0.0222  0.0304  0.0644
  492loPI   PO4 7860   4.273  16.890  11.382  0.1795 -0.0516  0.0444
  492loPI   GL1 7861   4.331  16.997  10.904  0.0885  0.0002  0.1454
  492loPI   GL2 7862   4.331  16.656  10.950  0.0356  0.0945 -0.1284
  492loPI   C1A 7863   4.430  17.052  10.437 -0.2085 -0.1247 -0.0717
  492loPI   C2A 7864   4.424  16.989  10.085  0.0068 -0.0683 -0.1880
  492loPI   C3A 7865   4.476  17.032   9.593  0.1524 -0.0517  0.0119
  492loPI   C4A 7866   4.441  17.116   9.141  0.0864  0.0393  0.0449
  492loPI   C5A 7867   4.358  17.051   8.730  0.0580 -0.3486  0.0555
  492loPI   C6A 7868   4.439  17.034   8.389  0.2232 -0.0933 -0.3839
  492loPI   C1B 7869   4.367  16.539  10.473  0.1295 -0.0949  0.1564
  492loPI   C2B 7870   4.400  16.460   9.992  0.4137  0.2772 -0.3115
  492loPI   C3B 7871   4.399  16.474   9.594 -0.0355 -0.1037 -0.0079
  492loPI   C4B 7872   4.446  16.514   9.098  0.0275  0.0819  0.0411
  493loPI    C1 7873   2.905  15.818  11.457 -0.1739 -0.1959 -0.0297
  493loPI    C2 7874   3.098  15.611  11.740  0.0141 -0.1037 -0.0888
  493loPI    C3 7875   2.748  15.785  11.824  0.0089 -0.1796  0.0513
  493loPI   PO4 7876   2.848  15.704  11.246  0.3727  0.1175 -0.2420
  493loPI   GL1 7877   2.960  15.521  10.880  0.2029 -0.0099 -0.0595
  493loPI   GL2 7878   3.062  15.827  10.798  0.0797 -0.1140  0.0544
  493loPI   C1A 7879   2.625  15.421  10.588  0.1575 -0.1510 -0.0111
  493loPI   C2A 7880   2.629  15.465  10.159 -0.1658  0.1374  0.0959
  493loPI   C3A 7881   2.601  15.468   9.718  0.3374  0.3225  0.1788
  493loPI   C4A 7882   2.610  15.480   9.251 -0.0874  0.0523  0.3931
  493loPI   C5A 7883   2.693  15.583   8.875  0.1299  0.1217  0.2104
  493loPI   C6A 7884   2.649  15.349   8.544 -0.1587  0.0641  0.0080
  493loPI   C1B 7885   3.029  15.711  10.352 -0.0450 -0.1792 -0.2576
  493loPI   C2B 7886   3.074  15.706   9.876  0.2091  0.1290  0.2570
  493loPI   C3B 7887   2.980  15.764   9.418 -0.0476  0.1036 -0.0234
  493loPI   C4B 7888   3.173  15.712   9.082  0.0749  0.1330  0.3596
  494loPI    C1 7889   3.773  17.348  11.806 -0.0424  0.0130  0.0323
  494loPI    C2 7890   3.376  17.393  11.789 -0.0101  0.2045 -0.3075
  494loPI    C3 7891   3.595  17.632  12.024 -0.1010  0.0436 -0.0551
  494loPI   PO4 7892   3.960  17.311  11.584  0.2412  0.0152  0.1147
  494loPI   GL1 7893   3.863  17.425  11.139 -0.0458 -0.0866 -0.0933
  494loPI   GL2 7894   3.897  17.782  10.976 -0.1827 -0.2239 -0.2249
  494loPI   C1A 7895   3.887  17.297  10.708  0.1979 -0.5533  0.1706
  494loPI   C2A 7896   3.978  17.243  10.256  0.2593 -0.1109 -0.1819
  494loPI   C3A 7897   3.978  17.348   9.822 -0.2661  0.3679  0.2179
  494loPI   C4A 7898   4.006  17.323   9.436  0.1341  0.0078  0.3033
  494loPI   C5A 7899   3.963  17.290   9.068 -0.2350 -0.0453  0.0113
  494loPI   C6A 7900   3.732  17.381   8.588  0.2525  0.2006 -0.1072
  494loPI   C1B 7901   4.011  17.817  10.537 -0.1128  0.3484  0.2123
  494loPI   C2B 7902   4.030  17.793  10.069  0.1781 -0.2520  0.0825
  494loPI   C3B 7903   4.082  17.885   9.624  0.1638 -0.0766  0.2451
  494loPI   C4B 7904   3.886  17.838   9.232  0.2202 -0.2107  0.1081
  495loPI    C1 7905   7.200  16.208  11.505 -0.2098  0.1857  0.0446
  495loPI    C2 7906   7.485  16.095  11.762 -0.0404  0.2999 -0.0912
  495loPI    C3 7907   7.322  16.460  11.791 -0.0471  0.2994 -0.1229
  495loPI   PO4 7908   7.236  16.163  11.360 -0.0340 -0.1222  0.1353
  495loPI   GL1 7909   7.153  15.895  11.031 -0.1082  0.3200  0.0083
  495loPI   GL2 7910   7.425  15.687  10.970 -0.0056 -0.2006 -0.0192
  495loPI   C1A 7911   6.986  15.999  10.607 -0.0459  0.1643  0.2332
  495loPI   C2A 7912   7.023  16.069  10.187  0.0308 -0.1333  0.1489
  495loPI   C3A 7913   7.026  15.956   9.761  0.1805 -0.0159  0.2902
  495loPI   C4A 7914   7.055  15.983   9.280 -0.1836 -0.1583 -0.1519
  495loPI   C5A 7915   7.136  15.826   8.831 -0.0362  0.0367  0.1690
  495loPI   C6A 7916   7.348  15.615   8.511  0.3547  0.3031  0.0137
  495loPI   C1B 7917   7.475  15.647  10.531 -0.1916 -0.1583  0.0077
  495loPI   C2B 7918   7.489  15.815  10.122  0.0650  0.0190  0.0002
  495loPI   C3B 7919   7.545  15.770   9.711  0.1135  0.1477  0.0032
  495loPI   C4B 7920   7.455  15.722   9.261 -0.1625  0.1861 -0.0010
  496loPI    C1 7921   2.771  14.212  11.373 -0.1091  0.0616 -0.0568
  496loPI    C2 7922   2.630  14.551  11.531 -0.0984  0.0191  0.0450
  496loPI    C3 7923   2.850  14.304  11.754 -0.0971 -0.0498 -0.0322
  496loPI   PO4 7924   2.612  14.137  11.203 -0.0985 -0.1271 -0.0212
  496loPI   GL1 7925   2.728  14.154  10.853 -0.4780 -0.0518 -0.0959
  496loPI   GL2 7926   2.548  14.282  10.664  0.4597  0.1898  0.0998
  496loPI   C1A 7927   2.967  14.152  10.449 -0.1960 -0.3344  0.3646
  496loPI   C2A 7928   3.047  14.109  10.009  0.0842 -0.0140  0.0508
  496loPI   C3A 7929   3.124  14.215   9.592  0.0327  0.0589  0.0447
  496loPI   C4A 7930   3.069  14.182   9.218 -0.3938  0.2952  0.0096
  496loPI   C5A 7931   2.925  13.931   8.796 -0.0184 -0.1580 -0.1708
  496loPI   C6A 7932   2.792  13.726   8.328  0.1595 -0.1156  0.1366
  496loPI   C1B 7933   2.547  14.455  10.276  0.0748  0.1880 -0.0267
  496loPI   C2B 7934   2.633  14.408   9.844  0.2564  0.2269 -0.1694
  496loPI   C3B 7935   2.688  14.524   9.404  0.1390  0.0269 -0.0914
  496loPI   C4B 7936   2.662  14.446   8.941 -0.1489  0.2678 -0.1160
  497loPI    C1 7937  12.523  15.520  11.573 -0.0238  0.0329  0.1157
  497loPI    C2 7938  12.298  15.847  11.528 -0.0562  0.0500  0.3892
  497loPI    C3 7939  12.584  15.838  11.807 -0.0066 -0.1287  0.3339
  497loPI   PO4 7940  12.492  15.437  11.230 -0.1485  0.0203  0.4092
  497loPI   GL1 7941  12.531  15.614  10.832 -0.2162  0.1500 -0.3396
  497loPI   GL2 7942  12.406  15.915  10.830  0.2250  0.0751 -0.0483
  497loPI   C1A 7943  12.423  15.547  10.389  0.1540 -0.0904  0.0472
  497loPI   C2A 7944  12.431  15.369   9.991 -0.0634  0.1591  0.0849
  497loPI   C3A 7945  12.421  15.326   9.548 -0.1089  0.0769  0.1318
  497loPI   C4A 7946  12.439  15.456   9.026  0.0728  0.0893 -0.0004
  497loPI   C5A 7947  12.518  15.427   8.563  0.2257  0.3237  0.0673
  497loPI   C6A 7948  12.638  15.126   8.276  0.4949 -0.2773  0.1011
  497loPI   C1B 7949  12.430  16.009  10.376  0.0499 -0.3959 -0.1052
  497loPI   C2B 7950  12.448  15.952   9.972  0.1118 -0.3336  0.0195
  497loPI   C3B 7951  12.447  15.877   9.497 -0.0043 -0.1771  0.0422
  497loPI   C4B 7952  12.490  15.965   9.064  0.1689  0.0383  0.0979
  498loPI    C1 7953   7.668   0.031  11.413  0.1681 -0.1891  0.0418
  498loPI    C2 7954   7.418  -0.254  11.285  0.0936 -0.2127  0.2356
  498loPI    C3 7955   7.448  -0.176  11.676 -0.0570  0.2008  0.1694
  498loPI   PO4 7956   7.849  -0.000  11.205 -0.2962  0.2050 -0.0446
  498loPI   GL1 7957   7.838  -0.167  10.787 -0.1269 -0.2451 -0.0687
  498loPI   GL2 7958   7.553  -0.138  10.691  0.0710  0.2392 -0.2134
  498loPI   C1A 7959   7.959  -0.298  10.367  0.1406  0.4544  0.0593
  498loPI   C2A 7960   7.912  -0.382   9.908  0.2893  0.1643  0.2195
  498loPI   C3A 7961   7.945  -0.441   9.437  0.1281  0.4098  0.1813
  498loPI   C4A 7962   7.996  -0.272   8.978 -0.4083  0.1666  0.0232
  498loPI   C5A 7963   8.131  -0.507   8.659  0.1789 -0.2341  0.4399
  498loPI   C6A 7964   8.193  -0.909   8.568 -0.4594  0.2740 -0.6434
  498loPI   C1B 7965   7.574  -0.068  10.221 -0.0712 -0.1097  0.2107
  498loPI   C2B 7966   7.536  -0.142   9.763  0.0210 -0.1004  0.0439
  498loPI   C3B 7967   7.521  -0.163   9.426 -0.1519 -0.1691 -0.2568
  498loPI   C4B 7968   7.508  -0.202   9.036  0.1337  0.1072 -0.1114
  499loPI    C1 7969   6.080  13.619  11.814 -0.1317 -0.1313  0.0655
  499loPI    C2 7970   5.755  13.483  12.004 -0.0426 -0.3031  0.0969
  499loPI    C3 7971   6.088  13.567  12.210 -0.1806  0.2312  0.1172
  499loPI   PO4 7972   5.995  13.483  11.477 -0.1615  0.2228  0.0481
  499loPI   GL1 7973   5.967  13.577  11.090 -0.0077 -0.0910 -0.1868
  499loPI   GL2 7974   6.119  13.867  10.965 -0.0985 -0.0410 -0.2354
  499loPI   C1A 7975   6.046  13.453  10.664 -0.0792 -0.3356  0.1929
  499loPI   C2A 7976   6.136  13.402  10.237 -0.2913  0.0683 -0.0328
  499loPI   C3A 7977   6.110  13.339   9.792  0.1750 -0.2015  0.0867
  499loPI   C4A 7978   6.198  13.382   9.373  0.4802  0.3947  0.0408
  499loPI   C5A 7979   6.329  13.472   8.926 -0.1488 -0.0615  0.1726
  499loPI   C6A 7980   6.388  13.537   8.421 -0.4669 -0.0626  0.1902
  499loPI   C1B 7981   6.134  13.901  10.562  0.2916 -0.1875 -0.0551
  499loPI   C2B 7982   6.140  13.911  10.180  0.0860 -0.2987  0.3751
  499loPI   C3B 7983   6.185  13.844   9.711 -0.1210 -0.1575  0.2291
  499loPI   C4B 7984   6.288  13.857   9.274 -0.1200 -0.2727  0.0551
  500loPI    C1 7985   0.344   0.296  11.419 -0.1365  0.0992  0.0415
  500loPI    C2 7986   0.348   0.041  11.728 -0.2505 -0.0451 -0.0747
  500loPI    C3 7987   0.349   0.435  11.794  0.1528 -0.0711  0.1041
  500loPI   PO4 7988   0.381   0.174  11.238 -0.0657  0.2130 -0.2924
  500loPI   GL1 7989   0.434   0.272  10.858 -0.3026 -0.0814 -0.0404
  500loPI   GL2 7990   0.103   0.069  10.742 -0.1894 -0.0189  0.1881
  500loPI   C1A 7991   0.463   0.440  10.420  0.0379 -0.0427  0.1499
  500loPI   C2A 7992   0.303   0.510  10.050 -0.1014  0.1088 -0.3264
  500loPI   C3A 7993   0.415   0.341   9.647  0.1905 -0.1593  0.2396
  500loPI   C4A 7994   0.411   0.444   9.254 -0.2769 -0.0101 -0.2395
  500loPI   C5A 7995   0.435   0.306   8.845  0.1994 -0.1429 -0.0017
  500loPI   C6A 7996   0.327   0.080   8.543 -0.1377 -0.0379 -0.1970
  500loPI   C1B 7997   0.365  -0.036  10.417 -0.2221  0.2789 -0.2018
  500loPI   C2B 7998   0.349  -0.072   9.995 -0.1181  0.1271 -0.1704
  500loPI   C3B 7999   0.340  -0.251   9.618 -0.0581  0.0401 -0.1182
  500loPI   C4B 8000   0.466  -0.151   9.190  0.2471 -0.3152  0.0947
  501loPI    C1 8001  12.234  10.315  11.419 -0.3628  0.1521  0.2473
  501loPI    C2 8002  12.450  10.602  11.594  0.2741 -0.1476 -0.0137
  501loPI    C3 8003  12.295  10.306  11.814  0.2915 -0.0330  0.1545
  501loPI   PO4 8004  12.289  10.310  11.191 -0.0603  0.1292 -0.0503
  501loPI   GL1 8005  12.291  10.168  10.837  0.1904  0.1710  0.0144
  501loPI   GL2 8006  12.052  10.135  10.758  0.2839  0.2519 -0.0423
  501loPI   C1A 8007  12.488  10.063  10.444 -0.0343  0.0291  0.1727
  501loPI   C2A 8008  12.466  10.053   9.954 -0.4164 -0.0392 -0.1108
  501loPI   C3A 8009  12.431  10.094   9.548 -0.2872  0.0617 -0.0139
  501loPI   C4A 8010  12.332  10.226   9.242 -0.0844 -0.2283 -0.1166
  501loPI   C5A 8011  12.403  10.116   8.759  0.3486  0.0571  0.2865
  501loPI   C6A 8012  12.072  10.230   8.473 -0.0354 -0.1116  0.0614
  501loPI   C1B 8013  12.093  10.266  10.312 -0.1333 -0.2606 -0.1149
  501loPI   C2B 8014  12.077  10.325   9.813  0.0146  0.0305 -0.1455
  501loPI   C3B 8015  11.959  10.502   9.459  0.1877  0.0748  0.0637
  501loPI   C4B 8016  11.920  10.399   9.001 -0.1877 -0.3328 -0.2433
  502loPI    C1 8017   6.660   0.992  11.242  0.1475  0.1391 -0.1058
  502loPI    C2 8018   6.571   0.838  11.600  0.0874  0.2261 -0.0830
  502loPI    C3 8019   6.655   1.228  11.565 -0.2466  0.2895 -0.2158
  502loPI   PO4 8020   6.693   0.840  11.125 -0.0771 -0.0765 -0.3441
  502loPI   GL1 8021   6.733   0.649  10.760  0.1805  0.3291  0.0189
  502loPI   GL2 8022   6.942   0.821  10.667 -0.2153  0.0120  0.3473
  502loPI   C1A 8023   6.656   0.456  10.441  0.0316 -0.0287 -0.1041
  502loPI   C2A 8024   6.630   0.435   9.986  0.2622  0.2308  0.1175
  502loPI   C3A 8025   6.656   0.432   9.624  0.2059  0.1014  0.2024
  502loPI   C4A 8026   6.583   0.422   9.265  0.1425  0.0274 -0.0249
  502loPI   C5A 8027   6.706   0.445   8.888  0.1077 -0.0050 -0.1039
  502loPI   C6A 8028   6.665   0.237   8.516 -0.2189  0.0767 -0.0432
  502loPI   C1B 8029   7.099   0.630  10.309 -0.0916 -0.1372 -0.1233
  502loPI   C2B 8030   7.067   0.638   9.813 -0.0987  0.1393 -0.0293
  502loPI   C3B 8031   7.026   0.630   9.419  0.3046 -0.1702 -0.0415
  502loPI   C4B 8032   7.134   0.765   8.952 -0.0725 -0.2206  0.0095
  503loPI    C1 8033   8.872   9.846  11.369  0.0440  0.1801 -0.0119
  503loPI    C2 8034   8.696   9.511  11.499 -0.1634  0.3052  0.0343
  503loPI    C3 8035   8.971   9.693  11.725  0.0924  0.0625 -0.0753
  503loPI   PO4 8036   8.937   9.818  11.139 -0.2623  0.0285 -0.0130
  503loPI   GL1 8037   9.016   9.628  10.826 -0.1445 -0.0868 -0.0827
  503loPI   GL2 8038   8.867   9.594  10.550  0.0690 -0.0182  0.1867
  503loPI   C1A 8039   9.318   9.798  10.496  0.1180 -0.0261  0.2838
  503loPI   C2A 8040   9.294   9.849  10.078  0.0411 -0.0387 -0.0841
  503loPI   C3A 8041   9.346   9.874   9.611  0.1793 -0.0397 -0.0162
  503loPI   C4A 8042   9.295   9.943   9.106 -0.2392  0.0526  0.1550
  503loPI   C5A 8043   9.342   9.999   8.654 -0.0868 -0.1881 -0.4023
  503loPI   C6A 8044   8.967   9.841   8.458 -0.0292 -0.0981  0.0469
  503loPI   C1B 8045   8.836   9.590  10.134  0.3772  0.2824  0.2630
  503loPI   C2B 8046   8.847   9.606   9.705 -0.0160  0.0211  0.0611
  503loPI   C3B 8047   8.868   9.697   9.345  0.0807  0.2066  0.0488
  503loPI   C4B 8048   8.825   9.753   8.956  0.1617  0.2703  0.1945
  504loPI    C1 8049   3.546  13.684  11.531 -0.0230  0.3066  0.2513
  504loPI    C2 8050   3.837  13.738  11.262 -0.0239 -0.2631  0.1234
  504loPI    C3 8051   3.928  13.626  11.635 -0.0741 -0.3731  0.1027
  504loPI   PO4 8052   3.368  13.595  11.345  0.0990  0.1206  0.2940
  504loPI   GL1 8053   3.336  13.544  10.953 -0.2625 -0.0030 -0.0276
  504loPI   GL2 8054   3.585  13.376  10.902  0.2321  0.1894 -0.3264
  504loPI   C1A 8055   3.390  13.869  10.557  0.1575  0.3771 -0.1515
  504loPI   C2A 8056   3.435  13.878  10.188  0.3409 -0.3004 -0.0027
  504loPI   C3A 8057   3.511  13.924   9.721  0.0977 -0.1768 -0.1287
  504loPI   C4A 8058   3.428  13.882   9.355  0.0148  0.0451 -0.1421
  504loPI   C5A 8059   3.421  13.682   9.008  0.0258 -0.2740 -0.0130
  504loPI   C6A 8060   3.385  13.727   8.536 -0.1794 -0.4701  0.2353
  504loPI   C1B 8061   3.387  13.315  10.518  0.0171 -0.2321 -0.0936
  504loPI   C2B 8062   3.499  13.392  10.235  0.0217  0.0539 -0.3494
  504loPI   C3B 8063   3.512  13.436   9.777 -0.1671  0.2870 -0.0462
  504loPI   C4B 8064   3.494  13.290   9.302  0.1731 -0.3883 -0.0839
  505loPI    C1 8065   5.889   9.706  11.366 -0.0744  0.1717  0.3792
  505loPI    C2 8066   6.189   9.631  11.620  0.1702 -0.1799 -0.0008
  505loPI    C3 8067   5.884   9.374  11.588  0.0140 -0.0114  0.1126
  505loPI   PO4 8068   6.030   9.763  11.099  0.0655 -0.1815 -0.1998
  505loPI   GL1 8069   5.865   9.881  10.802 -0.1137 -0.1070 -0.1064
  505loPI   GL2 8070   6.170  10.110  10.714  0.1279  0.0760 -0.1598
  505loPI   C1A 8071   5.794   9.870  10.419  0.4108  0.0991  0.1038
  505loPI   C2A 8072   5.761   9.963  10.022 -0.1512 -0.1245  0.1267
  505loPI   C3A 8073   5.756   9.983   9.596 -0.1446 -0.3683 -0.2654
  505loPI   C4A 8074   5.699  10.020   9.195 -0.0171 -0.0744  0.0747
  505loPI   C5A 8075   5.665   9.697   8.772 -0.2427  0.3140  0.0490
  505loPI   C6A 8076   5.721   9.577   8.348 -0.0789  0.0159  0.2320
  505loPI   C1B 8077   6.196  10.205  10.241  0.1396 -0.0781 -0.0514
  505loPI   C2B 8078   6.213  10.211   9.792  0.4174  0.0178 -0.1176
  505loPI   C3B 8079   6.120  10.334   9.314  0.1521 -0.0656 -0.1593
  505loPI   C4B 8080   6.119  10.246   8.926  0.3174  0.3558 -0.0795
  506loPI    C1 8081   6.530  17.460  11.764  0.0187  0.1122  0.0471
  506loPI    C2 8082   6.180  17.654  11.771  0.0245  0.1254 -0.0236
  506loPI    C3 8083   6.495  17.803  11.966  0.0312  0.1920 -0.0847
  506loPI   PO4 8084   6.540  17.395  11.504 -0.1204 -0.0290 -0.0903
  506loPI   GL1 8085   6.528  17.555  10.972 -0.0031  0.2191  0.0828
  506loPI   GL2 8086   6.575  17.222  10.927  0.2937  0.0629 -0.2502
  506loPI   C1A 8087   6.237  17.595  10.744 -0.3716  0.2821 -0.2697
  506loPI   C2A 8088   6.262  17.483  10.413  0.0923 -0.0785 -0.2434
  506loPI   C3A 8089   6.223  17.540   9.965 -0.0699 -0.2901 -0.0556
  506loPI   C4A 8090   6.182  17.581   9.499 -0.1973  0.4865 -0.0240
  506loPI   C5A 8091   6.268  17.450   9.110 -0.1427 -0.2516  0.1858
  506loPI   C6A 8092   6.579  17.298   8.887  0.2427 -0.0414 -0.1316
  506loPI   C1B 8093   6.734  17.368  10.585 -0.0412  0.1861 -0.2059
  506loPI   C2B 8094   6.660  17.342  10.202  0.0855  0.2251  0.0305
  506loPI   C3B 8095   6.676  17.309   9.700 -0.1317 -0.2979 -0.2032
  506loPI   C4B 8096   6.654  17.232   9.343  0.3406 -0.1473  0.3303
  507loPI    C1 8097   2.839   7.077  11.257  0.1894  0.4596 -0.2788
  507loPI    C2 8098   2.482   7.160  11.417  0.0559 -0.2052 -0.2002
  507loPI    C3 8099   2.810   7.350  11.548 -0.2317  0.2500 -0.1163
  507loPI   PO4 8100   2.741   7.035  11.015 -0.0217  0.4199 -0.2216
  507loPI   GL1 8101   2.471   7.202  10.739  0.2277  0.1155 -0.1600
  507loPI   GL2 8102   2.300   7.436  10.603  0.2746  0.0133 -0.1050
  507loPI   C1A 8103   2.574   7.041  10.349  0.1172  0.0003  0.1386
  507loPI   C2A 8104   2.719   7.139   9.996 -0.1634 -0.0592  0.0787
  507loPI   C3A 8105   2.692   7.030   9.551  0.3911 -0.0219 -0.0251
  507loPI   C4A 8106   2.682   7.091   9.180 -0.1347  0.3740 -0.0091
  507loPI   C5A 8107   2.566   6.874   8.780  0.0204  0.1038 -0.0060
  507loPI   C6A 8108   2.574   6.766   8.389  0.4183  0.2283  0.0918
  507loPI   C1B 8109   2.121   7.291  10.258  0.1640  0.2417 -0.1330
  507loPI   C2B 8110   2.239   7.271   9.827 -0.0426  0.2531 -0.0176
  507loPI   C3B 8111   2.228   7.368   9.362 -0.0560  0.3224  0.0260
  507loPI   C4B 8112   2.284   7.299   8.934  0.0832  0.0803 -0.1872
  508loPI    C1 8113   9.280  10.550  11.286 -0.1402  0.0820  0.0199
  508loPI    C2 8114   9.261  10.572  11.685  0.0273 -0.1327  0.0417
  508loPI    C3 8115   9.610  10.495  11.506 -0.0709 -0.1600 -0.1404
  508loPI   PO4 8116   9.036  10.378  11.201  0.1314 -0.1696 -0.2720
  508loPI   GL1 8117   8.892  10.171  10.786  0.0654  0.0617 -0.1091
  508loPI   GL2 8118   9.205  10.361  10.657 -0.3286 -0.1354 -0.1544
  508loPI   C1A 8119   8.924  10.059  10.374  0.0043 -0.1864  0.0176
  508loPI   C2A 8120   8.869  10.123   9.870 -0.2572  0.2638 -0.0149
  508loPI   C3A 8121   8.908  10.166   9.500 -0.0753 -0.6609 -0.2048
  508loPI   C4A 8122   8.826  10.208   9.084  0.1397  0.0186  0.0959
  508loPI   C5A 8123   8.894  10.240   8.748  0.0806 -0.2418  0.1048
  508loPI   C6A 8124   9.044  10.382   8.318  0.0702 -0.0616  0.0467
  508loPI   C1B 8125   9.311  10.365  10.125  0.0790 -0.1686 -0.2162
  508loPI   C2B 8126   9.327  10.468   9.791  0.2127 -0.1818 -0.2210
  508loPI   C3B 8127   9.341  10.445   9.426 -0.0302 -0.2077  0.0185
  508loPI   C4B 8128   9.317  10.423   8.986  0.0807 -0.1028  0.3966
  509loPI    C1 8129   0.461  10.930  11.211 -0.0306  0.0276  0.1681
  509loPI    C2 8130   0.648  11.184  11.456 -0.0196  0.0291  0.1582
  509loPI    C3 8131   0.432  10.883  11.607  0.1835 -0.1130  0.1688
  509loPI   PO4 8132   0.586  10.853  11.011 -0.0608  0.0249 -0.1855
  509loPI   GL1 8133   0.559  10.636  10.560  0.0259 -0.1315  0.1361
  509loPI   GL2 8134   0.852  10.655  10.476  0.0941  0.0692 -0.3645
  509loPI   C1A 8135   0.371  10.925  10.246 -0.0714 -0.0674  0.1710
  509loPI   C2A 8136   0.456  11.104   9.851  0.2177  0.0396  0.1145
  509loPI   C3A 8137   0.405  10.945   9.414 -0.0590  0.1764 -0.0205
  509loPI   C4A 8138   0.343  10.975   9.001 -0.3040 -0.0744  0.2195
  509loPI   C5A 8139   0.371  10.934   8.553  0.3228  0.1412  0.2696
  509loPI   C6A 8140   0.691  11.038   8.258 -0.1655  0.2727 -0.0454
  509loPI   C1B 8141   0.910  10.704  10.054  0.1884 -0.1389  0.1336
  509loPI   C2B 8142   0.915  10.804   9.559 -0.0716 -0.0496 -0.0586
  509loPI   C3B 8143   0.786  10.638   9.122  0.0268  0.1836  0.1033
  509loPI   C4B 8144   0.816  10.632   8.640 -0.4025 -0.0172 -0.5017
  510loPI    C1 8145   0.629   0.741  11.474 -0.0533  0.0052  0.0649
  510loPI    C2 8146   0.487   1.114  11.498  0.1495  0.0980 -0.1354
  510loPI    C3 8147   0.575   0.912  11.832 -0.4005  0.0534 -0.0077
  510loPI   PO4 8148   0.839   0.863  11.153 -0.2670 -0.0390 -0.1249
  510loPI   GL1 8149   0.895   0.695  10.742 -0.0607 -0.1736 -0.1016
  510loPI   GL2 8150   0.846   1.065  10.703  0.3659 -0.0176 -0.1018
  510loPI   C1A 8151   0.913   0.705  10.296  0.2100  0.0754  0.1778
  510loPI   C2A 8152   0.868   0.699   9.924 -0.0059 -0.0662  0.1471
  510loPI   C3A 8153   0.961   0.600   9.460  0.2819 -0.0331 -0.1398
  510loPI   C4A 8154   0.867   0.703   9.085  0.0526  0.0263 -0.0092
  510loPI   C5A 8155   0.971   0.827   8.666  0.0509  0.0723 -0.2800
  510loPI   C6A 8156   1.092   0.903   8.265 -0.3693  0.2504 -0.4081
  510loPI   C1B 8157   0.825   1.167  10.290 -0.2784 -0.0398 -0.0030
  510loPI   C2B 8158   0.883   1.321   9.928  0.0782  0.3169 -0.1482
  510loPI   C3B 8159   0.909   1.171   9.555  0.1511  0.2734 -0.1913
  510loPI   C4B 8160   0.959   1.174   9.189 -0.2869  0.1981 -0.1753
  511loPI    C1 8161  10.398   9.469  11.575  0.0422  0.3740 -0.0883
  511loPI    C2 8162  10.714   9.571  11.798  0.1672 -0.2409  0.0319
  511loPI    C3 8163  10.435   9.325  11.947 -0.3019  0.1804 -0.1245
  511loPI   PO4 8164  10.545   9.389  11.306 -0.4269  0.1186 -0.3599
  511loPI   GL1 8165  10.506   9.417  10.836 -0.3154 -0.1610  0.1028
  511loPI   GL2 8166  10.584   9.679  10.762  0.4148 -0.1597  0.1200
  511loPI   C1A 8167  10.208   9.409  10.535 -0.0009 -0.1261 -0.1668
  511loPI   C2A 8168  10.172   9.325  10.111 -0.1510 -0.0969 -0.0525
  511loPI   C3A 8169  10.240   9.391   9.652 -0.0229 -0.1910 -0.2592
  511loPI   C4A 8170  10.140   9.344   9.169  0.2677 -0.0990 -0.0595
  511loPI   C5A 8171  10.166   9.571   8.705 -0.0450  0.0437  0.1800
  511loPI   C6A 8172  10.288   9.929   8.637 -0.1685 -0.0975  0.0578
  511loPI   C1B 8173  10.632   9.585  10.254 -0.0426  0.2983  0.2253
  511loPI   C2B 8174  10.622   9.637   9.804 -0.1201  0.0569 -0.0123
  511loPI   C3B 8175  10.633   9.573   9.368  0.0305 -0.2081 -0.3792
  511loPI   C4B 8176  10.687   9.590   8.938  0.1071 -0.0745  0.0511
  512loPI    C1 8177  15.261   6.513  11.124 -0.0446  0.0253  0.0404
  512loPI    C2 8178  15.502   6.678  11.397  0.2294 -0.0114 -0.1753
  512loPI    C3 8179  15.590   6.320  11.241 -0.1521 -0.1867 -0.0022
  512loPI   PO4 8180  15.245   6.713  10.935 -0.2372 -0.1790  0.1433
  512loPI   GL1 8181  15.381   6.899  10.561  0.2663 -0.0683  0.0136
  512loPI   GL2 8182  15.088   6.896  10.400  0.2627 -0.2382  0.2053
  512loPI   C1A 8183  15.568   6.779  10.169 -0.1702  0.0475  0.1695
  512loPI   C2A 8184  15.554   6.719   9.683  0.3468  0.1305 -0.1721
  512loPI   C3A 8185  15.589   6.733   9.271  0.3989 -0.0448  0.0258
  512loPI   C4A 8186  15.658   6.760   8.911 -0.1018 -0.1071  0.0772
  512loPI   C5A 8187  15.835   6.822   8.490 -0.0961 -0.0998  0.2090
  512loPI   C6A 8188  16.220   6.963   8.183  0.2879 -0.1509 -0.1297
  512loPI   C1B 8189  15.060   6.860   9.944  0.2335 -0.1076 -0.1503
  512loPI   C2B 8190  15.070   7.065   9.489 -0.2674 -0.0962 -0.1746
  512loPI   C3B 8191  15.227   7.036   9.048 -0.1497 -0.3154  0.3175
  512loPI   C4B 8192  15.376   7.090   8.555  0.3588 -0.1232  0.0807
  513loPI    C1 8193   1.905  13.679  11.727  0.0162 -0.1093 -0.3361
  513loPI    C2 8194   1.567  13.893  11.729 -0.1000 -0.2825  0.1556
  513loPI    C3 8195   1.916  14.072  11.804 -0.1408 -0.1894  0.1260
  513loPI   PO4 8196   1.895  13.542  11.517 -0.1921 -0.0205 -0.1467
  513loPI   GL1 8197   1.751  13.384  11.040 -0.1541 -0.0776 -0.0159
  513loPI   GL2 8198   1.919  13.615  10.914 -0.3813  0.1256 -0.0923
  513loPI   C1A 8199   1.683  13.388  10.539 -0.1387 -0.1240 -0.0865
  513loPI   C2A 8200   1.738  13.376  10.105 -0.0880 -0.0806 -0.1532
  513loPI   C3A 8201   1.734  13.346   9.715  0.2196  0.0845  0.3724
  513loPI   C4A 8202   1.788  13.396   9.317 -0.0520 -0.1532  0.0238
  513loPI   C5A 8203   2.042  13.643   8.946 -0.0504  0.1413  0.0708
  513loPI   C6A 8204   2.498  13.716   8.848  0.2175  0.0815  0.1151
  513loPI   C1B 8205   2.069  13.691  10.489  0.0666  0.0261  0.0876
  513loPI   C2B 8206   2.113  13.680  10.007 -0.0365 -0.1091  0.1321
  513loPI   C3B 8207   2.197  13.714   9.674  0.0103 -0.0601 -0.0190
  513loPI   C4B 8208   2.286  13.555   9.335  0.3189 -0.1998  0.2638
  514loPI    C1 8209  14.626  13.589  11.481  0.1547 -0.0606 -0.0775
  514loPI    C2 8210  14.859  13.265  11.459  0.3226  0.0493  0.0587
  514loPI    C3 8211  14.999  13.601  11.626  0.0691  0.1192  0.1346
  514loPI   PO4 8212  14.546  13.596  11.254 -0.0348  0.0167  0.2620
  514loPI   GL1 8213  14.467  13.867  10.922 -0.2142  0.1129 -0.4026
  514loPI   GL2 8214  14.312  13.506  10.877  0.0427 -0.1943 -0.5230
  514loPI   C1A 8215  14.644  13.958  10.389 -0.3401  0.2036  0.2262
  514loPI   C2A 8216  14.661  14.141  10.035 -0.3108  0.2198 -0.0366
  514loPI   C3A 8217  14.782  14.035   9.640 -0.0992 -0.0787 -0.2154
  514loPI   C4A 8218  14.751  14.050   9.225  0.0993 -0.0706 -0.1202
  514loPI   C5A 8219  14.693  14.152   8.785 -0.1084  0.0738  0.3644
  514loPI   C6A 8220  14.687  14.187   8.365  0.1213  0.1157 -0.0639
  514loPI   C1B 8221  14.258  13.628  10.492  0.0986  0.1518  0.0392
  514loPI   C2B 8222  14.159  13.640  10.153  0.1420  0.0098 -0.1522
  514loPI   C3B 8223  14.271  13.970   9.730 -0.1242 -0.0077  0.0289
  514loPI   C4B 8224  14.268  13.825   9.247 -0.1839 -0.2610 -0.0829
  515loPI    C1 8225  10.865  15.100  11.283 -0.0515 -0.0086 -0.1896
  515loPI    C2 8226  11.208  15.232  11.439 -0.1007  0.1518 -0.2151
  515loPI    C3 8227  11.105  14.848  11.479 -0.0419  0.1589  0.0173
  515loPI   PO4 8228  10.777  15.223  11.018  0.0304  0.1323 -0.4207
  515loPI   GL1 8229  10.814  15.573  10.712 -0.1187 -0.0185  0.1218
  515loPI   GL2 8230  10.625  15.837  10.640  0.0134 -0.3563 -0.3581
  515loPI   C1A 8231  10.642  15.491  10.304 -0.0514 -0.1729  0.1222
  515loPI   C2A 8232  10.659  15.446   9.830 -0.0661 -0.1239 -0.0259
  515loPI   C3A 8233  10.669  15.418   9.371  0.3892 -0.0308 -0.0185
  515loPI   C4A 8234  10.693  15.312   8.967 -0.1525  0.0605  0.1269
  515loPI   C5A 8235  10.840  15.356   8.516 -0.0694  0.2361 -0.2558
  515loPI   C6A 8236  11.029  15.705   8.198  0.0454 -0.1546 -0.1905
  515loPI   C1B 8237  10.711  15.968  10.164  0.2982  0.2287  0.1022
  515loPI   C2B 8238  10.666  15.993   9.707  0.0903  0.1037  0.1658
  515loPI   C3B 8239  10.691  15.950   9.286  0.0642  0.0306 -0.0978
  515loPI   C4B 8240  10.701  15.865   8.868  0.3785 -0.4448  0.1456
  516loPI    C1 8241  13.143  16.809  11.602 -0.0651  0.1870 -0.1311
  516loPI    C2 8242  13.439  16.577  11.738 -0.1986 -0.1154 -0.3444
  516loPI    C3 8243  13.096  16.602  11.942 -0.0777  0.1326 -0.1658
  516loPI   PO4 8244  13.220  16.824  11.296 -0.0446  0.0901 -0.2109
  516loPI   GL1 8245  13.068  16.833  10.998 -0.1836 -0.0388  0.1387
  516loPI   GL2 8246  13.267  16.912  10.730  0.0351 -0.1499 -0.1098
  516loPI   C1A 8247  12.830  16.625  10.729  0.1011  0.3503  0.0093
  516loPI   C2A 8248  12.791  16.608  10.337 -0.2796 -0.3268 -0.1519
  516loPI   C3A 8249  12.863  16.763   9.938  0.1184  0.0698  0.2399
  516loPI   C4A 8250  12.916  16.726   9.515 -0.0153  0.0517  0.2100
  516loPI   C5A 8251  12.926  16.760   9.071  0.2684  0.1923  0.2104
  516loPI   C6A 8252  13.182  16.678   8.623  0.0379 -0.1670  0.1239
  516loPI   C1B 8253  13.371  16.882  10.284  0.1308  0.1016  0.0055
  516loPI   C2B 8254  13.348  16.935   9.840  0.2994 -0.3853  0.0690
  516loPI   C3B 8255  13.414  16.960   9.389 -0.1945  0.3592 -0.1472
  516loPI   C4B 8256  13.523  17.003   8.976 -0.0663 -0.0628  0.0913
  517loPI    C1 8257  10.979  10.946  11.457 -0.3171 -0.0071  0.0323
  517loPI    C2 8258  11.184  11.189  11.699  0.0307 -0.0799 -0.1826
  517loPI    C3 8259  10.889  10.963  11.847 -0.1097  0.2603  0.0714
  517loPI   PO4 8260  11.138  10.995  11.257 -0.1785 -0.2324 -0.1108
  517loPI   GL1 8261  10.996  11.070  10.831 -0.0871  0.0644  0.2620
  517loPI   GL2 8262  10.799  10.799  10.764 -0.1282  0.0317 -0.1992
  517loPI   C1A 8263  11.133  11.322  10.484  0.0628 -0.1870 -0.2875
  517loPI   C2A 8264  11.134  11.336  10.040  0.1424  0.0386  0.0476
  517loPI   C3A 8265  11.216  11.588   9.717 -0.0371 -0.2456 -0.1611
  517loPI   C4A 8266  11.119  11.466   9.344  0.4027  0.1480  0.1332
  517loPI   C5A 8267  11.008  11.443   8.888  0.0895 -0.1124 -0.1610
  517loPI   C6A 8268  10.848  11.528   8.498 -0.0037 -0.1458 -0.0333
  517loPI   C1B 8269  10.690  10.586  10.374  0.1851  0.2271 -0.2424
  517loPI   C2B 8270  10.679  10.573   9.951 -0.2366  0.0883  0.3119
  517loPI   C3B 8271  10.608  10.593   9.478  0.1431  0.0711 -0.1035
  517loPI   C4B 8272  10.600  10.724   9.042 -0.1418 -0.0606  0.0808
  518loPI    C1 8273   4.572   8.871  11.289 -0.0274  0.0521  0.0329
  518loPI    C2 8274   4.740   8.951  11.643  0.2452 -0.0072 -0.0807
  518loPI    C3 8275   4.390   8.759  11.627  0.0766  0.2712  0.1636
  518loPI   PO4 8276   4.690   8.850  11.161  0.1062 -0.2511  0.5550
  518loPI   GL1 8277   4.507   8.829  10.804 -0.2746  0.1468  0.0654
  518loPI   GL2 8278   4.448   9.104  10.696  0.1545  0.2111  0.4393
  518loPI   C1A 8279   4.436   8.645  10.501 -0.3775 -0.0575  0.1312
  518loPI   C2A 8280   4.376   8.593  10.141 -0.0085 -0.2016  0.1628
  518loPI   C3A 8281   4.406   8.749   9.694 -0.1362  0.0559  0.1840
  518loPI   C4A 8282   4.432   8.747   9.270  0.0365 -0.1216  0.0017
  518loPI   C5A 8283   4.265   8.776   8.857  0.2051 -0.0473 -0.0685
  518loPI   C6A 8284   4.341   8.512   8.494  0.1928 -0.0186  0.0012
  518loPI   C1B 8285   4.378   9.114  10.238  0.0164 -0.1331 -0.2183
  518loPI   C2B 8286   4.320   9.204   9.765  0.1852 -0.1744  0.2381
  518loPI   C3B 8287   4.371   9.267   9.409 -0.1777 -0.0856  0.0089
  518loPI   C4B 8288   4.416   9.250   8.944 -0.0524  0.1931 -0.1871
  519loPI    C1 8289  16.691   4.858  11.104 -0.1148 -0.1841 -0.2291
  519loPI    C2 8290  16.741   4.500  11.276  0.2238 -0.0489 -0.0369
  519loPI    C3 8291  16.563   4.796  11.478  0.0378 -0.0763 -0.1583
  519loPI   PO4 8292  16.650   4.892  10.821 -0.1865 -0.1117 -0.1372
  519loPI   GL1 8293  16.451   4.836  10.613  0.2758 -0.0523 -0.1581
  519loPI   GL2 8294  16.271   4.570  10.617  0.1447  0.0727  0.1259
  519loPI   C1A 8295  16.468   4.508  10.182 -0.1190 -0.0682  0.0241
  519loPI   C2A 8296  16.472   4.607   9.655 -0.0101 -0.0319 -0.1962
  519loPI   C3A 8297  16.572   4.709   9.325 -0.4503 -0.2075  0.1290
  519loPI   C4A 8298  16.589   4.730   8.902  0.0304 -0.1454  0.2607
  519loPI   C5A 8299  16.408   4.483   8.472  0.1141  0.1609  0.0461
  519loPI   C6A 8300  16.310   4.046   8.212 -0.1428 -0.0897 -0.1150
  519loPI   C1B 8301  16.065   4.345  10.295 -0.1172 -0.0658 -0.0582
  519loPI   C2B 8302  16.071   4.278   9.872 -0.2176  0.1494 -0.1283
  519loPI   C3B 8303  16.104   4.352   9.506 -0.0519  0.0607  0.1943
  519loPI   C4B 8304  16.110   4.444   9.146 -0.2520  0.1680 -0.0887
  520loPI    C1 8305   9.087  17.559  11.411  0.1711  0.1309 -0.2919
  520loPI    C2 8306   9.308  17.441  11.723 -0.0786  0.0416 -0.1463
  520loPI    C3 8307   9.103  17.785  11.741 -0.2601 -0.0662 -0.1288
  520loPI   PO4 8308   9.231  17.438  11.214  0.3129 -0.1819  0.0475
  520loPI   GL1 8309   9.085  17.158  10.814  0.2656 -0.0219  0.0576
  520loPI   GL2 8310   8.840  16.925  10.772 -0.1114 -0.0676  0.3531
  520loPI   C1A 8311   9.241  17.362  10.504  0.2058 -0.1537  0.1206
  520loPI   C2A 8312   9.367  17.264  10.151 -0.3045  0.2196  0.3564
  520loPI   C3A 8313   9.395  17.323   9.754  0.1440 -0.3411 -0.0446
  520loPI   C4A 8314   9.381  17.202   9.305 -0.1083 -0.2343 -0.0013
  520loPI   C5A 8315   9.272  17.297   8.929 -0.1681  0.1998 -0.0834
  520loPI   C6A 8316   9.097  17.753   8.788  0.1276 -0.1028  0.2687
  520loPI   C1B 8317   8.819  17.091  10.320 -0.0838 -0.0897 -0.5458
  520loPI   C2B 8318   8.950  17.058   9.891  0.2863 -0.0858  0.2802
  520loPI   C3B 8319   8.837  16.948   9.380 -0.1108  0.3122 -0.0623
  520loPI   C4B 8320   8.887  16.986   8.991  0.2307  0.4296  0.0713
  521loPI    C1 8321   3.369   4.248  11.260 -0.0424  0.0451  0.0427
  521loPI    C2 8322   3.221   4.618  11.298  0.1381  0.1313 -0.0760
  521loPI    C3 8323   3.545   4.510  11.506  0.0139 -0.0005  0.0511
  521loPI   PO4 8324   3.455   4.269  11.018 -0.0837  0.1789 -0.0287
  521loPI   GL1 8325   3.337   4.237  10.683 -0.0364 -0.0617  0.2323
  521loPI   GL2 8326   3.046   4.079  10.720 -0.0658  0.2297  0.1412
  521loPI   C1A 8327   3.478   4.185  10.243  0.1822  0.0098 -0.2088
  521loPI   C2A 8328   3.587   3.891   9.846  0.0620  0.0805 -0.2508
  521loPI   C3A 8329   3.660   3.753   9.359 -0.2545  0.1501  0.2847
  521loPI   C4A 8330   3.504   3.851   8.934  0.1984 -0.0319 -0.0624
  521loPI   C5A 8331   3.759   3.742   8.696  0.0324 -0.1676 -0.1096
  521loPI   C6A 8332   3.884   3.901   8.304 -0.0741  0.1863 -0.1403
  521loPI   C1B 8333   2.981   4.091  10.293  0.3019 -0.2726 -0.3157
  521loPI   C2B 8334   3.107   4.052   9.901  0.1120 -0.4187  0.1771
  521loPI   C3B 8335   3.324   4.373   9.696  0.1194 -0.0810  0.1890
  521loPI   C4B 8336   3.241   4.728   9.524  0.2093 -0.1098  0.0120
  522loPI    C1 8337   9.684  12.641  11.264  0.0836  0.0425 -0.1405
  522loPI    C2 8338   9.654  12.285  11.445  0.2778  0.0176 -0.1554
  522loPI    C3 8339   9.668  12.620  11.663 -0.0174  0.0260 -0.1451
  522loPI   PO4 8340   9.868  12.617  11.063  0.2016 -0.1878  0.0682
  522loPI   GL1 8341   9.902  12.757  10.704  0.1022 -0.0992 -0.1213
  522loPI   GL2 8342  10.128  12.926  10.547  0.1446 -0.1932 -0.1486
  522loPI   C1A 8343   9.718  12.748  10.350  0.0158  0.2369 -0.0199
  522loPI   C2A 8344   9.773  12.915   9.876 -0.0170 -0.1350 -0.2867
  522loPI   C3A 8345   9.737  12.770   9.470  0.3492  0.2659  0.1950
  522loPI   C4A 8346   9.707  12.804   8.973 -0.2005 -0.0402 -0.1763
  522loPI   C5A 8347   9.779  12.708   8.548 -0.1815  0.3523  0.2758
  522loPI   C6A 8348   9.963  12.346   8.271 -0.0688  0.0652 -0.1967
  522loPI   C1B 8349  10.106  13.074  10.175  0.3430  0.0876  0.0349
  522loPI   C2B 8350  10.224  13.073   9.657 -0.1274 -0.3087 -0.0180
  522loPI   C3B 8351  10.152  12.985   9.229  0.2435 -0.1570 -0.2561
  522loPI   C4B 8352  10.110  12.993   8.780 -0.3313  0.4167 -0.0163
  523loPI    C1 8353  16.253  13.272  11.415 -0.2207  0.0620  0.0424
  523loPI    C2 8354  16.592  13.104  11.543 -0.1461 -0.0879 -0.3383
  523loPI    C3 8355  16.338  13.266  11.806  0.1288 -0.1413 -0.0323
  523loPI   PO4 8356  16.158  13.298  11.203  0.3137 -0.1281 -0.1898
  523loPI   GL1 8357  16.104  13.402  10.761  0.0451 -0.1438  0.2204
  523loPI   GL2 8358  16.440  13.570  10.781 -0.3222  0.1695  0.1087
  523loPI   C1A 8359  16.045  13.285  10.293  0.2960 -0.1557 -0.3355
  523loPI   C2A 8360  16.008  13.258   9.847 -0.0995 -0.0020 -0.2893
  523loPI   C3A 8361  16.053  13.286   9.406 -0.2720 -0.3923  0.1342
  523loPI   C4A 8362  16.050  13.308   8.959  0.0629 -0.1760  0.0273
  523loPI   C5A 8363  16.350  13.457   8.652  0.2943 -0.1843 -0.2533
  523loPI   C6A 8364  16.657  13.790   8.572  0.1688 -0.0412  0.1390
  523loPI   C1B 8365  16.417  13.566  10.326  0.0987  0.0256 -0.0765
  523loPI   C2B 8366  16.438  13.540   9.883  0.2628 -0.2580 -0.2438
  523loPI   C3B 8367  16.541  13.600   9.498  0.0550  0.0827  0.1220
  523loPI   C4B 8368  16.631  13.543   9.013  0.1308  0.2707 -0.2057
  524loPI    C1 8369   1.526   2.628  11.798  0.0734 -0.2878 -0.2135
  524loPI    C2 8370   1.476   2.271  11.971  0.1373 -0.1176  0.1660
  524loPI    C3 8371   1.195   2.553  12.009 -0.0080 -0.1905 -0.3055
  524loPI   PO4 8372   1.616   2.643  11.574 -0.1361  0.3190  0.1834
  524loPI   GL1 8373   1.694   2.746  11.126  0.0809 -0.1355 -0.2595
  524loPI   GL2 8374   1.800   2.482  10.947  0.1219 -0.1312  0.0355
  524loPI   C1A 8375   1.427   2.650  10.735 -0.1390  0.2034 -0.1137
  524loPI   C2A 8376   1.324   2.495  10.303 -0.1348 -0.1791 -0.3519
  524loPI   C3A 8377   1.365   2.555   9.882 -0.3064 -0.0269 -0.2083
  524loPI   C4A 8378   1.388   2.496   9.550  0.1512  0.3639  0.0810
  524loPI   C5A 8379   1.469   2.572   9.011 -0.0258  0.3482 -0.0727
  524loPI   C6A 8380   1.663   2.507   8.651 -0.1025  0.1525  0.3738
  524loPI   C1B 8381   1.743   2.332  10.490  0.0411  0.2204  0.2257
  524loPI   C2B 8382   1.774   2.326  10.062  0.5234 -0.0441  0.5570
  524loPI   C3B 8383   1.861   2.236   9.665  0.4391 -0.0683 -0.1310
  524loPI   C4B 8384   1.781   2.229   9.194 -0.3532 -0.1260 -0.1332
  525loPI    C1 8385   3.165  14.477  11.283 -0.0883 -0.1346  0.1380
  525loPI    C2 8386   3.232  14.853  11.400 -0.1640 -0.0673 -0.0319
  525loPI    C3 8387   3.326  14.549  11.642 -0.1694  0.0630  0.1359
  525loPI   PO4 8388   3.000  14.508  11.115 -0.3687  0.1871 -0.2611
  525loPI   GL1 8389   3.017  14.603  10.669  0.1438  0.1403  0.1165
  525loPI   GL2 8390   2.697  14.880  10.653 -0.1519 -0.0546 -0.0497
  525loPI   C1A 8391   3.025  14.601  10.213 -0.0122  0.1414 -0.0364
  525loPI   C2A 8392   3.064  14.711   9.723 -0.1152 -0.0747 -0.1540
  525loPI   C3A 8393   3.189  14.685   9.303 -0.1149  0.0580 -0.2974
  525loPI   C4A 8394   3.045  14.682   8.825 -0.1687 -0.2709 -0.1524
  525loPI   C5A 8395   2.819  14.548   8.487  0.2218  0.0271  0.0949
  525loPI   C6A 8396   2.568  14.142   8.494  0.1183 -0.2368 -0.1916
  525loPI   C1B 8397   2.672  14.976  10.201 -0.2483  0.0035 -0.1912
  525loPI   C2B 8398   2.616  14.934   9.832  0.4304  0.2696  0.0576
  525loPI   C3B 8399   2.635  15.048   9.409 -0.1373 -0.1292  0.1114
  525loPI   C4B 8400   2.633  15.046   8.946 -0.0440  0.1104 -0.2111
  526loPI    C1 8401  14.838  15.009  11.484  0.0747 -0.0721  0.1339
  526loPI    C2 8402  15.093  14.785  11.696  0.2442 -0.0810 -0.0751
  526loPI    C3 8403  15.183  15.166  11.614 -0.0682  0.0870  0.3265
  526loPI   PO4 8404  14.830  14.961  11.284 -0.1777 -0.0219  0.0575
  526loPI   GL1 8405  15.022  14.887  10.889 -0.1893  0.0034  0.0451
  526loPI   GL2 8406  14.886  15.191  10.839  0.1579 -0.0775  0.0119
  526loPI   C1A 8407  15.076  14.906  10.417  0.1342  0.3542  0.0115
  526loPI   C2A 8408  15.112  14.890   9.844  0.2045  0.1538  0.1152
  526loPI   C3A 8409  15.161  14.797   9.433 -0.1357 -0.0642  0.0286
  526loPI   C4A 8410  15.132  14.855   8.995 -0.1039  0.1500 -0.0836
  526loPI   C5A 8411  15.012  14.901   8.590  0.0576  0.0652 -0.0606
  526loPI   C6A 8412  15.230  14.613   8.415  0.1204 -0.2702  0.3634
  526loPI   C1B 8413  14.651  15.168  10.397  0.2311  0.0888 -0.1388
  526loPI   C2B 8414  14.643  15.196   9.959  0.0654 -0.2562 -0.1007
  526loPI   C3B 8415  14.697  15.104   9.482  0.1258 -0.2263 -0.3572
  526loPI   C4B 8416  14.709  15.123   9.093  0.2153  0.0636  0.2122
  527loPI    C1 8417   2.732  11.629  11.829 -0.0484  0.1820  0.1831
  527loPI    C2 8418   2.968  11.378  12.033 -0.1022  0.1112  0.1583
  527loPI    C3 8419   3.046  11.770  12.034  0.2702  0.0454 -0.1971
  527loPI   PO4 8420   2.667  11.501  11.582 -0.0254  0.0550 -0.0227
  527loPI   GL1 8421   2.530  11.520  11.163 -0.0030 -0.1807 -0.0509
  527loPI   GL2 8422   2.381  11.209  11.028 -0.1477  0.1142  0.0741
  527loPI   C1A 8423   2.638  11.813  10.729  0.3494 -0.1341  0.4166
  527loPI   C2A 8424   2.608  11.802  10.312  0.0206 -0.0351 -0.0015
  527loPI   C3A 8425   2.615  11.740   9.906 -0.5371 -0.1650 -0.1003
  527loPI   C4A 8426   2.628  11.821   9.509 -0.2645  0.0737 -0.2441
  527loPI   C5A 8427   2.540  11.747   9.052  0.3226  0.1590  0.0093
  527loPI   C6A 8428   2.466  12.121   8.716 -0.0022 -0.0316 -0.0033
  527loPI   C1B 8429   2.602  11.289  10.674  0.1213 -0.2831 -0.1764
  527loPI   C2B 8430   2.632  11.238  10.207  0.1610  0.1021  0.0562
  527loPI   C3B 8431   2.556  11.241   9.725 -0.1919  0.2781 -0.0368
  527loPI   C4B 8432   2.647  11.262   9.292 -0.1197 -0.0273 -0.0539
  528loPI    C1 8433  10.545  17.435  11.383  0.0784 -0.1655  0.1528
  528loPI    C2 8434  10.625  17.418  11.774 -0.0600 -0.2610  0.1776
  528loPI    C3 8435  10.246  17.407  11.647 -0.0346  0.1104  0.0585
  528loPI   PO4 8436  10.606  17.206  11.233  0.3493  0.1358  0.0472
  528loPI   GL1 8437  10.635  17.100  10.783  0.0170  0.0250  0.0262
  528loPI   GL2 8438  10.600  17.459  10.813  0.1782 -0.0904  0.1417
  528loPI   C1A 8439  10.716  17.108  10.238  0.1607 -0.2395  0.0239
  528loPI   C2A 8440  10.774  17.076   9.812 -0.0959 -0.0853  0.1088
  528loPI   C3A 8441  10.769  17.029   9.326 -0.0102 -0.1385  0.2901
  528loPI   C4A 8442  10.787  17.073   8.888  0.0455  0.2827  0.0445
  528loPI   C5A 8443  10.824  17.113   8.405  0.2116 -0.3278  0.2079
  528loPI   C6A 8444  10.546  17.251   8.089 -0.0412  0.1483  0.0757
  528loPI   C1B 8445  10.684  17.529  10.427  0.3322 -0.0734 -0.0335
  528loPI   C2B 8446  10.634  17.551   9.950 -0.3581  0.0544  0.1883
  528loPI   C3B 8447  10.666  17.548   9.596  0.1244 -0.2505 -0.1031
  528loPI   C4B 8448  10.743  17.533   9.115 -0.0814  0.1000  0.4210
  529loPI    C1 8449   3.411   7.981  11.067 -0.1020 -0.1259  0.0457
  529loPI    C2 8450   3.152   7.886  11.357 -0.0606 -0.0926  0.0939
  529loPI    C3 8451   3.545   7.845  11.419 -0.0520 -0.0953  0.0387
  529loPI   PO4 8452   3.301   7.812  10.858  0.0824  0.0523  0.0896
  529loPI   GL1 8453   3.128   7.824  10.593  0.2104 -0.2465  0.1403
  529loPI   GL2 8454   2.785   7.781  10.710  0.1656 -0.0675  0.0167
  529loPI   C1A 8455   3.055   7.892  10.106 -0.0358  0.0708 -0.0655
  529loPI   C2A 8456   3.064   7.935   9.668  0.3169  0.2639 -0.0103
  529loPI   C3A 8457   3.110   7.898   9.283 -0.1030  0.1585  0.2960
  529loPI   C4A 8458   3.064   7.881   8.846 -0.2239 -0.2772  0.0420
  529loPI   C5A 8459   2.906   8.302   8.609 -0.2145  0.1078 -0.1096
  529loPI   C6A 8460   2.545   8.339   8.421 -0.0577 -0.0710 -0.0552
  529loPI   C1B 8461   2.650   7.566  10.318  0.0581  0.2130  0.0672
  529loPI   C2B 8462   2.640   7.654   9.866  0.1210  0.0642  0.2494
  529loPI   C3B 8463   2.716   7.611   9.413  0.0558 -0.0347  0.2787
  529loPI   C4B 8464   2.672   7.570   8.948  0.0792 -0.0207 -0.2795
  530loPI    C1 8465  16.815  11.087  11.311  0.0420 -0.2642  0.0278
  530loPI    C2 8466  16.599  11.104  11.648  0.1506 -0.0419  0.0878
  530loPI    C3 8467  16.938  10.892  11.638  0.1193 -0.0926  0.1023
  530loPI   PO4 8468  16.650  11.215  11.138 -0.0394 -0.1354  0.0996
  530loPI   GL1 8469  16.698  11.349  10.717 -0.0030 -0.0574 -0.0715
  530loPI   GL2 8470  17.002  11.207  10.462  0.1447 -0.0703  0.1824
  530loPI   C1A 8471  16.478  11.379  10.371 -0.2375 -0.0394  0.0777
  530loPI   C2A 8472  16.522  11.529   9.933 -0.2474  0.0699  0.2483
  530loPI   C3A 8473  16.524  11.611   9.433 -0.2141 -0.0072 -0.1056
  530loPI   C4A 8474  16.490  11.682   8.943  0.0039 -0.0739 -0.0838
  530loPI   C5A 8475  16.420  11.600   8.548  0.1719 -0.0735 -0.0837
  530loPI   C6A 8476  16.523  11.520   8.017  0.0565 -0.0194 -0.2920
  530loPI   C1B 8477  16.982  11.224  10.001  0.2230 -0.0820 -0.0309
  530loPI   C2B 8478  16.918  11.377   9.683  0.2764  0.1404  0.0433
  530loPI   C3B 8479  16.998  11.339   9.166 -0.0368  0.0415 -0.1071
  530loPI   C4B 8480  17.074  11.254   8.800  0.0927  0.4813  0.0504
  531loPI    C1 8481  12.445   2.150  11.298 -0.2147  0.1276 -0.0384
  531loPI    C2 8482  12.657   2.018  11.611 -0.1573  0.1431 -0.0704
  531loPI    C3 8483  12.265   2.089  11.650 -0.1773  0.0173 -0.0379
  531loPI   PO4 8484  12.496   1.951  11.114  0.1269 -0.0413 -0.2701
  531loPI   GL1 8485  12.411   1.965  10.726  0.0399  0.0298 -0.1063
  531loPI   GL2 8486  12.491   2.323  10.655  0.0265 -0.1990 -0.1849
  531loPI   C1A 8487  12.488   1.659  10.443 -0.1298  0.2577 -0.1359
  531loPI   C2A 8488  12.496   1.679  10.060  0.0552  0.1452 -0.0003
  531loPI   C3A 8489  12.518   1.623   9.600 -0.1046  0.0590  0.0061
  531loPI   C4A 8490  12.610   1.717   9.222  0.0317  0.0253  0.2073
  531loPI   C5A 8491  12.555   1.589   8.880  0.1455  0.0181  0.1836
  531loPI   C6A 8492  12.197   1.604   8.565 -0.0453  0.0912 -0.1668
  531loPI   C1B 8493  12.449   2.210  10.207 -0.0078 -0.2069  0.1823
  531loPI   C2B 8494  12.626   2.138   9.751 -0.3231 -0.0266  0.0208
  531loPI   C3B 8495  12.639   2.214   9.356 -0.0749 -0.0188  0.0041
  531loPI   C4B 8496  12.486   2.269   8.948  0.1650 -0.5072 -0.0822
  532loPI    C1 8497  13.081  14.858  11.545 -0.2643 -0.2170 -0.2049
  532loPI    C2 8498  13.421  14.801  11.747 -0.1334 -0.2628 -0.4342
  532loPI    C3 8499  13.158  15.075  11.871 -0.0036 -0.2123 -0.2675
  532loPI   PO4 8500  13.086  14.938  11.269  0.2455 -0.1491  0.0727
  532loPI   GL1 8501  13.150  15.247  11.046  0.2750  0.2879 -0.5023
  532loPI   GL2 8502  13.008  15.571  10.922  0.1062 -0.0317  0.0963
  532loPI   C1A 8503  13.367  15.335  10.642  0.2216  0.1420  0.2621
  532loPI   C2A 8504  13.351  15.418  10.240  0.0337 -0.1713  0.2591
  532loPI   C3A 8505  13.264  15.325   9.845 -0.1628 -0.0672 -0.2132
  532loPI   C4A 8506  13.412  15.341   9.537 -0.2680  0.0774 -0.1179
  532loPI   C5A 8507  13.406  15.404   9.010  0.1931  0.0441 -0.2298
  532loPI   C6A 8508  13.523  15.046   8.675  0.0304  0.2436  0.0282
  532loPI   C1B 8509  12.964  15.616  10.441  0.1176  0.1826  0.2037
  532loPI   C2B 8510  12.902  15.739   9.999 -0.0286 -0.2137 -0.2060
  532loPI   C3B 8511  12.860  15.541   9.608 -0.3635 -0.0289  0.1514
  532loPI   C4B 8512  12.890  15.615   9.164 -0.2626  0.0838  0.2166
  533loPI    C1 8513  11.747  14.673  11.299 -0.1843  0.3234  0.0193
  533loPI    C2 8514  11.596  14.969  11.522 -0.1305  0.3237  0.0555
  533loPI    C3 8515  11.870  14.722  11.676  0.1437  0.5204 -0.1095
  533loPI   PO4 8516  11.700  14.840  11.009  0.0999 -0.2741  0.0282
  533loPI   GL1 8517  11.666  15.126  10.666 -0.0980  0.0760 -0.0851
  533loPI   GL2 8518  11.507  14.761  10.555 -0.2644  0.0285  0.2265
  533loPI   C1A 8519  11.598  15.393  10.282  0.0605  0.3064  0.4141
  533loPI   C2A 8520  11.478  15.434   9.842 -0.2240 -0.1246 -0.2780
  533loPI   C3A 8521  11.608  15.450   9.320 -0.2430  0.1702 -0.1233
  533loPI   C4A 8522  11.770  15.399   8.949  0.1639 -0.1578  0.4920
  533loPI   C5A 8523  12.052  15.262   8.628  0.0136 -0.2071  0.0892
  533loPI   C6A 8524  12.185  15.659   8.276  0.0139  0.0770  0.3057
  533loPI   C1B 8525  11.534  14.900  10.126  0.4635 -0.0711  0.1489
  533loPI   C2B 8526  11.468  14.887   9.672  0.0456  0.2170 -0.0483
  533loPI   C3B 8527  11.511  14.756   9.175 -0.0413  0.0459 -0.0244
  533loPI   C4B 8528  11.419  14.708   8.753 -0.3494  0.0590  0.0178
  534loPI    C1 8529  15.849   5.904  11.184  0.0625 -0.0175  0.0741
  534loPI    C2 8530  15.508   5.772  11.348 -0.1219  0.2154 -0.1138
  534loPI    C3 8531  15.775   5.970  11.571 -0.1894  0.1845 -0.0052
  534loPI   PO4 8532  15.814   5.867  10.933  0.1849 -0.0750 -0.4536
  534loPI   GL1 8533  15.744   5.636  10.657 -0.0628  0.1169  0.1441
  534loPI   GL2 8534  15.574   5.704  10.497 -0.1338  0.1136 -0.2475
  534loPI   C1A 8535  15.978   5.461  10.262 -0.0899 -0.2510 -0.0912
  534loPI   C2A 8536  16.103   5.342   9.943  0.3280 -0.2403 -0.0480
  534loPI   C3A 8537  16.054   5.369   9.539  0.0428 -0.0401  0.4867
  534loPI   C4A 8538  16.186   5.511   9.181 -0.0350 -0.1740  0.1674
  534loPI   C5A 8539  16.178   5.515   8.788  0.1855 -0.0040 -0.2881
  534loPI   C6A 8540  15.945   5.312   8.577  0.1106  0.1836 -0.2982
  534loPI   C1B 8541  15.545   5.679  10.089  0.1608  0.1717 -0.2037
  534loPI   C2B 8542  15.557   5.732   9.651  0.3339  0.0401  0.2870
  534loPI   C3B 8543  15.673   5.749   9.201 -0.0029 -0.0587 -0.1622
  534loPI   C4B 8544  15.704   5.735   8.817  0.0788 -0.0980  0.1459
  535loPI    C1 8545   1.188  11.137  11.603  0.1695  0.1387  0.0211
  535loPI    C2 8546   1.114  10.777  11.760 -0.0837  0.2636  0.1962
  535loPI    C3 8547   1.483  10.929  11.774  0.0501 -0.0351  0.0186
  535loPI   PO4 8548   1.182  11.150  11.328 -0.1663  0.1865  0.2511
  535loPI   GL1 8549   1.373  11.220  10.913  0.0323  0.1413  0.1479
  535loPI   GL2 8550   1.643  11.330  10.759  0.1422  0.1949 -0.0764
  535loPI   C1A 8551   1.299  11.017  10.504 -0.2677 -0.2089  0.1386
  535loPI   C2A 8552   1.312  11.045  10.052 -0.1310  0.1197 -0.0661
  535loPI   C3A 8553   1.270  11.068   9.611  0.1864  0.0894 -0.1258
  535loPI   C4A 8554   1.221  10.927   9.109 -0.0557  0.0970 -0.0833
  535loPI   C5A 8555   1.282  10.946   8.724  0.1551 -0.0075  0.0034
  535loPI   C6A 8556   1.146  10.842   8.374  0.1628 -0.1260 -0.1336
  535loPI   C1B 8557   1.724  11.331  10.205  0.0518 -0.3831  0.0008
  535loPI   C2B 8558   1.728  11.259   9.780 -0.2568  0.2862 -0.0758
  535loPI   C3B 8559   1.674  11.195   9.283 -0.0384  0.0400  0.1557
  535loPI   C4B 8560   1.603  11.316   8.861 -0.1738 -0.0401 -0.0406
  536loPI    C1 8561   7.328   1.337  11.116 -0.0213  0.1753 -0.0234
  536loPI    C2 8562   6.948   1.415  11.212 -0.0003  0.1630  0.0710
  536loPI    C3 8563   7.240   1.496  11.473  0.0467  0.0202  0.0635
  536loPI   PO4 8564   7.223   1.186  10.888  0.1486  0.0031 -0.1027
  536loPI   GL1 8565   7.205   1.147  10.451  0.2825  0.0169 -0.0067
  536loPI   GL2 8566   6.873   1.269  10.293  0.2482  0.1255 -0.4259
  536loPI   C1A 8567   7.540   1.007  10.181 -0.2064  0.3347  0.2307
  536loPI   C2A 8568   7.585   0.854   9.764 -0.1290 -0.2915 -0.3001
  536loPI   C3A 8569   7.497   0.897   9.322 -0.2430 -0.2197 -0.0330
  536loPI   C4A 8570   7.560   1.007   8.883  0.1262 -0.0553  0.2053
  536loPI   C5A 8571   7.734   1.173   8.479 -0.2149  0.1692 -0.0609
  536loPI   C6A 8572   7.902   1.479   8.286 -0.0218 -0.1932 -0.3007
  536loPI   C1B 8573   7.107   1.097   9.926 -0.0484 -0.3396 -0.1732
  536loPI   C2B 8574   7.083   1.124   9.491 -0.3430 -0.0723 -0.3008
  536loPI   C3B 8575   7.052   1.283   9.167  0.0099 -0.4193  0.0432
  536loPI   C4B 8576   7.118   1.234   8.693  0.0745 -0.4308 -0.1330
  537loPI    C1 8577  14.757  11.671  11.343  0.1085  0.0219  0.0869
  537loPI    C2 8578  14.637  11.911  11.639  0.0117  0.0596  0.0175
  537loPI    C3 8579  14.773  11.545  11.723 -0.1338  0.0233  0.0992
  537loPI   PO4 8580  14.577  11.727  11.155 -0.1472 -0.4008 -0.1897
  537loPI   GL1 8581  14.460  11.689  10.736 -0.1095 -0.0680  0.0199
  537loPI   GL2 8582  14.679  11.717  10.618  0.1757  0.1324 -0.2221
  537loPI   C1A 8583  14.253  11.655  10.256 -0.2396 -0.0589  0.0439
  537loPI   C2A 8584  14.145  11.710   9.884  0.1161  0.0754 -0.0356
  537loPI   C3A 8585  14.352  11.657   9.525 -0.1606 -0.0002  0.1087
  537loPI   C4A 8586  14.290  11.726   9.158  0.0102 -0.0449 -0.0840
  537loPI   C5A 8587  14.335  11.941   8.763  0.0285  0.1176  0.1181
  537loPI   C6A 8588  14.356  12.150   8.351  0.3206 -0.0443  0.0769
  537loPI   C1B 8589  14.687  11.911  10.202  0.4369 -0.0898 -0.1647
  537loPI   C2B 8590  14.722  11.942   9.776 -0.1305  0.1894  0.0727
  537loPI   C3B 8591  14.689  11.987   9.279 -0.1581 -0.1171  0.0721
  537loPI   C4B 8592  14.805  11.906   8.899 -0.0349 -0.1337 -0.0234
  538loPI    C1 8593  14.678  15.966  11.510 -0.0382  0.2131 -0.1629
  538loPI    C2 8594  14.409  15.696  11.388 -0.0825  0.1293  0.1139
  538loPI    C3 8595  14.319  15.946  11.687  0.0163  0.3457 -0.0355
  538loPI   PO4 8596  14.769  16.060  11.211  0.2399 -0.1553 -0.0495
  538loPI   GL1 8597  14.974  15.949  10.898 -0.0579 -0.0530  0.4101
  538loPI   GL2 8598  15.080  15.658  10.831  0.0851 -0.1643  0.0001
  538loPI   C1A 8599  15.056  15.938  10.394 -0.1485  0.0888  0.0193
  538loPI   C2A 8600  15.099  15.933   9.902 -0.3524  0.0858  0.0705
  538loPI   C3A 8601  15.198  15.916   9.515 -0.1018  0.1199 -0.1623
  538loPI   C4A 8602  15.152  15.882   9.058  0.1323 -0.1052  0.0607
  538loPI   C5A 8603  15.256  15.953   8.644  0.0472  0.1246  0.1939
  538loPI   C6A 8604  15.298  16.075   8.147  0.1368  0.1918 -0.2555
  538loPI   C1B 8605  15.085  15.446  10.448  0.1757  0.4458 -0.1521
  538loPI   C2B 8606  15.140  15.348  10.082 -0.1927 -0.1195  0.0227
  538loPI   C3B 8607  15.163  15.362   9.678  0.0629 -0.1920  0.3067
  538loPI   C4B 8608  15.150  15.259   9.294  0.1007 -0.3333  0.0217
  539loPI    C1 8609  10.544   1.006  11.514  0.1719  0.0568  0.1941
  539loPI    C2 8610  10.834   0.752  11.620  0.0355 -0.0773  0.2499
  539loPI    C3 8611  10.499   0.776  11.838 -0.1182 -0.1348  0.0227
  539loPI   PO4 8612  10.635   1.059  11.172  0.1529  0.1949  0.4142
  539loPI   GL1 8613  10.369   1.164  10.840 -0.1109  0.0753 -0.0265
  539loPI   GL2 8614  10.707   1.258  10.709  0.1882 -0.1371  0.0270
  539loPI   C1A 8615  10.231   0.963  10.492  0.1896  0.0008 -0.0224
  539loPI   C2A 8616  10.243   0.965  10.070  0.1065  0.0673 -0.0628
  539loPI   C3A 8617  10.202   0.827   9.617  0.1488  0.2030 -0.0245
  539loPI   C4A 8618  10.161   0.838   9.179  0.1425  0.1142  0.2269
  539loPI   C5A 8619  10.118   0.971   8.828  0.0277  0.1454  0.1509
  539loPI   C6A 8620   9.782   1.046   8.400 -0.1062  0.3356  0.2340
  539loPI   C1B 8621  10.634   1.312  10.234  0.1412  0.0469 -0.3090
  539loPI   C2B 8622  10.680   1.191   9.851  0.1235 -0.1067 -0.3287
  539loPI   C3B 8623  10.587   1.131   9.463  0.0113  0.2555  0.1416
  539loPI   C4B 8624  10.699   1.194   8.942  0.0802 -0.0063 -0.0427
  540loPI    C1 8625  11.433   2.759  11.306  0.0590 -0.0512  0.2151
  540loPI    C2 8626  11.498   2.966  11.641  0.0474  0.0693  0.1433
  540loPI    C3 8627  11.631   2.590  11.610 -0.0512  0.0178  0.3258
  540loPI   PO4 8628  11.131   2.775  11.261 -0.0925 -0.5659 -0.2201
  540loPI   GL1 8629  10.939   2.501  10.987  0.1939  0.2965  0.3536
  540loPI   GL2 8630  11.205   2.529  10.848  0.0441 -0.3424  0.0330
  540loPI   C1A 8631  10.728   2.354  10.639 -0.1465 -0.2927  0.2282
  540loPI   C2A 8632  10.709   2.267  10.238  0.4586 -0.1034 -0.1563
  540loPI   C3A 8633  10.735   2.276   9.772 -0.0200 -0.2073  0.3242
  540loPI   C4A 8634  10.665   2.161   9.372 -0.1176  0.0594 -0.0255
  540loPI   C5A 8635  10.718   2.202   9.007 -0.1747 -0.0859 -0.0229
  540loPI   C6A 8636  10.425   2.204   8.641  0.1307  0.0990 -0.2726
  540loPI   C1B 8637  11.148   2.591  10.379 -0.2146  0.1307  0.0297
  540loPI   C2B 8638  11.266   2.471   9.894  0.0270 -0.1392  0.2232
  540loPI   C3B 8639  11.212   2.381   9.468  0.0490  0.1065 -0.1773
  540loPI   C4B 8640  11.160   2.686   9.140 -0.2738  0.0329 -0.1085
  541loPI    C1 8641  16.188   6.411  11.052  0.0748 -0.1519  0.2881
  541loPI    C2 8642  16.054   6.329  11.420 -0.0213  0.0293  0.2950
  541loPI    C3 8643  16.060   6.707  11.289  0.1903 -0.0126  0.1788
  541loPI   PO4 8644  16.063   6.285  10.866  0.2535 -0.0758 -0.4116
  541loPI   GL1 8645  15.863   6.178  10.544  0.3126 -0.1498 -0.1168
  541loPI   GL2 8646  16.008   5.983  10.392  0.0633  0.0058 -0.2522
  541loPI   C1A 8647  15.965   6.419  10.151  0.3203  0.0612  0.3563
  541loPI   C2A 8648  16.040   6.453   9.704 -0.0035  0.2667  0.3897
  541loPI   C3A 8649  16.069   6.545   9.272  0.1232  0.0493 -0.1788
  541loPI   C4A 8650  16.179   6.654   8.863  0.1468  0.0585 -0.0229
  541loPI   C5A 8651  16.216   6.494   8.403 -0.1167 -0.2588 -0.0760
  541loPI   C6A 8652  16.322   6.311   8.047 -0.1593 -0.0099  0.0907
  541loPI   C1B 8653  16.067   6.007   9.924  0.0921 -0.0091  0.2378
  541loPI   C2B 8654  16.045   6.003   9.442 -0.1307 -0.0874 -0.2283
  541loPI   C3B 8655  16.127   6.061   8.933  0.2540  0.1694  0.2814
  541loPI   C4B 8656  16.190   5.848   8.436 -0.3480 -0.0452 -0.0621
  542loPI    C1 8657   2.257   3.779  11.318  0.0064  0.1776  0.0339
  542loPI    C2 8658   2.216   3.960  11.673 -0.0033 -0.0740  0.1631
  542loPI    C3 8659   2.581   3.888  11.526  0.0008  0.2309  0.0152
  542loPI   PO4 8660   2.138   3.519  11.195 -0.0008  0.3032 -0.5056
  542loPI   GL1 8661   1.978   3.485  10.818 -0.0002 -0.0564  0.0411
  542loPI   GL2 8662   2.027   3.743  10.596  0.2483 -0.0422 -0.0706
  542loPI   C1A 8663   1.763   3.408  10.338 -0.2828 -0.2279 -0.2163
  542loPI   C2A 8664   1.840   3.293   9.946 -0.2856 -0.3308  0.1050
  542loPI   C3A 8665   1.885   3.345   9.519 -0.0652  0.0964 -0.3664
  542loPI   C4A 8666   1.930   3.264   9.113  0.2640  0.1956 -0.1599
  542loPI   C5A 8667   1.760   3.032   8.727  0.0333  0.1066  0.1831
  542loPI   C6A 8668   1.940   2.796   8.345 -0.1620  0.1642 -0.0900
  542loPI   C1B 8669   2.169   3.668  10.112  0.2219 -0.0466  0.2034
  542loPI   C2B 8670   2.298   3.525   9.719 -0.3776  0.1152 -0.1363
  542loPI   C3B 8671   2.314   3.514   9.311  0.0840  0.5412  0.0949
  542loPI   C4B 8672   2.339   3.530   8.813  0.0569 -0.1823  0.0856
  543loPI    C1 8673  15.395  17.313  11.675  0.1112 -0.0430 -0.1019
  543loPI    C2 8674  15.781  17.346  11.776  0.1111  0.1291 -0.1540
  543loPI    C3 8675  15.570  17.027  11.892  0.2683  0.0354 -0.1233
  543loPI   PO4 8676  15.342  17.456  11.409 -0.0971 -0.0679  0.0680
  543loPI   GL1 8677  15.034  17.612  11.077 -0.2331 -0.1165 -0.1218
  543loPI   GL2 8678  15.125  17.368  10.965  0.1404  0.2322  0.2703
  543loPI   C1A 8679  14.757  17.616  10.805  0.0208 -0.0654  0.1705
  543loPI   C2A 8680  14.644  17.651  10.368 -0.2706  0.2800 -0.2544
  543loPI   C3A 8681  14.719  17.792   9.950 -0.0629 -0.0608 -0.4934
  543loPI   C4A 8682  14.708  17.815   9.527 -0.0291  0.0325 -0.1776
  543loPI   C5A 8683  14.754  17.770   9.155  0.3533  0.0410  0.0286
  543loPI   C6A 8684  14.906  17.427   8.862 -0.1835 -0.0036 -0.2192
  543loPI   C1B 8685  15.154  17.446  10.554  0.2342  0.1152  0.1002
  543loPI   C2B 8686  15.196  17.449  10.047 -0.2559  0.0095 -0.1004
  543loPI   C3B 8687  15.055  17.495   9.695  0.0148  0.1113 -0.1733
  543loPI   C4B 8688  15.176  17.496   9.303 -0.0325  0.0270  0.4079
  544loPI    C1 8689   1.538  16.396  11.702  0.0806  0.0384 -0.2299
  544loPI    C2 8690   1.797  16.619  11.909  0.0281 -0.0380 -0.0801
  544loPI    C3 8691   1.633  16.296  12.077 -0.1053 -0.0344 -0.2011
  544loPI   PO4 8692   1.660  16.387  11.447  0.2095 -0.0635  0.0141
  544loPI   GL1 8693   1.585  16.340  10.969 -0.0472 -0.1137  0.1061
  544loPI   GL2 8694   1.691  16.598  10.778  0.2171 -0.0375 -0.1939
  544loPI   C1A 8695   1.270  16.296  10.681 -0.0738  0.4188 -0.0078
  544loPI   C2A 8696   1.232  16.176  10.188 -0.1509  0.0761  0.3994
  544loPI   C3A 8697   1.231  16.199   9.765 -0.2745  0.2358 -0.0890
  544loPI   C4A 8698   1.218  16.147   9.326 -0.2134 -0.0650 -0.2303
  544loPI   C5A 8699   1.335  16.211   8.926  0.0124  0.0879 -0.1507
  544loPI   C6A 8700   1.352  16.355   8.484  0.2113 -0.2216  0.1269
  544loPI   C1B 8701   1.635  16.461  10.419  0.0047 -0.1472 -0.1154
  544loPI   C2B 8702   1.660  16.425  10.077  0.1582 -0.1153  0.0736
  544loPI   C3B 8703   1.656  16.393   9.622  0.1046  0.0718 -0.5020
  544loPI   C4B 8704   1.677  16.452   9.196  0.1345  0.1660  0.0414
  545loPI    C1 8705   2.549  10.532  11.624 -0.1318  0.0740  0.0933
  545loPI    C2 8706   2.392  10.732  11.932 -0.2276 -0.0356  0.1161
  545loPI    C3 8707   2.666  10.448  11.997  0.0040  0.1748  0.0745
  545loPI   PO4 8708   2.625  10.664  11.430  0.0499 -0.1577 -0.2837
  545loPI   GL1 8709   2.769  10.747  11.130  0.0258  0.0878  0.0042
  545loPI   GL2 8710   2.950  10.609  11.019 -0.1116 -0.2321  0.0268
  545loPI   C1A 8711   2.585  10.761  10.696 -0.0713 -0.0428 -0.0387
  545loPI   C2A 8712   2.597  10.719  10.319  0.0203 -0.0527 -0.0556
  545loPI   C3A 8713   2.608  10.644   9.891  0.2641 -0.2948  0.0103
  545loPI   C4A 8714   2.605  10.761   9.443  0.0112 -0.0987 -0.0006
  545loPI   C5A 8715   2.588  10.897   8.983 -0.1832  0.0064  0.2158
  545loPI   C6A 8716   2.685  11.339   8.714 -0.1709  0.2640 -0.0548
  545loPI   C1B 8717   2.988  10.521  10.601  0.3917  0.1030  0.4037
  545loPI   C2B 8718   3.054  10.477  10.160 -0.3034  0.0532  0.1515
  545loPI   C3B 8719   3.025  10.545   9.673  0.1068  0.4373 -0.1980
  545loPI   C4B 8720   2.948  10.544   9.139 -0.3631 -0.0592 -0.1882
  546loPI    C1 8721  16.864  10.200  11.322 -0.0760  0.0845  0.2576
  546loPI    C2 8722  17.221  10.171  11.499 -0.0378 -0.0813  0.1559
  546loPI    C3 8723  16.948   9.883  11.550 -0.0127 -0.1493 -0.0832
  546loPI   PO4 8724  16.910  10.202  11.002  0.0238 -0.1056  0.0399
  546loPI   GL1 8725  16.912  10.202  10.498  0.3265 -0.0865  0.3824
  546loPI   GL2 8726  16.819   9.840  10.520  0.1998  0.1160  0.1975
  546loPI   C1A 8727  16.901  10.299  10.095 -0.1747 -0.3021 -0.1727
  546loPI   C2A 8728  17.001  10.212   9.694  0.0545  0.1331 -0.2253
  546loPI   C3A 8729  16.960  10.180   9.299  0.2788 -0.1444 -0.1275
  546loPI   C4A 8730  17.007  10.133   8.929  0.0817 -0.0626  0.1700
  546loPI   C5A 8731  16.886   9.951   8.531  0.1940  0.0681 -0.1628
  546loPI   C6A 8732  16.782  10.180   8.148  0.0981  0.1743 -0.0814
  546loPI   C1B 8733  16.595   9.928  10.082  0.1371  0.3885 -0.0587
  546loPI   C2B 8734  16.461   9.987   9.625 -0.2688 -0.0612 -0.2695
  546loPI   C3B 8735  16.459   9.996   9.173 -0.2355 -0.3305  0.0267
  546loPI   C4B 8736  16.454   9.855   8.827  0.1172  0.0030  0.1852
  547loPI    C1 8737   4.637  12.295  11.262 -0.0899 -0.1945 -0.0940
  547loPI    C2 8738   4.296  12.269  11.469 -0.0033 -0.0991  0.0631
  547loPI    C3 8739   4.619  12.436  11.636  0.0141  0.1558 -0.2164
  547loPI   PO4 8740   4.528  12.151  11.019  0.0189  0.1744  0.0073
  547loPI   GL1 8741   4.785  12.032  10.706  0.2459  0.0095  0.2094
  547loPI   GL2 8742   5.089  11.770  10.673 -0.0086 -0.0263 -0.0166
  547loPI   C1A 8743   4.861  12.055  10.201  0.1456  0.0881  0.0655
  547loPI   C2A 8744   4.852  12.062   9.787  0.0350  0.0834 -0.2188
  547loPI   C3A 8745   4.841  12.024   9.325 -0.1482 -0.1894  0.0717
  547loPI   C4A 8746   4.971  11.642   9.068 -0.0242  0.1437  0.2206
  547loPI   C5A 8747   4.864  11.310   9.086 -0.0706  0.0296  0.1853
  547loPI   C6A 8748   4.497  11.151   8.751 -0.2140 -0.1673  0.2106
  547loPI   C1B 8749   5.278  11.724  10.249  0.0862  0.1936  0.0736
  547loPI   C2B 8750   5.327  11.813   9.820  0.2227 -0.1843 -0.0816
  547loPI   C3B 8751   5.308  11.856   9.470  0.1698 -0.1382  0.0704
  547loPI   C4B 8752   5.362  11.964   9.001  0.0317  0.1737  0.1594
  548loPI    C1 8753   2.276  13.360  11.798 -0.1195  0.1098  0.1595
  548loPI    C2 8754   2.007  13.066  11.839  0.2501 -0.2219  0.2711
  548loPI    C3 8755   2.051  13.339  12.128 -0.3393  0.1640  0.0151
  548loPI   PO4 8756   2.385  13.334  11.554 -0.0645 -0.0891 -0.0509
  548loPI   GL1 8757   2.286  13.388  11.116 -0.0215  0.1808 -0.2249
  548loPI   GL2 8758   2.483  13.142  11.021  0.2287  0.0261 -0.0825
  548loPI   C1A 8759   2.065  13.136  10.813  0.3491 -0.1711  0.2983
  548loPI   C2A 8760   2.124  13.000  10.413 -0.0798 -0.2098 -0.1354
  548loPI   C3A 8761   2.196  13.104   9.984  0.0171 -0.2147  0.1326
  548loPI   C4A 8762   2.172  13.122   9.476  0.0189 -0.3513 -0.2817
  548loPI   C5A 8763   2.173  13.015   9.031  0.1498 -0.0998  0.0221
  548loPI   C6A 8764   2.186  13.274   8.677 -0.1880  0.1303  0.0610
  548loPI   C1B 8765   2.499  13.343  10.634 -0.3818 -0.2089 -0.1134
  548loPI   C2B 8766   2.634  13.377  10.132 -0.2035  0.3341 -0.1123
  548loPI   C3B 8767   2.565  13.398   9.760 -0.1209  0.3736 -0.0282
  548loPI   C4B 8768   2.663  13.265   9.327 -0.1602 -0.0139 -0.0692
  549loPI    C1 8769   3.635  11.189  11.501  0.0178 -0.0380  0.0519
  549loPI    C2 8770   3.330  11.100  11.745 -0.0879 -0.2510 -0.1544
  549loPI    C3 8771   3.674  11.238  11.896 -0.2517 -0.1025  0.0885
  549loPI   PO4 8772   3.495  11.253  11.258  0.1143  0.2178 -0.0775
  549loPI   GL1 8773   3.375  11.511  10.955  0.2196 -0.1980  0.1636
  549loPI   GL2 8774   3.018  11.505  11.023 -0.0822 -0.0574 -0.0697
  549loPI   C1A 8775   3.490  11.208  10.589  0.3580  0.2179 -0.2896
  549loPI   C2A 8776   3.481  11.238  10.120  0.3637 -0.1986 -0.1452
  549loPI   C3A 8777   3.497  11.309   9.770 -0.3160  0.0803  0.2163
  549loPI   C4A 8778   3.547  11.378   9.341 -0.0716 -0.0749  0.2179
  549loPI   C5A 8779   3.697  11.186   8.968  0.0852 -0.1015 -0.1293
  549loPI   C6A 8780   3.785  10.795   8.784  0.0744  0.0609 -0.0928
  549loPI   C1B 8781   3.082  11.544  10.563 -0.2410 -0.0490  0.2069
  549loPI   C2B 8782   3.031  11.464  10.092  0.1446 -0.2260 -0.0917
  549loPI   C3B 8783   3.042  11.561   9.713  0.2754 -0.0257 -0.1608
  549loPI   C4B 8784   3.050  11.653   9.216 -0.0746  0.2602 -0.1014
  550loPI    C1 8785   3.049   8.914  11.393  0.1919 -0.1388  0.0773
  550loPI    C2 8786   2.700   9.108  11.372  0.2279 -0.0890 -0.0695
  550loPI    C3 8787   2.839   8.987  11.726 -0.1435 -0.4854 -0.0505
  550loPI   PO4 8788   3.182   9.125  11.211 -0.0615 -0.3085 -0.4845
  550loPI   GL1 8789   2.965   9.236  10.969  0.0211 -0.1682 -0.1839
  550loPI   GL2 8790   2.722   9.119  10.772  0.0961 -0.1359  0.0829
  550loPI   C1A 8791   3.072   9.387  10.535 -0.3893 -0.0305  0.1647
  550loPI   C2A 8792   3.085   9.458  10.114  0.0123 -0.1547 -0.2793
  550loPI   C3A 8793   3.039   9.454   9.662  0.1237 -0.1180 -0.0582
  550loPI   C4A 8794   3.061   9.478   9.200 -0.1580  0.2384  0.1564
  550loPI   C5A 8795   3.266   9.622   8.916  0.1477 -0.1098 -0.0961
  550loPI   C6A 8796   3.302   9.954   8.632  0.0284 -0.0349  0.0078
  550loPI   C1B 8797   2.637   9.247  10.336 -0.1071  0.0369  0.1788
  550loPI   C2B 8798   2.627   9.144   9.797 -0.1572  0.1586 -0.1388
  550loPI   C3B 8799   2.702   9.211   9.391  0.1572  0.3696 -0.3564
  550loPI   C4B 8800   2.677   9.219   8.958 -0.0394 -0.2412 -0.2310
  551loPI    C1 8801  11.276  16.827  11.456  0.2678  0.2466 -0.0033
  551loPI    C2 8802  11.552  16.707  11.719 -0.0291 -0.2044  0.1149
  551loPI    C3 8803  11.194  16.833  11.847 -0.0448 -0.0701 -0.0576
  551loPI   PO4 8804  11.226  16.638  11.327  0.0507  0.2373 -0.0252
  551loPI   GL1 8805  11.398  16.400  10.906  0.0426  0.1813  0.0495
  551loPI   GL2 8806  11.133  16.723  10.752  0.1694 -0.0650  0.1248
  551loPI   C1A 8807  11.536  16.514  10.507  0.1516  0.1404 -0.0874
  551loPI   C2A 8808  11.561  16.402  10.068  0.1292  0.0394  0.1485
  551loPI   C3A 8809  11.582  16.436   9.683 -0.0892 -0.2815 -0.5363
  551loPI   C4A 8810  11.565  16.460   9.377  0.0350 -0.0898  0.2864
  551loPI   C5A 8811  11.584  16.452   8.969  0.1697 -0.3046  0.0112
  551loPI   C6A 8812  11.489  16.429   8.580 -0.1386 -0.0983 -0.1141
  551loPI   C1B 8813  11.142  16.829  10.429 -0.0006  0.0701 -0.1112
  551loPI   C2B 8814  11.184  16.702   9.988 -0.1383 -0.0480 -0.2564
  551loPI   C3B 8815  11.134  16.810   9.559 -0.1189 -0.0178  0.1378
  551loPI   C4B 8816  11.147  16.731   9.258  0.2125 -0.2364  0.3439
  552loPI    C1 8817   5.522  12.266  11.366 -0.0319 -0.0170 -0.1132
  552loPI    C2 8818   5.841  12.333  11.598 -0.1356 -0.0299  0.0345
  552loPI    C3 8819   5.741  11.959  11.499 -0.1513 -0.0308  0.0541
  552loPI   PO4 8820   5.529  12.541  11.175 -0.0265 -0.1884 -0.1163
  552loPI   GL1 8821   5.706  12.643  10.801 -0.0979  0.0885 -0.0468
  552loPI   GL2 8822   5.467  12.356  10.713  0.0068 -0.2394 -0.0389
  552loPI   C1A 8823   5.744  12.533  10.309  0.1575  0.1466 -0.0864
  552loPI   C2A 8824   5.777  12.644   9.891 -0.1864  0.0474  0.1992
  552loPI   C3A 8825   5.817  12.592   9.359 -0.2047  0.1998 -0.1144
  552loPI   C4A 8826   5.430  12.545   8.965 -0.0234  0.1161  0.0983
  552loPI   C5A 8827   5.299  12.436   8.576  0.0754 -0.0832 -0.0800
  552loPI   C6A 8828   4.934  12.491   8.401 -0.0917  0.2158 -0.2054
  552loPI   C1B 8829   5.285  12.307  10.303  0.2767  0.0700  0.0852
  552loPI   C2B 8830   5.358  12.286  10.003 -0.0142 -0.3666  0.1580
  552loPI   C3B 8831   5.394  12.471   9.682  0.0293 -0.0540 -0.1941
  552loPI   C4B 8832   5.315  12.321   9.373  0.0684 -0.0958  0.1087
  553loPI    C1 8833   1.053  15.994  11.483 -0.2839  0.1161  0.0757
  553loPI    C2 8834   0.969  15.728  11.769 -0.2315  0.2097  0.1791
  553loPI    C3 8835   1.095  16.094  11.868 -0.0175  0.1773  0.0322
  553loPI   PO4 8836   1.218  15.916  11.228  0.0394  0.1813  0.0421
  553loPI   GL1 8837   1.280  15.803  10.764 -0.1051  0.3474  0.0155
  553loPI   GL2 8838   1.642  15.973  10.660 -0.2695  0.4401  0.4314
  553loPI   C1A 8839   1.224  15.681  10.291 -0.3144 -0.1042 -0.1298
  553loPI   C2A 8840   1.222  15.662   9.876  0.0696  0.3002 -0.1822
  553loPI   C3A 8841   1.285  15.703   9.495  0.0041  0.2295  0.1468
  553loPI   C4A 8842   1.271  15.687   9.086 -0.1375 -0.0335 -0.0718
  553loPI   C5A 8843   1.304  15.811   8.624 -0.4442 -0.1653  0.0126
  553loPI   C6A 8844   1.021  15.789   8.267  0.0850 -0.1935  0.0510
  553loPI   C1B 8845   1.702  15.926  10.198  0.1032  0.1334  0.5189
  553loPI   C2B 8846   1.647  15.941   9.830  0.2527  0.1151 -0.1512
  553loPI   C3B 8847   1.716  15.947   9.403 -0.0132  0.0398  0.1995
  553loPI   C4B 8848   1.705  15.894   8.946 -0.0238  0.0729  0.1738
  554loPI    C1 8849  15.111   5.029  11.220 -0.1078  0.0209  0.0390
  554loPI    C2 8850  14.784   4.850  11.363 -0.1156  0.0698  0.0828
  554loPI    C3 8851  14.979   5.118  11.587 -0.1471  0.1714 -0.0109
  554loPI   PO4 8852  15.063   5.010  10.940 -0.3050  0.0984  0.1594
  554loPI   GL1 8853  14.906   5.213  10.540 -0.0545 -0.0385 -0.0237
  554loPI   GL2 8854  14.676   5.109  10.347  0.0336 -0.0690 -0.1737
  554loPI   C1A 8855  15.061   5.349  10.252  0.0554 -0.1081  0.0054
  554loPI   C2A 8856  15.079   5.434   9.821 -0.1305 -0.1486  0.4936
  554loPI   C3A 8857  15.178   5.432   9.482 -0.2740 -0.0658 -0.0180
  554loPI   C4A 8858  15.250   5.474   9.122  0.1453  0.2801  0.0485
  554loPI   C5A 8859  15.260   5.536   8.786  0.0116 -0.1404  0.0311
  554loPI   C6A 8860  15.077   5.524   8.394 -0.0437  0.1113  0.1127
  554loPI   C1B 8861  14.672   5.141   9.872  0.2628 -0.5069  0.0923
  554loPI   C2B 8862  14.709   5.298   9.426 -0.0059 -0.1340 -0.2687
  554loPI   C3B 8863  14.829   5.232   9.088 -0.0441 -0.0401  0.0336
  554loPI   C4B 8864  14.807   5.229   8.657  0.1663  0.2604 -0.0058
  555loPI    C1 8865   8.993   3.629  11.185 -0.1074 -0.2348  0.0210
  555loPI    C2 8866   9.162   3.609  11.547 -0.1759 -0.1451  0.0585
  555loPI    C3 8867   9.092   3.965  11.379 -0.1571 -0.1862 -0.0371
  555loPI   PO4 8868   9.120   3.451  11.015  0.0383  0.1687 -0.1546
  555loPI   GL1 8869   9.324   3.527  10.678 -0.1815 -0.0901  0.0210
  555loPI   GL2 8870   9.516   3.722  10.508 -0.1192  0.0876 -0.0611
  555loPI   C1A 8871   9.341   3.123  10.486 -0.0975 -0.1084  0.1735
  555loPI   C2A 8872   9.407   2.727  10.203 -0.0670  0.1301  0.0130
  555loPI   C3A 8873   9.300   2.498   9.758  0.0296 -0.0658  0.0322
  555loPI   C4A 8874   9.457   2.302   9.395  0.1162 -0.5811 -0.0739
  555loPI   C5A 8875   9.807   2.144   9.116 -0.1606 -0.1970 -0.1518
  555loPI   C6A 8876   9.942   2.025   8.715  0.2156 -0.2571  0.1245
  555loPI   C1B 8877   9.512   3.887   9.960 -0.0895 -0.1846  0.0665
  555loPI   C2B 8878   9.439   3.903   9.545  0.2584  0.0528 -0.0885
  555loPI   C3B 8879   9.324   3.671   9.068  0.0052  0.0118 -0.1401
  555loPI   C4B 8880   9.436   3.905   8.532  0.1882 -0.2326  0.0589
  556loPI    C1 8881   8.265   9.945  11.587 -0.3755 -0.3030 -0.2145
  556loPI    C2 8882   8.298   9.620  11.818  0.0278  0.1125  0.3415
  556loPI    C3 8883   7.998   9.878  11.877 -0.1512 -0.0265  0.0628
  556loPI   PO4 8884   8.308   9.818  11.385  0.0605  0.0645  0.4010
  556loPI   GL1 8885   8.253   9.962  10.905  0.3483  0.0776  0.4067
  556loPI   GL2 8886   8.012   9.904  10.959 -0.0867  0.4297 -0.0863
  556loPI   C1A 8887   8.466   9.869  10.510 -0.0402  0.0796 -0.0862
  556loPI   C2A 8888   8.431   9.861  10.034  0.0184 -0.1541  0.1751
  556loPI   C3A 8889   8.414   9.981   9.676 -0.0492 -0.0171  0.0542
  556loPI   C4A 8890   8.360   9.960   9.238 -0.2589 -0.0280  0.0653
  556loPI   C5A 8891   8.360  10.013   8.839 -0.0751 -0.2422 -0.1281
  556loPI   C6A 8892   8.512  10.179   8.468  0.0827 -0.0643  0.0808
  556loPI   C1B 8893   8.020  10.162  10.521 -0.1023 -0.4575  0.0764
  556loPI   C2B 8894   7.965  10.174  10.056  0.0361 -0.2420 -0.2056
  556loPI   C3B 8895   7.999  10.206   9.589  0.0695 -0.2693 -0.2987
  556loPI   C4B 8896   7.934  10.240   9.115 -0.0011 -0.2547  0.0647
  557loPI    C1 8897   4.862  13.191  11.577 -0.0979  0.2130 -0.0535
  557loPI    C2 8898   4.641  12.937  11.792 -0.0094  0.3698  0.2275
  557loPI    C3 8899   5.034  12.965  11.858  0.1029  0.0873 -0.2737
  557loPI   PO4 8900   4.842  13.142  11.361 -0.2241 -0.0346  0.2640
  557loPI   GL1 8901   4.738  13.104  11.008 -0.0734 -0.0395  0.0923
  557loPI   GL2 8902   5.125  13.301  10.927  0.1012 -0.0235  0.0248
  557loPI   C1A 8903   4.746  13.076  10.625 -0.2957  0.0304 -0.0479
  557loPI   C2A 8904   4.736  13.091  10.190 -0.1300 -0.0801 -0.0524
  557loPI   C3A 8905   4.810  13.128   9.745 -0.3185  0.1451 -0.2146
  557loPI   C4A 8906   4.782  12.994   9.277 -0.1664 -0.1530 -0.0084
  557loPI   C5A 8907   4.825  13.317   8.878  0.0638 -0.0861  0.1768
  557loPI   C6A 8908   4.942  13.274   8.484  0.0400  0.0556  0.1475
  557loPI   C1B 8909   5.149  13.349  10.448  0.0265  0.0279  0.2516
  557loPI   C2B 8910   5.189  13.378   9.990  0.0727 -0.0423 -0.0067
  557loPI   C3B 8911   5.262  13.384   9.552  0.1064 -0.1906  0.0768
  557loPI   C4B 8912   5.277  13.394   9.183 -0.0556 -0.0812 -0.1204
  558loPI    C1 8913  16.847   2.055  11.325  0.0093 -0.0094  0.0603
  558loPI    C2 8914  17.098   2.041  11.636  0.0917 -0.2309 -0.0143
  558loPI    C3 8915  16.762   1.825  11.641 -0.1626  0.1561  0.1370
  558loPI   PO4 8916  16.964   2.040  11.124  0.1419 -0.0294 -0.2101
  558loPI   GL1 8917  16.741   2.178  10.822 -0.3411 -0.0522 -0.0879
  558loPI   GL2 8918  16.416   1.933  10.741 -0.0281  0.0229  0.3526
  558loPI   C1A 8919  16.938   1.776  10.440  0.1750 -0.0711 -0.0274
  558loPI   C2A 8920  17.053   1.777  10.108 -0.1150  0.1028  0.1146
  558loPI   C3A 8921  17.041   1.667   9.671 -0.0942 -0.0399 -0.0578
  558loPI   C4A 8922  17.130   1.722   9.232 -0.0035 -0.0901 -0.0975
  558loPI   C5A 8923  17.164   1.688   8.741  0.3306 -0.2531  0.0644
  558loPI   C6A 8924  17.173   1.375   8.364  0.0222 -0.3600  0.0416
  558loPI   C1B 8925  16.523   2.004  10.246  0.1503 -0.1612 -0.0934
  558loPI   C2B 8926  16.608   1.999   9.882 -0.1853  0.0502  0.1282
  558loPI   C3B 8927  16.609   1.908   9.412 -0.0034 -0.3876 -0.0453
  558loPI   C4B 8928  16.701   1.951   8.988  0.0977 -0.0918  0.0093
  559loPI    C1 8929   1.512  11.535  11.246 -0.1488 -0.1776  0.1410
  559loPI    C2 8930   1.564  11.437  11.630  0.1456 -0.1109  0.1210
  559loPI    C3 8931   1.680  11.185  11.341 -0.0593 -0.1534  0.0744
  559loPI   PO4 8932   1.577  11.728  11.135 -0.0822  0.0744  0.1990
  559loPI   GL1 8933   1.627  11.847  10.788 -0.1155 -0.1152 -0.1735
  559loPI   GL2 8934   1.212  11.758  10.793  0.0925 -0.2029 -0.0335
  559loPI   C1A 8935   1.743  11.813  10.330  0.0363 -0.0938  0.0075
  559loPI   C2A 8936   1.742  11.830   9.914 -0.0239  0.0903 -0.0489
  559loPI   C3A 8937   1.768  11.718   9.465 -0.0381  0.0775 -0.4355
  559loPI   C4A 8938   1.643  11.754   9.096 -0.1427  0.0147  0.0365
  559loPI   C5A 8939   1.650  12.217   8.916  0.0711 -0.0633 -0.0417
  559loPI   C6A 8940   1.405  12.364   8.537 -0.1718  0.0494 -0.1897
  559loPI   C1B 8941   1.293  11.508  10.371  0.0592  0.1493  0.2864
  559loPI   C2B 8942   1.350  11.514   9.896  0.3493 -0.0226 -0.3349
  559loPI   C3B 8943   1.209  11.552   9.466 -0.1125  0.0517 -0.1930
  559loPI   C4B 8944   1.220  11.482   9.111  0.0493  0.1744  0.1650
  560loPI    C1 8945  15.842   2.443  11.640  0.1545  0.0757 -0.1043
  560loPI    C2 8946  15.690   2.800  11.736 -0.0467 -0.1055  0.2722
  560loPI    C3 8947  16.007   2.658  11.934  0.1294 -0.0725  0.0191
  560loPI   PO4 8948  15.840   2.477  11.371  0.3851 -0.0389  0.0597
  560loPI   GL1 8949  15.693   2.482  10.929  0.2108 -0.0105 -0.2246
  560loPI   GL2 8950  15.929   2.316  10.929  0.0443 -0.0727 -0.2219
  560loPI   C1A 8951  15.558   2.492  10.482  0.3271  0.4221 -0.1173
  560loPI   C2A 8952  15.730   2.543  10.160  0.2654  0.1993 -0.0675
  560loPI   C3A 8953  15.577   2.583   9.762 -0.1261  0.0696  0.1156
  560loPI   C4A 8954  15.631   2.562   9.295  0.0604  0.1244  0.3105
  560loPI   C5A 8955  15.782   2.461   8.977  0.1775 -0.0384 -0.0291
  560loPI   C6A 8956  15.822   2.648   8.587 -0.0291 -0.2966 -0.1064
  560loPI   C1B 8957  16.125   2.234  10.497 -0.0562  0.2064  0.2700
  560loPI   C2B 8958  16.144   2.198  10.016  0.1598 -0.1016  0.0619
  560loPI   C3B 8959  16.062   2.301   9.470 -0.1814  0.2183 -0.1092
  560loPI   C4B 8960  16.203   2.207   9.113 -0.0897  0.1714  0.5545
  561loPI    C1 8961  13.614  10.053  11.244  0.0046 -0.0865 -0.0255
  561loPI    C2 8962  13.390  10.325  11.433  0.1323  0.0584 -0.0813
  561loPI    C3 8963  13.726  10.190  11.602 -0.0032 -0.1702  0.0093
  561loPI   PO4 8964  13.628  10.144  10.997  0.3464  0.0642 -0.2036
  561loPI   GL1 8965  13.745  10.162  10.587 -0.1267 -0.0602  0.1674
  561loPI   GL2 8966  13.684  10.463  10.637  0.2022 -0.0451 -0.2382
  561loPI   C1A 8967  13.804  10.261  10.173  0.0399  0.2355 -0.1042
  561loPI   C2A 8968  13.774  10.340   9.651 -0.0399 -0.4354 -0.3958
  561loPI   C3A 8969  13.738  10.400   9.240  0.0079  0.0028  0.0112
  561loPI   C4A 8970  13.750  10.476   8.801  0.3093  0.1733 -0.0748
  561loPI   C5A 8971  13.716  10.409   8.385 -0.2261 -0.1273 -0.0146
  561loPI   C6A 8972  13.846  10.116   8.176  0.1496  0.0257 -0.5448
  561loPI   C1B 8973  13.353  10.461  10.338  0.2469 -0.1072 -0.0005
  561loPI   C2B 8974  13.309  10.552   9.993 -0.0682 -0.2873 -0.0111
  561loPI   C3B 8975  13.329  10.606   9.596 -0.1453  0.1070  0.0884
  561loPI   C4B 8976  13.341  10.718   9.089  0.0283  0.0494  0.1350
  562loPI    C1 8977   3.294   0.266  11.539  0.2558 -0.1728 -0.1689
  562loPI    C2 8978   3.563   0.211  11.830  0.1264  0.1958  0.0266
  562loPI    C3 8979   3.491   0.579  11.691 -0.4134  0.1313  0.1131
  562loPI   PO4 8980   3.244   0.074  11.418 -0.1832  0.1335 -0.1039
  562loPI   GL1 8981   3.403   0.082  11.012  0.1878 -0.2851 -0.0638
  562loPI   GL2 8982   3.401  -0.245  10.967  0.0869 -0.1768 -0.2180
  562loPI   C1A 8983   3.589   0.187  10.641  0.1029  0.2610  0.0641
  562loPI   C2A 8984   3.608   0.107  10.264 -0.0432  0.2043  0.0491
  562loPI   C3A 8985   3.595   0.127   9.799 -0.2667  0.5062 -0.0815
  562loPI   C4A 8986   3.473   0.200   9.424  0.2182  0.1771 -0.1013
  562loPI   C5A 8987   3.505   0.440   9.022  0.0997 -0.2183  0.1189
  562loPI   C6A 8988   3.360   0.649   8.609  0.1530  0.1059 -0.1042
  562loPI   C1B 8989   3.509  -0.373  10.529  0.1231 -0.2697  0.1266
  562loPI   C2B 8990   3.524  -0.388  10.108  0.0207 -0.1747 -0.0087
  562loPI   C3B 8991   3.616  -0.347   9.619 -0.0763  0.1215  0.0893
  562loPI   C4B 8992   3.482  -0.324   9.206  0.1261  0.2497  0.2984
  563loPI    C1 8993   6.527   7.398  10.950  0.0958 -0.0785  0.0993
  563loPI    C2 8994   6.683   7.191  11.255  0.0142 -0.1281  0.1077
  563loPI    C3 8995   6.298   7.299  11.263  0.0179 -0.1089  0.0328
  563loPI   PO4 8996   6.677   7.537  10.876  0.1055 -0.2006  0.1702
  563loPI   GL1 8997   6.974   7.503  10.493  0.0834 -0.0938 -0.1664
  563loPI   GL2 8998   7.309   7.345  10.608  0.1039  0.2882  0.1962
  563loPI   C1A 8999   6.986   7.639  10.085  0.1102  0.1480 -0.3154
  563loPI   C2A 9000   6.970   7.512   9.706  0.1716  0.0055  0.2622
  563loPI   C3A 9001   7.097   7.253   9.409  0.0148  0.1239  0.2714
  563loPI   C4A 9002   7.093   7.096   9.047 -0.2583 -0.3956  0.2699
  563loPI   C5A 9003   6.847   6.692   8.940  0.2527  0.0526  0.3526
  563loPI   C6A 9004   6.644   6.284   8.734 -0.0681  0.0692 -0.2419
  563loPI   C1B 9005   7.591   7.285  10.218  0.0363 -0.1131  0.0836
  563loPI   C2B 9006   7.537   7.413   9.704 -0.3413  0.2340 -0.0891
  563loPI   C3B 9007   7.620   7.309   9.267  0.1170 -0.0504  0.0524
  563loPI   C4B 9008   7.562   7.137   8.904  0.0129  0.0227  0.1203
  564loPI    C1 9009   8.332  17.385  11.524 -0.0824  0.1000  0.1774
  564loPI    C2 9010   8.140  17.379  11.875 -0.0746  0.1473  0.1825
  564loPI    C3 9011   8.062  17.668  11.610 -0.1661  0.0448  0.0969
  564loPI   PO4 9012   8.373  17.120  11.460  0.0287 -0.1873 -0.0853
  564loPI   GL1 9013   8.380  17.035  11.054  0.0740  0.0328 -0.2364
  564loPI   GL2 9014   8.358  17.261  10.790  0.0692 -0.0403  0.1317
  564loPI   C1A 9015   8.410  16.811  10.583  0.3739  0.0191 -0.3970
  564loPI   C2A 9016   8.384  16.736  10.176 -0.1091  0.0106  0.2016
  564loPI   C3A 9017   8.311  16.751   9.733  0.0450 -0.1472 -0.2335
  564loPI   C4A 9018   8.386  16.623   9.354 -0.0981  0.0253 -0.3445
  564loPI   C5A 9019   8.435  16.806   8.964 -0.3000 -0.0920  0.0102
  564loPI   C6A 9020   8.664  16.779   8.501 -0.0915 -0.2033 -0.0280
  564loPI   C1B 9021   8.391  17.351  10.390  0.1076  0.0312  0.2441
  564loPI   C2B 9022   8.322  17.198  10.032 -0.0136  0.0152 -0.4691
  564loPI   C3B 9023   8.439  17.251   9.550 -0.2036  0.2659 -0.0113
  564loPI   C4B 9024   8.390  17.249   9.087  0.0272  0.3703  0.0924
  565loPI    C1 9025   4.935   9.515  11.523  0.0620  0.1059 -0.0357
  565loPI    C2 9026   4.725   9.372  11.832  0.1089 -0.0184 -0.0608
  565loPI    C3 9027   5.047   9.601  11.897  0.0009  0.1234 -0.0213
  565loPI   PO4 9028   4.953   9.385  11.382 -0.0996  0.0216 -0.3998
  565loPI   GL1 9029   4.914   9.245  11.061 -0.3038  0.0329 -0.0674
  565loPI   GL2 9030   4.968   9.060  10.797  0.3445 -0.0882 -0.1509
  565loPI   C1A 9031   4.903   9.517  10.653 -0.3188  0.2954  0.1558
  565loPI   C2A 9032   4.878   9.524  10.159 -0.1759  0.2511  0.0010
  565loPI   C3A 9033   4.822   9.477   9.751 -0.0884 -0.1251  0.0026
  565loPI   C4A 9034   4.836   9.568   9.380 -0.0930  0.1832  0.1575
  565loPI   C5A 9035   4.925   9.441   8.934  0.1714 -0.3646 -0.2377
  565loPI   C6A 9036   4.683   9.291   8.580 -0.0009  0.0420  0.2828
  565loPI   C1B 9037   4.790   8.937  10.408  0.1648 -0.3467  0.1161
  565loPI   C2B 9038   4.822   8.933  10.029 -0.0446  0.1019 -0.1455
  565loPI   C3B 9039   4.834   9.012   9.564 -0.1755 -0.1546 -0.1859
  565loPI   C4B 9040   4.859   9.051   9.158  0.3643  0.0366  0.0492
  566loPI    C1 9041  12.640   6.257  11.091  0.1396 -0.0184  0.2680
  566loPI    C2 9042  12.528   6.504  11.386 -0.0476  0.0042  0.1799
  566loPI    C3 9043  12.359   6.143  11.352 -0.1418  0.0632  0.0076
  566loPI   PO4 9044  12.610   6.340  10.871 -0.3471  0.0167 -0.1424
  566loPI   GL1 9045  12.434   6.514  10.574  0.0880  0.0251 -0.0996
  566loPI   GL2 9046  12.498   6.806  10.553 -0.3574  0.1991  0.2202
  566loPI   C1A 9047  12.459   6.374  10.113 -0.1379 -0.0985 -0.1754
  566loPI   C2A 9048  12.360   6.474   9.710 -0.0329 -0.2295  0.0993
  566loPI   C3A 9049  12.459   6.486   9.271 -0.3028 -0.4153 -0.0686
  566loPI   C4A 9050  12.598   6.583   8.911  0.4406  0.1446  0.4149
  566loPI   C5A 9051  12.647   6.715   8.538 -0.1989  0.0660 -0.2288
  566loPI   C6A 9052  12.477   7.100   8.276  0.1320  0.2970 -0.0940
  566loPI   C1B 9053  12.463   6.993  10.174 -0.2241 -0.1874 -0.3401
  566loPI   C2B 9054  12.410   6.948   9.662 -0.1356 -0.1279 -0.3697
  566loPI   C3B 9055  12.502   6.985   9.252 -0.0241 -0.0877 -0.0223
  566loPI   C4B 9056  12.505   7.122   8.829  0.3696 -0.0879  0.1188
  567loPI    C1 9057  11.025   9.698  11.113 -0.0087 -0.0383 -0.1138
  567loPI    C2 9058  10.791   9.870  11.388 -0.0847  0.0606 -0.2388
  567loPI    C3 9059  10.836  10.041  11.030  0.2882  0.1146 -0.1702
  567loPI   PO4 9060  10.972   9.492  11.035 -0.2520 -0.1628 -0.0774
  567loPI   GL1 9061  10.996   9.404  10.574  0.3596 -0.1553 -0.0007
  567loPI   GL2 9062  11.090   9.741  10.627  0.1864  0.0924  0.3075
  567loPI   C1A 9063  11.218   9.204  10.328  0.1015  0.0517  0.2874
  567loPI   C2A 9064  11.113   9.369   9.921  0.2513  0.1951 -0.0090
  567loPI   C3A 9065  11.065   9.389   9.491 -0.1052  0.1081  0.2372
  567loPI   C4A 9066  11.139   9.283   9.045 -0.3702 -0.0344  0.1360
  567loPI   C5A 9067  10.918   9.141   8.660 -0.0221 -0.1017  0.1742
  567loPI   C6A 9068  10.438   9.188   8.697 -0.1483  0.1300 -0.3136
  567loPI   C1B 9069  11.097   9.754  10.237 -0.3696 -0.1692 -0.2090
  567loPI   C2B 9070  11.130   9.834   9.799  0.2072 -0.1183 -0.1798
  567loPI   C3B 9071  11.003   9.902   9.322 -0.3077 -0.0744 -0.2734
  567loPI   C4B 9072  11.210   9.946   8.912 -0.3820  0.2565 -0.2626
  568loPI    C1 9073  14.490   5.937  10.939  0.1891  0.1468  0.0668
  568loPI    C2 9074  14.539   6.150  11.274 -0.0163 -0.1665  0.3025
  568loPI    C3 9075  14.379   5.784  11.292 -0.0802 -0.1661 -0.1475
  568loPI   PO4 9076  14.355   6.075  10.769  0.0071 -0.2047 -0.0583
  568loPI   GL1 9077  14.021   5.864  10.448 -0.0403 -0.4071  0.2418
  568loPI   GL2 9078  14.275   5.848  10.297  0.0589  0.3158  0.1927
  568loPI   C1A 9079  13.854   5.599  10.081 -0.0420 -0.0164 -0.0443
  568loPI   C2A 9080  13.787   5.667   9.671  0.0777  0.0097 -0.2298
  568loPI   C3A 9081  13.760   5.709   9.238 -0.1816 -0.3501 -0.3018
  568loPI   C4A 9082  13.846   5.634   8.879 -0.7424  0.0773  0.3736
  568loPI   C5A 9083  13.810   5.789   8.438  0.5424  0.1241 -0.2938
  568loPI   C6A 9084  14.006   5.995   8.001 -0.1082  0.2109  0.2881
  568loPI   C1B 9085  14.196   5.972   9.919  0.1275  0.3024 -0.1006
  568loPI   C2B 9086  14.235   5.930   9.383  0.2151 -0.1032 -0.2370
  568loPI   C3B 9087  14.349   5.951   8.924  0.2101  0.0957 -0.3536
  568loPI   C4B 9088  14.232   6.017   8.518  0.0382  0.2028  0.1997
  569loPI    C1 9089  13.023   8.822  11.378  0.1548  0.1097 -0.2396
  569loPI    C2 9090  13.136   9.141  11.592 -0.0487 -0.0891  0.1751
  569loPI    C3 9091  13.303   8.784  11.662 -0.0788 -0.1465 -0.0387
  569loPI   PO4 9092  13.048   8.940  11.038  0.2253  0.0268 -0.1994
  569loPI   GL1 9093  12.883   9.215  10.794  0.0415 -0.1379  0.1704
  569loPI   GL2 9094  12.555   9.189  10.839  0.0395 -0.0188 -0.0211
  569loPI   C1A 9095  12.859   9.177  10.367  0.3903  0.1979  0.0950
  569loPI   C2A 9096  12.949   9.276   9.948  0.1421 -0.1769 -0.0924
  569loPI   C3A 9097  12.941   9.260   9.481 -0.0348  0.2988 -0.1359
  569loPI   C4A 9098  12.869   9.325   9.109  0.0593  0.2475 -0.0002
  569loPI   C5A 9099  12.557   9.182   8.744  0.0176 -0.0951  0.1581
  569loPI   C6A 9100  12.326   9.116   8.373  0.0243 -0.2397 -0.1576
  569loPI   C1B 9101  12.440   8.924  10.469  0.0692  0.0725  0.1509
  569loPI   C2B 9102  12.604   8.915  10.009 -0.0747 -0.1671 -0.2788
  569loPI   C3B 9103  12.581   8.954   9.640  0.1911 -0.0819 -0.0271
  569loPI   C4B 9104  12.473   9.091   9.270 -0.1297 -0.1807  0.2284
  570loPI    C1 9105  10.685   6.200  11.112 -0.2382  0.1441  0.2796
  570loPI    C2 9106  11.081   6.245  11.147 -0.2054 -0.0364  0.1559
  570loPI    C3 9107  10.880   6.022  11.412 -0.2133 -0.0075  0.1744
  570loPI   PO4 9108  10.599   6.453  10.822 -0.0566 -0.0144  0.2379
  570loPI   GL1 9109  10.718   6.478  10.473 -0.0208 -0.2507 -0.0240
  570loPI   GL2 9110  10.827   6.307  10.370 -0.1002 -0.0832 -0.0094
  570loPI   C1A 9111  10.361   6.548  10.122 -0.0167 -0.1843 -0.0918
  570loPI   C2A 9112  10.055   6.806   9.768  0.0577 -0.0996 -0.2885
  570loPI   C3A 9113  10.082   6.967   9.289 -0.4182  0.0096  0.0233
  570loPI   C4A 9114  10.167   6.970   8.868 -0.0735 -0.1419  0.0189
  570loPI   C5A 9115  10.370   7.161   8.548 -0.0735  0.2797 -0.0745
  570loPI   C6A 9116  10.363   7.146   8.197 -0.1763 -0.1465 -0.0425
  570loPI   C1B 9117  10.955   6.530  10.030 -0.2528  0.2628 -0.2600
  570loPI   C2B 9118  11.099   6.676   9.633  0.0060  0.1463  0.0821
  570loPI   C3B 9119  11.087   6.786   9.182  0.2766 -0.4196 -0.1458
  570loPI   C4B 9120  11.190   6.767   8.728 -0.0870 -0.2325  0.0303
  571loPI    C1 9121  16.132   5.473  10.893  0.2397 -0.0558  0.0497
  571loPI    C2 9122  16.165   5.492  11.291 -0.1784  0.1006  0.0824
  571loPI    C3 9123  15.830   5.349  11.125 -0.0804  0.2088 -0.2144
  571loPI   PO4 9124  16.431   5.369  10.881  0.4466  0.1014  0.2126
  571loPI   GL1 9125  16.630   5.304  10.539  0.0036 -0.1165  0.0109
  571loPI   GL2 9126  16.508   5.647  10.438  0.2323 -0.0225 -0.2247
  571loPI   C1A 9127  16.603   5.095  10.179 -0.0509  0.1295 -0.1349
  571loPI   C2A 9128  16.467   5.160   9.682 -0.0846  0.3182 -0.0067
  571loPI   C3A 9129  16.522   5.180   9.287 -0.0169 -0.1010 -0.1780
  571loPI   C4A 9130  16.658   5.267   8.873 -0.1258  0.0564 -0.1553
  571loPI   C5A 9131  16.627   5.383   8.448  0.3268  0.3004  0.0382
  571loPI   C6A 9132  16.757   5.247   8.007  0.2672 -0.0923 -0.0833
  571loPI   C1B 9133  16.633   5.627  10.033 -0.2039  0.0566  0.2832
  571loPI   C2B 9134  16.474   5.661   9.530 -0.0627 -0.1576 -0.2982
  571loPI   C3B 9135  16.617   5.704   9.155 -0.0040 -0.0230 -0.0049
  571loPI   C4B 9136  16.660   5.903   8.752 -0.0210  0.0156 -0.1190
  572loPI    C1 9137  13.306   6.650  11.204  0.2555 -0.0379 -0.0410
  572loPI    C2 9138  13.055   6.406  11.397  0.3329 -0.2622 -0.2187
  572loPI    C3 9139  13.356   6.579  11.594  0.0764 -0.0366 -0.0170
  572loPI   PO4 9140  13.423   6.490  10.911  0.2379  0.1493 -0.0284
  572loPI   GL1 9141  13.108   6.602  10.581 -0.2199  0.1908  0.1373
  572loPI   GL2 9142  13.207   6.369  10.426  0.1035  0.1094 -0.2087
  572loPI   C1A 9143  12.833   6.692  10.220 -0.1993 -0.0213  0.4331
  572loPI   C2A 9144  12.807   6.740   9.837 -0.1429 -0.0770  0.6068
  572loPI   C3A 9145  12.914   6.739   9.399  0.1386 -0.1369  0.0791
  572loPI   C4A 9146  13.007   6.880   8.855 -0.1222 -0.1001 -0.0421
  572loPI   C5A 9147  13.044   7.265   8.616  0.2253  0.3025  0.0081
  572loPI   C6A 9148  12.964   7.331   8.117 -0.0536 -0.1363  0.1492
  572loPI   C1B 9149  13.338   6.432   9.955 -0.0791  0.0632  0.3377
  572loPI   C2B 9150  13.317   6.495   9.496 -0.4383 -0.1755  0.2582
  572loPI   C3B 9151  13.339   6.530   9.078  0.0687 -0.2124 -0.1072
  572loPI   C4B 9152  13.388   6.571   8.658 -0.1379 -0.0778  0.1467
  573loPI    C1 9153  11.326   6.695  11.478 -0.1086  0.0499 -0.1551
  573loPI    C2 9154  11.618   6.557  11.713 -0.2764  0.1499  0.1160
  573loPI    C3 9155  11.289   6.338  11.653 -0.2176  0.1080 -0.0583
  573loPI   PO4 9156  11.352   6.688  11.259 -0.0553 -0.3312 -0.2739
  573loPI   GL1 9157  11.283   7.072  10.904 -0.0607  0.3867 -0.1024
  573loPI   GL2 9158  11.024   7.247  10.714 -0.2531  0.1445 -0.3605
  573loPI   C1A 9159  11.563   6.909  10.580  0.1611 -0.3240 -0.2317
  573loPI   C2A 9160  11.532   6.946  10.111  0.3440  0.1483 -0.2396
  573loPI   C3A 9161  11.510   7.012   9.709 -0.3044  0.0116 -0.0874
  573loPI   C4A 9162  11.516   7.014   9.345 -0.0716 -0.0333  0.0821
  573loPI   C5A 9163  11.523   7.129   8.928 -0.0678  0.1235 -0.1935
  573loPI   C6A 9164  11.515   7.380   8.585  0.3090  0.1113  0.1452
  573loPI   C1B 9165  11.381   7.344  10.377 -0.0263  0.1116 -0.2709
  573loPI   C2B 9166  11.471   7.454   9.883 -0.1565 -0.2035  0.3585
  573loPI   C3B 9167  11.571   7.486   9.453 -0.1248  0.1477 -0.1086
  573loPI   C4B 9168  11.648   7.582   8.980 -0.1464 -0.0307 -0.0766
  574loPI    C1 9169  15.610  12.524  11.263 -0.0044  0.1260  0.1326
  574loPI    C2 9170  15.412  12.209  11.407  0.0003  0.0308 -0.0651
  574loPI    C3 9171  15.582  12.470  11.658 -0.0947 -0.0648  0.1009
  574loPI   PO4 9172  15.538  12.659  11.113  0.0287 -0.0753 -0.0928
  574loPI   GL1 9173  15.575  12.706  10.739 -0.1654 -0.1211 -0.0600
  574loPI   GL2 9174  15.588  12.452  10.493 -0.2048 -0.0266 -0.3201
  574loPI   C1A 9175  15.615  12.908  10.388 -0.0833 -0.1181  0.0471
  574loPI   C2A 9176  15.590  13.088   9.979 -0.1430 -0.1251 -0.2108
  574loPI   C3A 9177  15.585  12.996   9.505  0.0151  0.1536 -0.1175
  574loPI   C4A 9178  15.607  13.015   9.058 -0.0151 -0.3768  0.1051
  574loPI   C5A 9179  15.596  13.292   8.752  0.2334 -0.0459 -0.1956
  574loPI   C6A 9180  15.762  13.651   8.657  0.1459 -0.0528  0.2355
  574loPI   C1B 9181  15.604  12.431  10.069 -0.1354  0.0819 -0.0886
  574loPI   C2B 9182  15.563  12.554   9.695 -0.0757 -0.0091 -0.0082
  574loPI   C3B 9183  15.559  12.543   9.258  0.1057 -0.0624  0.0203
  574loPI   C4B 9184  15.597  12.464   8.761  0.0843  0.1231 -0.1689
  575loPI    C1 9185   7.888  14.134  11.635 -0.2097  0.1050 -0.0365
  575loPI    C2 9186   7.606  14.063  11.910  0.0196  0.1938  0.2271
  575loPI    C3 9187   7.992  14.020  12.004  0.0914 -0.3608 -0.2551
  575loPI   PO4 9188   7.841  13.979  11.429 -0.0802 -0.3135  0.0001
  575loPI   GL1 9189   7.763  14.138  11.054  0.1121  0.2546  0.0100
  575loPI   GL2 9190   7.920  14.005  10.885  0.0332 -0.1877 -0.0442
  575loPI   C1A 9191   7.530  14.078  10.618  0.2497 -0.0134  0.0204
  575loPI   C2A 9192   7.472  14.067  10.126 -0.0285 -0.1657  0.0940
  575loPI   C3A 9193   7.565  14.199   9.701 -0.1235  0.2768  0.1244
  575loPI   C4A 9194   7.549  14.224   9.282 -0.0535  0.2633  0.0083
  575loPI   C5A 9195   7.857  14.391   8.958  0.1899  0.0417 -0.1291
  575loPI   C6A 9196   7.824  14.665   8.664 -0.1215  0.0710  0.0988
  575loPI   C1B 9197   7.913  13.871  10.456  0.2669 -0.1658  0.0496
  575loPI   C2B 9198   7.914  13.841  10.024  0.0404 -0.1994 -0.2606
  575loPI   C3B 9199   8.012  13.836   9.656  0.0067  0.0012  0.0806
  575loPI   C4B 9200   8.016  13.932   9.170 -0.0726  0.0598 -0.1102
  576loPI    C1 9201   0.850  17.867  11.403  0.1240  0.0914 -0.1599
  576loPI    C2 9202   1.172  18.058  11.543  0.0477  0.0626  0.0591
  576loPI    C3 9203   0.806  18.186  11.640 -0.0050 -0.0782  0.0489
  576loPI   PO4 9204   0.873  17.787  11.170 -0.3746 -0.1150  0.1300
  576loPI   GL1 9205   0.976  17.611  10.780 -0.3900 -0.0961  0.4783
  576loPI   GL2 9206   1.276  17.443  10.695  0.0046  0.1468  0.0292
  576loPI   C1A 9207   0.820  17.480  10.430  0.3083 -0.0804 -0.3065
  576loPI   C2A 9208   0.781  17.397   9.963  0.0945  0.1299  0.2059
  576loPI   C3A 9209   0.833  17.428   9.576  0.1437  0.1501 -0.0537
  576loPI   C4A 9210   0.890  17.465   9.064 -0.2507 -0.3715 -0.1889
  576loPI   C5A 9211   1.067  17.607   8.707  0.3481  0.1144  0.1621
  576loPI   C6A 9212   0.858  17.932   8.513  0.2464 -0.1605  0.2192
  576loPI   C1B 9213   1.182  17.211  10.264 -0.0229 -0.1300 -0.0740
  576loPI   C2B 9214   1.260  17.238   9.846  0.1548  0.1607  0.0728
  576loPI   C3B 9215   1.286  17.228   9.487  0.0643 -0.2700  0.0484
  576loPI   C4B 9216   1.354  17.176   9.011 -0.3037 -0.2025  0.2611
  577loPI    C1 9217  17.241   9.840  10.740 -0.0983  0.3720  0.0429
  577loPI    C2 9218  17.425   9.996  11.058  0.0067 -0.0166  0.1788
  577loPI    C3 9219  17.295   9.618  11.069 -0.2405  0.0555 -0.1421
  577loPI   PO4 9220  17.380   9.857  10.590  0.1435 -0.2480  0.0308
  577loPI   GL1 9221  17.439   9.704  10.185  0.0470  0.0084 -0.0752
  577loPI   GL2 9222  17.212   9.941  10.120  0.0687  0.0537  0.2276
  577loPI   C1A 9223  17.356   9.439   9.820 -0.0329 -0.0528 -0.1504
  577loPI   C2A 9224  17.454   9.335   9.412 -0.0219 -0.1906 -0.0967
  577loPI   C3A 9225  17.459   9.395   9.013 -0.2420  0.1185 -0.0084
  577loPI   C4A 9226  17.498   9.271   8.493  0.1429 -0.1264  0.0259
  577loPI   C5A 9227  17.633   8.917   8.193  0.2274 -0.0388  0.4410
  577loPI   C6A 9228  17.527   8.596   8.208 -0.2338 -0.2873 -0.0887
  577loPI   C1B 9229  17.415   9.882   9.721  0.0858  0.3532 -0.0646
  577loPI   C2B 9230  17.408   9.866   9.346 -0.0163 -0.2320  0.0536
  577loPI   C3B 9231  17.468   9.943   8.872 -0.1313 -0.1948 -0.0029
  577loPI   C4B 9232  17.334   9.785   8.447  0.0717 -0.1754 -0.2523
  578loPI    C1 9233  10.984  17.662  11.368 -0.1043  0.1288  0.0936
  578loPI    C2 9234  11.049  17.303  11.533 -0.2965  0.0707  0.0461
  578loPI    C3 9235  11.078  17.635  11.756 -0.0106  0.0352  0.0649
  578loPI   PO4 9236  11.016  17.582  11.107  0.2280 -0.1025 -0.1146
  578loPI   GL1 9237  11.030  17.741  10.793  0.0385  0.0732 -0.0831
  578loPI   GL2 9238  11.116  17.334  10.626  0.0439 -0.0604 -0.2940
  578loPI   C1A 9239  11.070  17.869  10.361  0.0244 -0.0131 -0.0669
  578loPI   C2A 9240  11.058  17.770   9.886  0.2458 -0.0258  0.0321
  578loPI   C3A 9241  11.126  17.731   9.454 -0.3745  0.0473 -0.0287
  578loPI   C4A 9242  11.227  17.802   9.003 -0.0593 -0.1215 -0.2091
  578loPI   C5A 9243  11.433  18.154   8.707 -0.0470 -0.1559  0.0397
  578loPI   C6A 9244  11.881  18.276   8.707 -0.0524  0.0240  0.2132
  578loPI   C1B 9245  11.167  17.345  10.156 -0.1399  0.1435 -0.1531
  578loPI   C2B 9246  11.153  17.313   9.683  0.1167 -0.1823 -0.1540
  578loPI   C3B 9247  11.177  17.280   9.219  0.1387 -0.2146  0.2390
  578loPI   C4B 9248  11.237  17.366   8.732 -0.0231  0.0694 -0.0200
  579loPI    C1 9249   9.500   7.588  11.056 -0.1330  0.0497  0.0213
  579loPI    C2 9250   9.694   7.528  11.401  0.0139 -0.0065 -0.0705
  579loPI    C3 9251   9.338   7.711  11.401  0.0456  0.0566  0.1036
  579loPI   PO4 9252   9.672   7.644  10.921  0.1659  0.1448 -0.0658
  579loPI   GL1 9253   9.822   7.709  10.589 -0.0783 -0.2082  0.3528
  579loPI   GL2 9254  10.124   7.546  10.632  0.1120 -0.2346 -0.0485
  579loPI   C1A 9255   9.728   8.067  10.290 -0.0113 -0.2060  0.0607
  579loPI   C2A 9256   9.713   8.126   9.837  0.1647  0.0687 -0.1904
  579loPI   C3A 9257   9.703   8.131   9.450  0.1362 -0.1571 -0.0881
  579loPI   C4A 9258   9.708   8.083   9.067  0.1265 -0.0763 -0.0144
  579loPI   C5A 9259   9.755   8.224   8.683  0.0169 -0.1157 -0.2350
  579loPI   C6A 9260   9.941   8.421   8.312 -0.1708 -0.0819 -0.0637
  579loPI   C1B 9261  10.166   7.597  10.175 -0.0985  0.0052  0.0027
  579loPI   C2B 9262  10.190   7.868   9.801  0.0445  0.4294  0.0289
  579loPI   C3B 9263  10.206   7.931   9.381  0.0286 -0.4456 -0.0509
  579loPI   C4B 9264  10.185   7.837   8.916  0.1050  0.3772  0.1444
  580loPI    C1 9265  13.341  11.385  11.133  0.2225 -0.1032  0.0506
  580loPI    C2 9266  13.639  11.176  11.299  0.2684  0.0418  0.1519
  580loPI    C3 9267  13.326  11.289  11.521  0.2329  0.0607  0.0922
  580loPI   PO4 9268  13.266  11.263  10.963 -0.1017 -0.1321  0.1435
  580loPI   GL1 9269  13.238  11.445  10.635  0.3829  0.3912 -0.0239
  580loPI   GL2 9270  13.391  11.686  10.505 -0.1357 -0.1087  0.0769
  580loPI   C1A 9271  12.942  11.458  10.409  0.1421 -0.0815  0.5923
  580loPI   C2A 9272  12.944  11.441   9.897  0.2361  0.1614  0.0033
  580loPI   C3A 9273  12.978  11.442   9.421  0.0854  0.0643 -0.0024
  580loPI   C4A 9274  12.859  11.603   9.034  0.0135 -0.1160  0.1097
  580loPI   C5A 9275  12.513  11.723   8.786  0.1848 -0.0824 -0.0906
  580loPI   C6A 9276  12.319  12.098   8.594 -0.2211  0.1310  0.0642
  580loPI   C1B 9277  13.351  11.661  10.102  0.4254 -0.2133 -0.0333
  580loPI   C2B 9278  13.357  11.640   9.721 -0.3311  0.0666  0.4484
  580loPI   C3B 9279  13.358  11.657   9.345 -0.2430 -0.2712  0.2507
  580loPI   C4B 9280  13.269  11.783   8.859  0.1078 -0.0838 -0.0753
  581loPI    C1 9281   6.334   2.855  11.131 -0.2483 -0.3784  0.2370
  581loPI    C2 9282   6.683   2.952  11.300 -0.1744  0.0426 -0.1386
  581loPI    C3 9283   6.364   2.877  11.529  0.1015 -0.1196  0.2012
  581loPI   PO4 9284   6.464   2.761  10.800 -0.0981 -0.0424 -0.1535
  581loPI   GL1 9285   6.187   2.611  10.406  0.0341 -0.3262 -0.2575
  581loPI   GL2 9286   6.474   2.376  10.440 -0.2011  0.0205  0.0900
  581loPI   C1A 9287   6.176   2.446   9.995 -0.2005 -0.2006 -0.0600
  581loPI   C2A 9288   6.197   2.217   9.636  0.1291  0.0942 -0.1233
  581loPI   C3A 9289   6.207   2.110   9.161  0.1081 -0.2610  0.1726
  581loPI   C4A 9290   6.100   2.249   8.682  0.0698 -0.0442 -0.0543
  581loPI   C5A 9291   6.132   2.200   8.329  0.0215 -0.1633  0.0283
  581loPI   C6A 9292   5.781   2.153   7.996 -0.1532  0.2263 -0.1740
  581loPI   C1B 9293   6.547   2.126  10.002 -0.1313 -0.0783 -0.1733
  581loPI   C2B 9294   6.608   1.866   9.693  0.0294 -0.0278  0.2091
  581loPI   C3B 9295   6.623   1.847   9.241 -0.0488 -0.0459 -0.1915
  581loPI   C4B 9296   6.492   1.962   8.797  0.0362 -0.0902 -0.1242
  582loPI    C1 9297  16.494  10.614  10.973 -0.1133  0.1255  0.0853
  582loPI    C2 9298  16.297  10.807  11.263  0.1012  0.0537  0.2828
  582loPI    C3 9299  16.653  10.643  11.339  0.1679  0.0474 -0.0279
  582loPI   PO4 9300  16.504  10.620  10.784 -0.2428  0.3124 -0.2266
  582loPI   GL1 9301  16.537  10.948  10.539  0.1399  0.2351  0.0198
  582loPI   GL2 9302  16.258  11.071  10.776  0.2507 -0.0892  0.0368
  582loPI   C1A 9303  16.560  10.977  10.112 -0.1275  0.1447 -0.0719
  582loPI   C2A 9304  16.523  11.067   9.731  0.0855  0.1770 -0.0599
  582loPI   C3A 9305  16.502  11.043   9.355 -0.0383  0.4055  0.1784
  582loPI   C4A 9306  16.538  11.117   8.938  0.1921 -0.0466 -0.1850
  582loPI   C5A 9307  16.541  11.131   8.462 -0.2121  0.0672  0.0306
  582loPI   C6A 9308  16.262  10.910   8.310  0.2830  0.2456  0.2455
  582loPI   C1B 9309  16.116  11.033  10.337  0.2758 -0.1283  0.1547
  582loPI   C2B 9310  16.121  11.231   9.960 -0.1405  0.0400 -0.0839
  582loPI   C3B 9311  16.093  11.288   9.561  0.0815  0.1272  0.1913
  582loPI   C4B 9312  16.148  11.328   9.141 -0.1106 -0.0069  0.1857
  583loPI    C1 9313   3.837  15.587  11.341 -0.0047 -0.1705  0.0737
  583loPI    C2 9314   3.554  15.595  11.624 -0.1682 -0.0183 -0.0914
  583loPI    C3 9315   3.926  15.480  11.716 -0.2028  0.0963  0.2006
  583loPI   PO4 9316   3.902  15.863  11.196  0.0180 -0.1145  0.0465
  583loPI   GL1 9317   3.744  15.900  10.773 -0.2498 -0.0275 -0.0387
  583loPI   GL2 9318   3.481  16.018  10.710 -0.0655 -0.1752 -0.3532
  583loPI   C1A 9319   3.892  16.203  10.525  0.0487  0.0140 -0.2377
  583loPI   C2A 9320   3.960  16.168  10.109  0.1369  0.2211 -0.1540
  583loPI   C3A 9321   3.926  16.303   9.682 -0.3230 -0.0857 -0.0544
  583loPI   C4A 9322   3.953  16.275   9.295 -0.1181 -0.2174  0.1648
  583loPI   C5A 9323   4.077  16.348   8.803 -0.0469 -0.0619 -0.3833
  583loPI   C6A 9324   3.754  16.390   8.462  0.0068  0.0029 -0.3344
  583loPI   C1B 9325   3.504  15.952  10.257 -0.0892 -0.1128  0.1161
  583loPI   C2B 9326   3.529  15.967   9.800 -0.1941  0.0572 -0.2174
  583loPI   C3B 9327   3.548  16.030   9.370  0.1549  0.2109 -0.1108
  583loPI   C4B 9328   3.644  15.921   8.901 -0.2660 -0.3171  0.1313
  584loPI    C1 9329  12.281   0.315  11.394 -0.1416  0.0591  0.1511
  584loPI    C2 9330  12.272  -0.038  11.582  0.3388 -0.1252 -0.1529
  584loPI    C3 9331  12.496   0.261  11.726  0.1388 -0.0268 -0.0411
  584loPI   PO4 9332  12.262   0.214  11.066  0.2202 -0.1324 -0.0831
  584loPI   GL1 9333  12.091   0.101  10.766 -0.0227  0.2141 -0.0482
  584loPI   GL2 9334  11.885   0.310  10.760  0.1738 -0.2127 -0.0030
  584loPI   C1A 9335  12.022  -0.107  10.434 -0.2553 -0.2519  0.1773
  584loPI   C2A 9336  12.121  -0.108  10.046 -0.5051 -0.2326  0.2946
  584loPI   C3A 9337  12.091  -0.103   9.551 -0.2376 -0.2675 -0.3013
  584loPI   C4A 9338  12.084  -0.076   9.076 -0.0149 -0.0465 -0.0774
  584loPI   C5A 9339  12.253   0.046   8.683 -0.1902  0.0133  0.0765
  584loPI   C6A 9340  12.461   0.107   8.318  0.0482  0.0120 -0.1467
  584loPI   C1B 9341  12.037   0.488  10.483 -0.0081  0.1017 -0.1911
  584loPI   C2B 9342  12.077   0.432  10.017  0.0207  0.0126  0.0722
  584loPI   C3B 9343  12.008   0.398   9.592  0.0842 -0.0347  0.2119
  584loPI   C4B 9344  12.098   0.484   9.170  0.0243  0.0096 -0.1078
  585loPI    C1 9345   4.541  14.826  11.907  0.0768 -0.1009 -0.2380
  585loPI    C2 9346   4.322  14.497  11.847 -0.1666  0.0314 -0.0897
  585loPI    C3 9347   4.570  14.517  12.159 -0.2157  0.0207 -0.0498
  585loPI   PO4 9348   4.691  14.872  11.557  0.1474  0.3887  0.0397
  585loPI   GL1 9349   4.570  15.036  11.107  0.1265 -0.0375 -0.0579
  585loPI   GL2 9350   4.662  14.828  11.027  0.0021 -0.1683 -0.0736
  585loPI   C1A 9351   4.316  15.000  10.658 -0.0709  0.2765 -0.0368
  585loPI   C2A 9352   4.375  14.900  10.215  0.2813  0.0790 -0.2009
  585loPI   C3A 9353   4.373  14.944   9.815 -0.0145 -0.1173 -0.0934
  585loPI   C4A 9354   4.443  14.904   9.430  0.1946 -0.0800  0.2432
  585loPI   C5A 9355   4.376  14.970   8.986 -0.2988  0.0318 -0.0009
  585loPI   C6A 9356   4.142  15.155   8.572 -0.0102  0.1019  0.0611
  585loPI   C1B 9357   4.765  14.710  10.551  0.0807  0.3935  0.2197
  585loPI   C2B 9358   4.822  14.675  10.140 -0.1371 -0.1588  0.2315
  585loPI   C3B 9359   4.873  14.679   9.657 -0.0903 -0.0390  0.4158
  585loPI   C4B 9360   4.802  14.635   9.155 -0.0892 -0.1887 -0.4341
  586loPI    C1 9361   9.955   3.105  11.263  0.1880 -0.1499 -0.0795
  586loPI    C2 9362  10.170   2.887  11.520  0.2385 -0.0045  0.0028
  586loPI    C3 9363   9.915   3.164  11.656  0.3317  0.1359 -0.1049
  586loPI   PO4 9364  10.113   3.120  11.011 -0.1692  0.0407 -0.1634
  586loPI   GL1 9365  10.448   3.245  10.709 -0.0121 -0.1484  0.0393
  586loPI   GL2 9366  10.675   3.328  10.406  0.0294  0.2827  0.4740
  586loPI   C1A 9367  10.273   3.096  10.270  0.1532  0.0382 -0.0234
  586loPI   C2A 9368  10.119   3.252   9.858  0.0387 -0.0324  0.1490
  586loPI   C3A 9369  10.131   3.441   9.447  0.0311  0.0668  0.0526
  586loPI   C4A 9370  10.389   3.411   9.072  0.1745 -0.0487  0.1104
  586loPI   C5A 9371  10.760   3.533   8.840  0.0632  0.0778 -0.1857
  586loPI   C6A 9372  11.186   3.820   8.793 -0.2281  0.2095 -0.0062
  586loPI   C1B 9373  10.865   3.301  10.025 -0.1577 -0.1828 -0.1316
  586loPI   C2B 9374  11.087   3.300   9.756  0.3129 -0.4045  0.0011
  586loPI   C3B 9375  11.487   3.477   9.562 -0.2574  0.2752  0.2236
  586loPI   C4B 9376  11.973   3.584   9.492 -0.1977  0.0783 -0.3567
  587loPI    C1 9377   2.144  16.248  11.429  0.2382 -0.2652  0.1429
  587loPI    C2 9378   1.976  16.046  11.731  0.2179 -0.2202  0.1619
  587loPI    C3 9379   2.362  16.151  11.750  0.0997  0.1970  0.3860
  587loPI   PO4 9380   2.117  16.160  11.221 -0.0026  0.0027  0.1832
  587loPI   GL1 9381   2.173  15.792  11.017  0.3078  0.0257  0.1861
  587loPI   GL2 9382   2.498  15.857  10.895 -0.0024 -0.2116 -0.1018
  587loPI   C1A 9383   2.093  15.728  10.581 -0.2382 -0.0574 -0.1130
  587loPI   C2A 9384   2.153  15.661  10.140 -0.2034  0.3968 -0.1054
  587loPI   C3A 9385   2.097  15.691   9.731 -0.0595 -0.1127 -0.2177
  587loPI   C4A 9386   2.161  15.703   9.275 -0.0776 -0.1722 -0.0390
  587loPI   C5A 9387   2.202  15.826   8.795 -0.0706 -0.4174  0.1019
  587loPI   C6A 9388   2.323  15.676   8.314 -0.2807  0.0240  0.1101
  587loPI   C1B 9389   2.543  15.993  10.533  0.0791  0.1160  0.0974
  587loPI   C2B 9390   2.607  15.984  10.139  0.0898  0.0986  0.1275
  587loPI   C3B 9391   2.580  15.951   9.734 -0.1415 -0.1249  0.1193
  587loPI   C4B 9392   2.577  15.986   9.262  0.1787 -0.0539 -0.0068
  588loPI    C1 9393  10.461  13.003  11.336 -0.0372 -0.2442  0.0161
  588loPI    C2 9394  10.767  12.925  11.582  0.0389  0.1059  0.0388
  588loPI    C3 9395  10.438  13.102  11.723 -0.1352 -0.1743 -0.0072
  588loPI   PO4 9396  10.522  13.091  11.147 -0.3779 -0.0292 -0.1731
  588loPI   GL1 9397  10.647  13.100  10.733  0.3758  0.0276 -0.1305
  588loPI   GL2 9398  10.966  13.125  10.752  0.1146 -0.3362 -0.2134
  588loPI   C1A 9399  10.666  13.341  10.246  0.2416  0.1969 -0.1095
  588loPI   C2A 9400  10.657  13.361   9.794 -0.1463 -0.0689 -0.0879
  588loPI   C3A 9401  10.636  13.254   9.425  0.1783 -0.0673  0.2713
  588loPI   C4A 9402  10.637  13.165   9.022 -0.1662 -0.1162 -0.1295
  588loPI   C5A 9403  10.575  12.826   8.752 -0.0696 -0.0726  0.0371
  588loPI   C6A 9404  10.269  12.689   8.446  0.2570  0.0748  0.1737
  588loPI   C1B 9405  11.204  12.971  10.334  0.0904  0.0326 -0.0498
  588loPI   C2B 9406  11.044  13.072   9.900  0.0473  0.0373 -0.0991
  588loPI   C3B 9407  11.108  13.047   9.484  0.3361  0.1331  0.3492
  588loPI   C4B 9408  11.083  13.008   8.961 -0.2884  0.0674  0.0872
  589loPI    C1 9409   0.371  15.146  11.490  0.1478 -0.1278  0.4191
  589loPI    C2 9410   0.034  15.292  11.647 -0.0915 -0.1060 -0.0959
  589loPI    C3 9411   0.089  14.896  11.624 -0.0202 -0.1090  0.1095
  589loPI   PO4 9412   0.394  15.386  11.304  0.2592 -0.1582  0.0322
  589loPI   GL1 9413   0.733  15.254  10.857  0.0931 -0.0520 -0.0020
  589loPI   GL2 9414   0.436  15.097  10.913 -0.0220 -0.0785 -0.2154
  589loPI   C1A 9415   0.782  15.466  10.436  0.1408 -0.0628 -0.4176
  589loPI   C2A 9416   0.712  15.388   9.950 -0.2400 -0.1319 -0.0224
  589loPI   C3A 9417   0.842  15.386   9.565 -0.3896  0.0088 -0.1579
  589loPI   C4A 9418   0.818  15.392   9.080  0.1513  0.3177 -0.0682
  589loPI   C5A 9419   0.942  15.397   8.745 -0.0616  0.0486  0.1601
  589loPI   C6A 9420   0.691  15.404   8.457  0.4483 -0.1459  0.2338
  589loPI   C1B 9421   0.284  15.117  10.485 -0.0262  0.2322 -0.1893
  589loPI   C2B 9422   0.256  15.128  10.013 -0.0608  0.1189  0.0656
  589loPI   C3B 9423   0.317  15.156   9.617 -0.0903  0.1965 -0.1073
  589loPI   C4B 9424   0.312  15.219   9.242  0.4031  0.4700  0.2208
  590loPI    C1 9425  16.090  12.567  11.367 -0.1855 -0.1696 -0.1171
  590loPI    C2 9426  16.119  12.835  11.663 -0.0953 -0.0995 -0.1886
  590loPI    C3 9427  16.107  12.444  11.748  0.0110 -0.0834 -0.0962
  590loPI   PO4 9428  16.118  12.779  11.136 -0.0585  0.0401  0.1684
  590loPI   GL1 9429  16.197  12.885  10.764 -0.1089  0.1119  0.1910
  590loPI   GL2 9430  16.085  12.764  10.526  0.2331 -0.3909  0.1756
  590loPI   C1A 9431  16.508  12.955  10.403  0.0858 -0.1520  0.1339
  590loPI   C2A 9432  16.520  13.067   9.999  0.0575 -0.3906 -0.1031
  590loPI   C3A 9433  16.551  13.098   9.543 -0.0632  0.0602  0.0694
  590loPI   C4A 9434  16.461  13.099   9.160 -0.1967 -0.1553 -0.0402
  590loPI   C5A 9435  16.439  13.015   8.785 -0.0333 -0.1375  0.3663
  590loPI   C6A 9436  16.448  12.717   8.463 -0.3365 -0.0136 -0.1639
  590loPI   C1B 9437  16.046  12.826  10.083 -0.1686  0.0262  0.1535
  590loPI   C2B 9438  16.051  12.801   9.614  0.1145  0.1107  0.5132
  590loPI   C3B 9439  16.045  12.807   9.174 -0.3645  0.1953  0.0197
  590loPI   C4B 9440  15.929  12.889   8.745 -0.0187 -0.1649 -0.2072
  591loPI    C1 9441   5.122   2.803  11.343 -0.1947  0.3156 -0.1210
  591loPI    C2 9442   5.166   3.043  11.660  0.1547  0.2095 -0.0855
  591loPI    C3 9443   4.956   2.704  11.693  0.2724  0.1495  0.0614
  591loPI   PO4 9444   5.094   2.914  11.145  0.2471  0.1497  0.1648
  591loPI   GL1 9445   5.139   2.769  10.747  0.3014 -0.4198  0.5035
  591loPI   GL2 9446   4.921   2.898  10.497 -0.1777 -0.2352 -0.2923
  591loPI   C1A 9447   5.309   2.305  10.677 -0.1701 -0.4153 -0.2734
  591loPI   C2A 9448   5.300   2.244  10.191  0.2202 -0.0113 -0.0151
  591loPI   C3A 9449   5.370   2.272   9.753  0.0614 -0.1562  0.1848
  591loPI   C4A 9450   5.434   2.284   9.337  0.2646  0.2000 -0.0608
  591loPI   C5A 9451   5.705   2.424   9.012  0.1919  0.1409 -0.0187
  591loPI   C6A 9452   5.862   2.683   8.755  0.0685 -0.2169  0.4270
  591loPI   C1B 9453   5.170   2.794  10.162  0.2561  0.1350  0.0603
  591loPI   C2B 9454   5.369   3.061   9.920  0.0952  0.0424  0.3738
  591loPI   C3B 9455   5.667   3.282   9.566  0.1430 -0.2170 -0.0605
  591loPI   C4B 9456   5.311   3.309   9.275  0.3476 -0.3481 -0.0389
  592loPI    C1 9457   0.601   2.930  11.371  0.1010  0.1444 -0.1774
  592loPI    C2 9458   0.588   3.112  11.727  0.1077 -0.0254 -0.0895
  592loPI    C3 9459   0.326   2.823  11.640  0.0042  0.1240 -0.2833
  592loPI   PO4 9460   0.551   3.083  11.220  0.2692 -0.1339 -0.1119
  592loPI   GL1 9461   0.773   3.291  10.850  0.2341  0.0718 -0.1375
  592loPI   GL2 9462   0.957   2.923  10.950 -0.0229 -0.0097 -0.0725
  592loPI   C1A 9463   0.844   3.385  10.438  0.3765 -0.0222 -0.1644
  592loPI   C2A 9464   0.871   3.336   9.977 -0.3673 -0.0306 -0.1711
  592loPI   C3A 9465   0.919   3.391   9.512 -0.1004 -0.0381  0.0441
  592loPI   C4A 9466   0.869   3.331   9.141 -0.1822  0.3026  0.1944
  592loPI   C5A 9467   0.797   3.285   8.659 -0.2165  0.1582  0.0843
  592loPI   C6A 9468   0.384   3.359   8.368 -0.0275 -0.1223  0.0162
  592loPI   C1B 9469   0.931   2.767  10.477  0.1381 -0.3816  0.0514
  592loPI   C2B 9470   0.962   2.926  10.200  0.2047  0.2434 -0.0601
  592loPI   C3B 9471   0.906   2.809   9.781 -0.3743  0.2179 -0.1158
  592loPI   C4B 9472   0.970   2.810   9.302 -0.1647 -0.1624 -0.1799
  593loPI    C1 9473   3.776   6.806  11.078 -0.3485  0.1764  0.0479
  593loPI    C2 9474   3.769   6.848  11.476  0.0483 -0.3440  0.1205
  593loPI    C3 9475   4.066   6.643  11.302 -0.0337  0.0112 -0.4623
  593loPI   PO4 9476   3.732   7.074  11.038  0.0551 -0.1080  0.0761
  593loPI   GL1 9477   3.531   7.048  10.626  0.3272 -0.1417  0.0495
  593loPI   GL2 9478   3.532   7.398  10.636 -0.0176 -0.4281 -0.0069
  593loPI   C1A 9479   3.633   7.158  10.215  0.0145  0.0779  0.0640
  593loPI   C2A 9480   3.562   7.216   9.686  0.0372 -0.1681 -0.1196
  593loPI   C3A 9481   3.560   7.123   9.308 -0.1954  0.1691 -0.1520
  593loPI   C4A 9482   3.680   7.021   9.025  0.1059  0.0905 -0.1824
  593loPI   C5A 9483   3.455   6.921   8.673 -0.2592  0.0692  0.0452
  593loPI   C6A 9484   3.474   6.607   8.376  0.1746 -0.1530 -0.0779
  593loPI   C1B 9485   3.468   7.683  10.273  0.1880  0.1688  0.1684
  593loPI   C2B 9486   3.545   7.653   9.875  0.4968 -0.1443 -0.1453
  593loPI   C3B 9487   3.519   7.645   9.483  0.0423  0.1199 -0.1097
  593loPI   C4B 9488   3.593   7.545   9.091  0.2033 -0.1374  0.2785
  594loPI    C1 9489  12.792  11.408  11.507  0.0854 -0.1517  0.3891
  594loPI    C2 9490  12.844  11.103  11.254  0.0317  0.0416  0.1406
  594loPI    C3 9491  12.910  11.052  11.645 -0.0794 -0.3160  0.1167
  594loPI   PO4 9492  12.539  11.497  11.370  0.0696  0.1191  0.0000
  594loPI   GL1 9493  12.501  11.290  10.918 -0.1564  0.1595 -0.3059
  594loPI   GL2 9494  12.452  11.611  10.826  0.2637  0.1746  0.1790
  594loPI   C1A 9495  12.477  11.062  10.529 -0.1850  0.1095  0.1240
  594loPI   C2A 9496  12.513  11.199  10.131 -0.2372 -0.0571  0.0456
  594loPI   C3A 9497  12.487  11.143   9.691  0.1410  0.1902 -0.2201
  594loPI   C4A 9498  12.459  11.301   9.223 -0.1393 -0.0060 -0.5803
  594loPI   C5A 9499  12.420  11.154   8.804 -0.2370  0.1005 -0.1674
  594loPI   C6A 9500  12.824  11.346   8.577 -0.0109 -0.0708  0.1787
  594loPI   C1B 9501  12.476  11.635  10.448  0.4336  0.1488  0.2730
  594loPI   C2B 9502  12.491  11.654   9.993  0.1605 -0.3809 -0.0149
  594loPI   C3B 9503  12.517  11.669   9.583  0.0499 -0.0551 -0.1833
  594loPI   C4B 9504  12.453  11.814   9.249  0.1100  0.0979 -0.1639
  595loPI    C1 9505  12.461  17.394  11.838 -0.1753  0.1755 -0.2646
  595loPI    C2 9506  12.472  17.699  12.096  0.1572 -0.1429  0.1125
  595loPI    C3 9507  12.127  17.511  12.023  0.0180  0.0954  0.1467
  595loPI   PO4 9508  12.620  17.513  11.596  0.0620 -0.3318  0.2263
  595loPI   GL1 9509  12.430  17.537  11.179 -0.0680 -0.1766 -0.3105
  595loPI   GL2 9510  12.727  17.584  11.059  0.1567 -0.2431 -0.1888
  595loPI   C1A 9511  12.339  17.445  10.756 -0.0308 -0.2153  0.2977
  595loPI   C2A 9512  12.414  17.405  10.359 -0.1211 -0.1270 -0.0021
  595loPI   C3A 9513  12.510  17.478   9.927  0.1031 -0.0605  0.0391
  595loPI   C4A 9514  12.564  17.433   9.589  0.1108  0.1681  0.3216
  595loPI   C5A 9515  12.491  17.558   9.253  0.0119  0.1221  0.1482
  595loPI   C6A 9516  12.692  17.693   8.945  0.2817 -0.2234 -0.1818
  595loPI   C1B 9517  12.856  17.698  10.666  0.0729  0.1071 -0.1659
  595loPI   C2B 9518  12.832  17.679  10.246  0.4984  0.0627 -0.0408
  595loPI   C3B 9519  13.022  17.686   9.829 -0.1366  0.0114 -0.0790
  595loPI   C4B 9520  12.994  17.732   9.439  0.0373  0.2519 -0.0511
  596loPI    C1 9521  16.970   4.088  11.099  0.0612  0.0954 -0.2296
  596loPI    C2 9522  17.024   3.784  11.353 -0.1850 -0.0426 -0.3391
  596loPI    C3 9523  17.190   4.140  11.429 -0.0185 -0.1618 -0.1339
  596loPI   PO4 9524  16.963   3.970  10.851 -0.2314 -0.0319 -0.0321
  596loPI   GL1 9525  17.148   4.162  10.616 -0.3560  0.1938  0.0132
  596loPI   GL2 9526  16.937   4.350  10.382 -0.1218 -0.6087 -0.3605
  596loPI   C1A 9527  17.371   4.192  10.147 -0.2392  0.1985  0.1490
  596loPI   C2A 9528  17.428   4.166   9.649 -0.0295  0.1572  0.0829
  596loPI   C3A 9529  17.565   4.138   9.203 -0.1948 -0.0305 -0.0254
  596loPI   C4A 9530  17.557   4.129   8.775 -0.1593  0.0991  0.0224
  596loPI   C5A 9531  17.315   4.160   8.380 -0.0062  0.0157  0.1913
  596loPI   C6A 9532  17.244   4.369   8.078  0.0858 -0.1564 -0.1492
  596loPI   C1B 9533  16.969   4.360   9.870 -0.1771  0.0528  0.1832
  596loPI   C2B 9534  16.970   4.423   9.508 -0.2643  0.4469  0.0260
  596loPI   C3B 9535  17.111   4.478   8.964 -0.0852 -0.2760 -0.5270
  596loPI   C4B 9536  17.048   4.564   8.597 -0.2267 -0.1198 -0.0833
  597loPI    C1 9537   8.530   3.703  10.890  0.0802 -0.2689  0.2478
  597loPI    C2 9538   8.654   4.071  10.987 -0.1063 -0.1620  0.0864
  597loPI    C3 9539   8.422   3.865  11.240 -0.2535 -0.0464  0.0471
  597loPI   PO4 9540   8.809   3.696  10.675  0.2701 -0.0015  0.0569
  597loPI   GL1 9541   8.861   3.365  10.324 -0.0758 -0.0747  0.0629
  597loPI   GL2 9542   9.115   3.549  10.242  0.4172 -0.0368 -0.3250
  597loPI   C1A 9543   8.561   3.545  10.004  0.0916 -0.1502 -0.1573
  597loPI   C2A 9544   8.423   3.619   9.660  0.4348 -0.2205  0.0705
  597loPI   C3A 9545   8.164   3.531   9.312  0.0239  0.2774  0.1880
  597loPI   C4A 9546   8.338   3.665   8.792  0.1915  0.0652  0.2160
  597loPI   C5A 9547   8.213   3.989   8.395  0.0092 -0.1664 -0.4026
  597loPI   C6A 9548   8.442   4.388   8.416  0.2594 -0.1334 -0.1801
  597loPI   C1B 9549   8.970   3.360   9.825  0.1677 -0.0650 -0.0415
  597loPI   C2B 9550   9.156   3.379   9.475  0.0824 -0.2325  0.2583
  597loPI   C3B 9551   9.169   3.212   8.995 -0.0316 -0.0530  0.2974
  597loPI   C4B 9552   9.259   2.891   8.634  0.0834 -0.0634  0.0040
  598loPI    C1 9553   9.155  12.630  11.387  0.0155 -0.0678  0.0411
  598loPI    C2 9554   8.796  12.593  11.558 -0.1605  0.2382 -0.2497
  598loPI    C3 9555   9.113  12.697  11.779 -0.2712  0.0832 -0.0133
  598loPI   PO4 9556   9.066  12.886  11.204 -0.1128  0.2009  0.2789
  598loPI   GL1 9557   8.981  13.034  10.742 -0.0859 -0.2117 -0.0661
  598loPI   GL2 9558   8.702  12.855  10.764 -0.2141 -0.2150 -0.1050
  598loPI   C1A 9559   8.876  12.959  10.236  0.1499 -0.0459  0.1103
  598loPI   C2A 9560   8.882  12.901   9.865 -0.2239 -0.1686  0.1145
  598loPI   C3A 9561   8.928  12.852   9.396 -0.1414 -0.2342  0.0073
  598loPI   C4A 9562   8.794  12.652   9.039 -0.1239 -0.1114  0.0992
  598loPI   C5A 9563   8.410  12.603   8.700 -0.3024 -0.2454 -0.3012
  598loPI   C6A 9564   8.405  12.739   8.339 -0.1915 -0.1739 -0.1044
  598loPI   C1B 9565   8.541  12.699  10.492 -0.0730 -0.0045 -0.2726
  598loPI   C2B 9566   8.453  12.513  10.042  0.1325  0.4148  0.5552
  598loPI   C3B 9567   8.521  12.505   9.655 -0.1573  0.4414 -0.1457
  598loPI   C4B 9568   8.372  12.561   9.303  0.0368  0.1004 -0.3983
  599loPI    C1 9569  16.089  13.813  11.298  0.0858  0.0754 -0.1128
  599loPI    C2 9570  16.279  14.090  11.515 -0.2055  0.0359  0.2009
  599loPI    C3 9571  16.210  13.727  11.669 -0.0591 -0.1279 -0.1108
  599loPI   PO4 9572  16.092  13.790  11.069 -0.0224  0.0281 -0.3469
  599loPI   GL1 9573  16.043  13.870  10.679 -0.1190  0.0515  0.0581
  599loPI   GL2 9574  16.307  14.041  10.598 -0.3969 -0.0729 -0.0763
  599loPI   C1A 9575  16.000  13.753  10.180 -0.2035  0.1792 -0.0392
  599loPI   C2A 9576  16.021  13.754   9.614 -0.0420 -0.0979 -0.0348
  599loPI   C3A 9577  16.120  13.776   9.195  0.0590 -0.1869  0.1095
  599loPI   C4A 9578  16.260  13.884   8.844  0.0410 -0.0195 -0.0679
  599loPI   C5A 9579  16.141  13.904   8.394  0.0805  0.3980  0.0808
  599loPI   C6A 9580  15.934  13.753   8.013  0.4294 -0.0834  0.1436
  599loPI   C1B 9581  16.479  14.071  10.201 -0.2540  0.1872  0.1823
  599loPI   C2B 9582  16.479  14.030   9.741  0.0569 -0.3036 -0.0740
  599loPI   C3B 9583  16.550  14.066   9.311 -0.1853 -0.0478  0.3636
  599loPI   C4B 9584  16.609  14.204   8.896 -0.3132 -0.1732 -0.2428
  600loPI    C1 9585   3.606  15.024  11.678 -0.1654  0.0211 -0.1031
  600loPI    C2 9586   3.260  15.179  11.803 -0.0789  0.2282 -0.1164
  600loPI    C3 9587   3.583  15.196  12.038 -0.0599  0.0959 -0.1318
  600loPI   PO4 9588   3.709  15.134  11.449  0.2232  0.3123 -0.0807
  600loPI   GL1 9589   3.623  15.268  11.012  0.1064  0.3259  0.1837
  600loPI   GL2 9590   3.449  15.521  10.817  0.1755  0.1097  0.0688
  600loPI   C1A 9591   3.780  15.226  10.651 -0.0332  0.1129 -0.1808
  600loPI   C2A 9592   3.919  15.151  10.293 -0.0860  0.0121  0.2428
  600loPI   C3A 9593   3.969  15.203   9.854 -0.0167 -0.0515 -0.0350
  600loPI   C4A 9594   3.979  15.214   9.426  0.1181  0.0689 -0.0700
  600loPI   C5A 9595   3.796  15.285   9.024  0.0559  0.1578 -0.0070
  600loPI   C6A 9596   3.532  15.454   8.776 -0.1276 -0.1557 -0.2763
  600loPI   C1B 9597   3.471  15.467  10.387  0.2739 -0.2051  0.1297
  600loPI   C2B 9598   3.529  15.453  10.034  0.0678  0.0851  0.0536
  600loPI   C3B 9599   3.596  15.463   9.664  0.1708  0.1118 -0.1047
  600loPI   C4B 9600   3.559  15.513   9.360  0.0982 -0.2248  0.0223
  601loPI    C1 9601  17.292   0.239  11.520  0.0974  0.2458  0.0491
  601loPI    C2 9602  17.395   0.000  11.824 -0.2385 -0.1890 -0.1664
  601loPI    C3 9603  17.081   0.246  11.860 -0.1127 -0.0401 -0.0712
  601loPI   PO4 9604  17.293   0.093  11.299  0.3270  0.1265 -0.3906
  601loPI   GL1 9605  17.326   0.127  10.868  0.0159  0.1835 -0.3045
  601loPI   GL2 9606  17.081  -0.159  10.875 -0.1565  0.2068  0.4640
  601loPI   C1A 9607  17.563   0.071  10.466 -0.0925 -0.1966 -0.3473
  601loPI   C2A 9608  17.852   0.144  10.148  0.0845 -0.0258 -0.2590
  601loPI   C3A 9609  17.881   0.128   9.723  0.1687  0.0419  0.2289
  601loPI   C4A 9610  17.962   0.081   9.349 -0.1321 -0.1897  0.0796
  601loPI   C5A 9611  17.846   0.184   8.923 -0.1227 -0.1292 -0.1408
  601loPI   C6A 9612  17.899   0.437   8.598 -0.2003  0.4541  0.1863
  601loPI   C1B 9613  17.265  -0.364  10.535  0.1777 -0.0066  0.1638
  601loPI   C2B 9614  17.262  -0.228  10.142  0.3497  0.1235  0.0018
  601loPI   C3B 9615  17.381  -0.093   9.751  0.1448 -0.1498 -0.0035
  601loPI   C4B 9616  17.478  -0.032   9.325  0.0573 -0.1266 -0.0115
  602loPI    C1 9617  10.325  12.013  11.443 -0.0152 -0.0621  0.0731
  602loPI    C2 9618  10.149  12.232  11.727 -0.0903  0.0399 -0.0507
  602loPI    C3 9619  10.328  11.887  11.822 -0.1433  0.0572  0.1144
  602loPI   PO4 9620  10.108  12.206  11.125  0.0128 -0.1569 -0.1819
  602loPI   GL1 9621  10.085  12.228  10.685  0.0750 -0.1541 -0.2835
  602loPI   GL2 9622  10.311  12.437  10.523  0.0057 -0.2320 -0.3023
  602loPI   C1A 9623   9.889  12.280  10.252  0.0488 -0.1634 -0.1703
  602loPI   C2A 9624   9.798  12.247   9.826 -0.0177  0.1140 -0.0670
  602loPI   C3A 9625   9.792  12.210   9.438  0.0624 -0.3440 -0.0891
  602loPI   C4A 9626   9.742  12.292   9.005 -0.0811  0.0143  0.1462
  602loPI   C5A 9627   9.588  12.211   8.580  0.1034 -0.2276 -0.0918
  602loPI   C6A 9628   9.673  11.976   8.160 -0.1691 -0.1581 -0.2033
  602loPI   C1B 9629  10.317  12.530  10.146 -0.0208 -0.0792 -0.0633
  602loPI   C2B 9630  10.167  12.571   9.694  0.1988 -0.1293  0.0020
  602loPI   C3B 9631  10.148  12.475   9.161  0.1962  0.1307 -0.0110
  602loPI   C4B 9632  10.118  12.350   8.734  0.3357 -0.4349 -0.0766
  603loPI    C1 9633   8.976   4.567  10.619 -0.2515 -0.0550  0.0769
  603loPI    C2 9634   8.692   4.848  10.613 -0.2023 -0.0078 -0.1760
  603loPI    C3 9635   8.989   4.868  10.881 -0.3956 -0.0182  0.0423
  603loPI   PO4 9636   8.796   4.355  10.604  0.0149 -0.0954 -0.0148
  603loPI   GL1 9637   8.827   4.046  10.278  0.0666 -0.1091 -0.1098
  603loPI   GL2 9638   8.918   4.324  10.104  0.3066 -0.0957  0.2570
  603loPI   C1A 9639   9.020   3.886   9.934 -0.0732 -0.0491 -0.0226
  603loPI   C2A 9640   8.850   3.805   9.569  0.3681  0.3361  0.4057
  603loPI   C3A 9641   8.852   3.728   9.126  0.2894  0.1434  0.2444
  603loPI   C4A 9642   9.002   3.599   8.722 -0.0125  0.0082  0.4075
  603loPI   C5A 9643   9.227   3.352   8.505  0.0217 -0.0039  0.3167
  603loPI   C6A 9644   9.204   3.081   8.157  0.0811 -0.3203  0.0223
  603loPI   C1B 9645   8.936   4.393   9.634 -0.1516 -0.0482 -0.0835
  603loPI   C2B 9646   8.988   4.290   9.107  0.1190 -0.2346  0.1032
  603loPI   C3B 9647   9.165   4.185   8.855 -0.0217 -0.1228  0.4685
  603loPI   C4B 9648   9.335   4.428   8.495  0.1016  0.0462 -0.2162
  604loPI    C1 9649  13.587  17.686  11.867 -0.1135  0.1041  0.1121
  604loPI    C2 9650  13.751  17.575  12.215 -0.0269  0.0442  0.0524
  604loPI    C3 9651  13.372  17.702  12.204 -0.0577 -0.0379  0.1551
  604loPI   PO4 9652  13.705  17.445  11.686 -0.1333  0.0459 -0.1670
  604loPI   GL1 9653  13.687  17.521  11.171  0.1232 -0.1748  0.1053
  604loPI   GL2 9654  13.482  17.221  11.114  0.1497 -0.0634  0.4272
  604loPI   C1A 9655  13.783  17.727  10.763  0.2980  0.0692  0.0282
  604loPI   C2A 9656  13.750  17.790  10.394  0.1027 -0.1134  0.1106
  604loPI   C3A 9657  13.821  17.733  10.050  0.0243  0.0041  0.1294
  604loPI   C4A 9658  13.818  17.812   9.571 -0.0414  0.2729  0.1595
  604loPI   C5A 9659  13.803  17.727   9.082  0.2790  0.1938 -0.2353
  604loPI   C6A 9660  14.142  17.484   8.817  0.0873  0.3320  0.1616
  604loPI   C1B 9661  13.703  17.195  10.627  0.1443 -0.0225 -0.0311
  604loPI   C2B 9662  13.820  17.258  10.163  0.0296  0.2519  0.0431
  604loPI   C3B 9663  13.902  17.151   9.688 -0.2003  0.1982 -0.2502
  604loPI   C4B 9664  13.939  17.229   9.199 -0.3828 -0.3085 -0.1041
  605loPI    C1 9665  13.012   2.887  11.357 -0.1284 -0.0170 -0.3120
  605loPI    C2 9666  13.086   2.514  11.481  0.0443  0.0765 -0.1279
  605loPI    C3 9667  13.352   2.804  11.551 -0.1809  0.2765 -0.0884
  605loPI   PO4 9668  13.028   2.792  11.037 -0.2598  0.1091  0.1583
  605loPI   GL1 9669  13.097   2.495  10.657  0.0315 -0.2662 -0.2264
  605loPI   GL2 9670  13.300   2.231  10.627 -0.1088 -0.2132  0.2677
  605loPI   C1A 9671  12.940   2.471  10.314  0.0412  0.3819 -0.3740
  605loPI   C2A 9672  12.921   2.600   9.858  0.1272  0.2360 -0.0434
  605loPI   C3A 9673  13.018   2.478   9.486  0.0896 -0.0705  0.3337
  605loPI   C4A 9674  12.993   2.573   9.087 -0.0832 -0.0418 -0.2844
  605loPI   C5A 9675  12.862   2.484   8.628  0.0667 -0.1757 -0.1841
  605loPI   C6A 9676  12.711   2.504   8.160  0.2069  0.0712 -0.0091
  605loPI   C1B 9677  13.416   2.237  10.254 -0.1002 -0.0870  0.1586
  605loPI   C2B 9678  13.425   2.299   9.818 -0.1207 -0.1847  0.4134
  605loPI   C3B 9679  13.429   2.258   9.298  0.2466  0.1133  0.3255
  605loPI   C4B 9680  13.370   2.283   8.814 -0.0231 -0.0323 -0.0933
  606loPI    C1 9681  13.759   1.162  11.397 -0.1147  0.0572 -0.0622
  606loPI    C2 9682  13.992   1.137  11.721 -0.0164 -0.2359 -0.1520
  606loPI    C3 9683  13.629   0.970  11.723 -0.0720 -0.1160 -0.1459
  606loPI   PO4 9684  13.994   1.082  11.191 -0.1358  0.4029  0.0521
  606loPI   GL1 9685  14.275   0.952  10.822 -0.0221 -0.2034  0.1833
  606loPI   GL2 9686  14.041   0.738  10.843 -0.1372  0.0188  0.1058
  606loPI   C1A 9687  14.273   1.205  10.387  0.0406  0.0003 -0.0700
  606loPI   C2A 9688  14.307   1.101   9.936 -0.0818  0.2849 -0.0791
  606loPI   C3A 9689  14.296   1.195   9.477  0.2380 -0.2580 -0.1230
  606loPI   C4A 9690  14.301   1.040   9.084  0.0752 -0.0406 -0.1771
  606loPI   C5A 9691  14.462   0.913   8.713  0.1972 -0.0315 -0.1413
  606loPI   C6A 9692  14.818   0.679   8.605 -0.0722  0.1451 -0.0050
  606loPI   C1B 9693  14.240   0.686  10.416  0.1488  0.0704 -0.1843
  606loPI   C2B 9694  14.275   0.603   9.961  0.0697  0.0887 -0.1821
  606loPI   C3B 9695  14.245   0.670   9.470 -0.1411  0.1446  0.1953
  606loPI   C4B 9696  14.289   0.505   9.101 -0.0468 -0.0366  0.0353
  607loPI    C1 9697   1.736   7.612  11.103  0.0888 -0.1130  0.1168
  607loPI    C2 9698   1.346   7.569  11.181  0.0279  0.0444 -0.0922
  607loPI    C3 9699   1.567   7.818  11.401  0.0242 -0.0876  0.0627
  607loPI   PO4 9700   1.745   7.625  10.892 -0.4262  0.2973 -0.2156
  607loPI   GL1 9701   1.861   7.724  10.494 -0.2421  0.1365  0.1512
  607loPI   GL2 9702   1.689   7.938  10.351 -0.0196  0.3066  0.1079
  607loPI   C1A 9703   1.723   7.481  10.076  0.1322  0.1036 -0.0244
  607loPI   C2A 9704   1.853   7.533   9.622  0.0283  0.3162 -0.0663
  607loPI   C3A 9705   1.826   7.544   9.073  0.0049 -0.0813 -0.1208
  607loPI   C4A 9706   1.887   7.470   8.578 -0.0568  0.1916  0.0223
  607loPI   C5A 9707   1.701   7.314   8.110  0.0016 -0.1318  0.1269
  607loPI   C6A 9708   1.558   7.330   7.714 -0.1632  0.1133  0.3780
  607loPI   C1B 9709   1.782   7.958   9.948 -0.2463 -0.3530 -0.1481
  607loPI   C2B 9710   1.809   8.164   9.596  0.1528 -0.0977 -0.0658
  607loPI   C3B 9711   1.825   8.116   9.075  0.2017  0.1094 -0.0412
  607loPI   C4B 9712   1.705   8.065   8.751  0.1350  0.1413  0.0128
  608loPI    C1 9713   6.759   4.223  11.094  0.0701  0.1571  0.3366
  608loPI    C2 9714   6.360   4.249  11.083  0.0803  0.2020 -0.0415
  608loPI    C3 9715   6.572   4.523  11.282 -0.0720  0.2233  0.0941
  608loPI   PO4 9716   6.727   4.144  10.781  0.0598  0.5216  0.1444
  608loPI   GL1 9717   6.781   3.990  10.339 -0.0433  0.1133  0.1414
  608loPI   GL2 9718   6.537   3.779  10.491  0.2794  0.0016  0.1644
  608loPI   C1A 9719   6.783   4.059   9.910 -0.1197  0.1807 -0.1169
  608loPI   C2A 9720   6.802   4.150   9.588 -0.1073 -0.1131 -0.2372
  608loPI   C3A 9721   6.987   4.181   9.192 -0.1479 -0.0257  0.2047
  608loPI   C4A 9722   7.025   3.925   8.723 -0.1568  0.1359 -0.1732
  608loPI   C5A 9723   6.816   3.670   8.334 -0.2505 -0.0062 -0.0409
  608loPI   C6A 9724   6.743   3.876   8.031  0.1812  0.0715  0.2793
  608loPI   C1B 9725   6.573   3.595  10.057 -0.2537 -0.0824  0.0530
  608loPI   C2B 9726   6.667   3.619   9.606 -0.2164 -0.0220 -0.1224
  608loPI   C3B 9727   6.720   3.762   9.201  0.2588  0.2284  0.2058
  608loPI   C4B 9728   6.686   3.563   8.796 -0.2228 -0.0297 -0.2390
  609POPI    C1 9729   3.377   2.789  11.141 -0.0175  0.0175  0.0791
  609POPI    C2 9730   3.514   2.651  11.490 -0.0841  0.0254  0.1086
  609POPI    C3 9731   3.444   3.042  11.445  0.2067  0.0668 -0.0091
  609POPI   PO4 9732   3.499   2.533  10.965 -0.0225  0.2270 -0.1644
  609POPI   GL1 9733   3.604   2.333  10.545  0.0766 -0.3325 -0.2335
  609POPI   GL2 9734   3.846   2.545  10.673  0.1782 -0.1117 -0.3218
  609POPI   C1A 9735   3.584   2.246  10.123 -0.2129  0.1470  0.0736
  609POPI   D2A 9736   3.633   2.200   9.675 -0.0875 -0.1001 -0.2729
  609POPI   C3A 9737   3.525   2.156   9.186 -0.0319 -0.0831  0.3930
  609POPI   C4A 9738   3.451   2.237   8.803 -0.6402  0.0914  0.3059
  609POPI   C1B 9739   3.996   2.497  10.250 -0.0850 -0.1164 -0.0087
  609POPI   C2B 9740   4.063   2.464   9.709 -0.2356 -0.0148 -0.3706
  609POPI   C3B 9741   4.179   2.535   9.285 -0.0563 -0.2745  0.0980
  609POPI   C4B 9742   4.072   2.378   8.994  0.1137  0.2224 -0.0597
  610POPI    C1 9743  14.442   8.652  11.083 -0.1091  0.1383  0.0121
  610POPI    C2 9744  14.265   8.519  11.416  0.2592 -0.1858  0.0855
  610POPI    C3 9745  14.584   8.759  11.441 -0.0006  0.1811 -0.0434
  610POPI   PO4 9746  14.455   8.479  10.949  0.1277  0.2838 -0.1315
  610POPI   GL1 9747  14.174   8.398  10.662 -0.1481 -0.0566 -0.1774
  610POPI   GL2 9748  13.857   8.725  10.534 -0.0184  0.0339  0.3753
  610POPI   C1A 9749  14.191   8.400  10.257 -0.0290 -0.2159  0.0066
  610POPI   D2A 9750  14.301   8.504   9.795  0.0081 -0.0432  0.3434
  610POPI   C3A 9751  14.306   8.614   9.288 -0.2626  0.2087  0.0611
  610POPI   C4A 9752  14.383   8.682   8.782 -0.0137 -0.0659 -0.1685
  610POPI   C1B 9753  13.840   8.716  10.058 -0.1531 -0.0238  0.1419
  610POPI   C2B 9754  13.914   8.806   9.609 -0.2846  0.0284 -0.1208
  610POPI   C3B 9755  13.861   8.862   9.182  0.0057 -0.0105  0.4428
  610POPI   C4B 9756  13.806   9.025   8.709  0.0637  0.2706  0.1727
  611POPI    C1 9757   8.577   8.064  11.111 -0.0030 -0.0781 -0.0446
  611POPI    C2 9758   8.924   7.928  11.256  0.0159  0.0092 -0.0075
  611POPI    C3 9759   8.842   8.320  11.267  0.0879  0.0382 -0.3818
  611POPI   PO4 9760   8.613   8.033  10.828  0.0605 -0.1912 -0.0912
  611POPI   GL1 9761   8.412   7.912  10.518  0.1019  0.3453  0.2137
  611POPI   GL2 9762   8.393   8.362  10.490  0.2082 -0.1182  0.2246
  611POPI   C1A 9763   8.275   7.899  10.088  0.1859  0.1870  0.1349
  611POPI   D2A 9764   8.433   7.724   9.757 -0.0548 -0.0007 -0.1418
  611POPI   C3A 9765   8.681   7.464   9.997  0.2631 -0.0469  0.2632
  611POPI   C4A 9766   8.730   7.016   9.845  0.2650  0.0823  0.0775
  611POPI   C1B 9767   8.375   8.361   9.998 -0.0579 -0.2512  0.2217
  611POPI   C2B 9768   8.323   8.295   9.667  0.1942 -0.0292 -0.4253
  611POPI   C3B 9769   8.291   8.035   9.341  0.2159 -0.0700  0.2082
  611POPI   C4B 9770   8.471   7.813   8.999 -0.0145 -0.3213 -0.1607
  612POPI    C1 9771  15.378   9.756  11.110  0.1329 -0.0831 -0.0586
  612POPI    C2 9772  15.728   9.634  11.260  0.1511  0.0748  0.0291
  612POPI    C3 9773  15.455   9.801  11.500  0.1432  0.2435 -0.0959
  612POPI   PO4 9774  15.483   9.810  10.736  0.2677 -0.1138 -0.0498
  612POPI   GL1 9775  15.291   9.609  10.486  0.0836 -0.4190 -0.0865
  612POPI   GL2 9776  15.083   9.521  10.318 -0.1547  0.1834  0.0624
  612POPI   C1A 9777  15.601   9.783  10.138  0.3393  0.3290  0.1220
  612POPI   D2A 9778  15.597   9.908   9.675 -0.0500 -0.0403  0.0673
  612POPI   C3A 9779  15.921   9.698   9.557  0.3064 -0.2324 -0.1568
  612POPI   C4A 9780  16.076   9.671   9.142  0.0301  0.0690  0.1438
  612POPI   C1B 9781  15.150   9.537   9.858 -0.2826  0.2778 -0.3697
  612POPI   C2B 9782  15.166   9.656   9.503  0.2804 -0.0305 -0.0869
  612POPI   C3B 9783  15.178   9.690   9.029 -0.0108 -0.1977 -0.1596
  612POPI   C4B 9784  15.246   9.780   8.742  0.2064 -0.3818 -0.3394
  613POPI    C1 9785   0.471   2.187  11.463 -0.0292  0.0283  0.0670
  613POPI    C2 9786   0.212   1.935  11.635 -0.0633 -0.0088 -0.0376
  613POPI    C3 9787   0.187   2.328  11.706 -0.1410 -0.0135 -0.0387
  613POPI   PO4 9788   0.427   2.059  11.064  0.1078  0.0624  0.3127
  613POPI   GL1 9789   0.399   1.729  10.799  0.0030  0.1834  0.0812
  613POPI   GL2 9790   0.430   1.913  10.531 -0.0228  0.0072 -0.1363
  613POPI   C1A 9791   0.452   1.402  10.462  0.0037  0.2503 -0.1879
  613POPI   D2A 9792   0.469   1.478  10.114 -0.1998 -0.1194  0.3413
  613POPI   C3A 9793   0.465   1.448   9.641 -0.1985  0.0705  0.2603
  613POPI   C4A 9794   0.583   1.475   9.237  0.0126  0.0261 -0.0445
  613POPI   C1B 9795   0.450   2.115  10.101  0.4907 -0.0633 -0.3157
  613POPI   C2B 9796   0.499   2.010   9.653  0.0412 -0.0174 -0.2232
  613POPI   C3B 9797   0.621   2.003   9.238 -0.0995  0.0630 -0.1554
  613POPI   C4B 9798   0.776   2.080   8.802 -0.0358 -0.0761  0.0057
  614POPI    C1 9799   3.625  16.169  11.512  0.1971 -0.1405 -0.0299
  614POPI    C2 9800   3.689  16.320  11.877  0.3036 -0.3789  0.0523
  614POPI    C3 9801   3.381  16.073  11.814  0.0897 -0.0802 -0.0971
  614POPI   PO4 9802   3.628  16.321  11.346 -0.0566 -0.1953  0.0674
  614POPI   GL1 9803   3.734  16.440  10.922  0.0387  0.0392 -0.0121
  614POPI   GL2 9804   3.467  16.508  10.680 -0.0017  0.1888 -0.0312
  614POPI   C1A 9805   3.940  16.741  10.570 -0.1055  0.1797 -0.1044
  614POPI   D2A 9806   3.986  16.749  10.096  0.0717 -0.0071  0.0713
  614POPI   C3A 9807   3.935  16.828   9.616  0.1467  0.1388  0.3322
  614POPI   C4A 9808   3.963  16.776   9.142 -0.1562 -0.0959 -0.3047
  614POPI   C1B 9809   3.533  16.532  10.241 -0.1619 -0.0099  0.1049
  614POPI   C2B 9810   3.481  16.588   9.819  0.0048  0.1015 -0.0276
  614POPI   C3B 9811   3.553  16.540   9.343 -0.1901  0.0050  0.0914
  614POPI   C4B 9812   3.559  16.493   8.912 -0.0141 -0.2367  0.0901
  615POPI    C1 9813   8.008   4.606  11.061  0.0629  0.0836 -0.0063
  615POPI    C2 9814   8.210   4.277  10.957  0.0711  0.0153  0.2187
  615POPI    C3 9815   8.186   4.383  11.342 -0.3049  0.0334  0.1947
  615POPI   PO4 9816   8.073   4.816  10.927 -0.0737 -0.0829  0.0008
  615POPI   GL1 9817   7.890   4.817  10.513 -0.3104 -0.1138 -0.1451
  615POPI   GL2 9818   7.844   5.139  10.490 -0.0501  0.1197  0.0759
  615POPI   C1A 9819   8.200   4.824  10.152 -0.0300 -0.1502  0.0041
  615POPI   D2A 9820   8.543   4.679   9.825  0.1338  0.1275 -0.0288
  615POPI   C3A 9821   8.476   4.343   9.378 -0.0608  0.1007  0.0807
  615POPI   C4A 9822   8.414   3.962   9.231  0.2043 -0.2751 -0.0977
  615POPI   C1B 9823   7.877   5.193  10.018  0.0896 -0.0995  0.1360
  615POPI   C2B 9824   7.954   5.074   9.608  0.1227 -0.0107 -0.1350
  615POPI   C3B 9825   7.939   5.231   9.202  0.1508 -0.0518 -0.2812
  615POPI   C4B 9826   7.989   5.221   8.746  0.1322 -0.4149 -0.0239
  616POPI    C1 9827   6.628  11.289  11.445  0.1017  0.2047  0.0536
  616POPI    C2 9828   6.660  11.072  11.779 -0.2059  0.0620 -0.0061
  616POPI    C3 9829   6.979  11.265  11.635  0.0070 -0.1353  0.1926
  616POPI   PO4 9830   6.433  11.129  11.257 -0.1484  0.1654 -0.1323
  616POPI   GL1 9831   6.373  11.189  10.849 -0.0800 -0.0592 -0.0380
  616POPI   GL2 9832   6.153  11.462  10.712  0.0052 -0.0440  0.1064
  616POPI   C1A 9833   6.576  11.173  10.438  0.2057  0.1587 -0.1322
  616POPI   D2A 9834   6.669  10.989   9.987 -0.2318  0.3448  0.2430
  616POPI   C3A 9835   6.661  11.009   9.485  0.1787 -0.1563  0.1573
  616POPI   C4A 9836   6.614  10.999   9.036 -0.1512 -0.0924 -0.1811
  616POPI   C1B 9837   6.177  11.384  10.248  0.0438  0.2938 -0.2195
  616POPI   C2B 9838   6.211  11.279   9.829  0.3448 -0.0846  0.1766
  616POPI   C3B 9839   6.204  11.349   9.410  0.2893 -0.1163 -0.2122
  616POPI   C4B 9840   6.162  11.390   8.962 -0.0849 -0.1859 -0.2299
  617POPI    C1 9841  11.656   3.585  11.125  0.0478 -0.0609  0.0041
  617POPI    C2 9842  11.403   3.366  11.344  0.0181  0.0035  0.0341
  617POPI    C3 9843  11.751   3.484  11.500 -0.0050  0.0527  0.0484
  617POPI   PO4 9844  11.761   3.487  10.841  0.0422  0.3754 -0.4515
  617POPI   GL1 9845  11.815   3.630  10.444 -0.2542 -0.0895  0.1354
  617POPI   GL2 9846  11.968   3.787  10.227 -0.0808 -0.3174 -0.0154
  617POPI   C1A 9847  11.833   3.250  10.054  0.0370 -0.1112  0.1367
  617POPI   D2A 9848  11.940   3.144   9.743  0.1872 -0.2391 -0.0033
  617POPI   C3A 9849  11.783   2.823   9.692  0.1943  0.0145 -0.1464
  617POPI   C4A 9850  11.631   2.646   9.285  0.1866  0.4719 -0.0228
  617POPI   C1B 9851  11.916   3.898   9.867 -0.0887 -0.2924 -0.1813
  617POPI   C2B 9852  11.984   4.058   9.404 -0.1100 -0.3154 -0.3793
  617POPI   C3B 9853  11.918   4.408   9.232 -0.6456 -0.0887 -0.1837
  617POPI   C4B 9854  12.040   4.709   8.866 -0.3696 -0.1910 -0.0463
  618POPI    C1 9855  13.636   2.608  11.069  0.0831  0.0149  0.2317
  618POPI    C2 9856  13.359   2.325  11.129 -0.1061  0.1393 -0.0345
  618POPI    C3 9857  13.673   2.355  11.376 -0.0091 -0.3913 -0.0829
  618POPI   PO4 9858  13.591   2.660  10.842 -0.1799  0.1676 -0.1265
  618POPI   GL1 9859  13.698   2.595  10.478  0.0625 -0.3428 -0.1785
  618POPI   GL2 9860  14.065   2.452  10.540 -0.0659  0.0613  0.0706
  618POPI   C1A 9861  13.817   2.439  10.106  0.0390  0.0270 -0.0531
  618POPI   D2A 9862  13.888   2.503   9.654  0.2314  0.0029 -0.3347
  618POPI   C3A 9863  13.858   2.549   9.207 -0.1811 -0.2991  0.2159
  618POPI   C4A 9864  13.862   2.600   8.777 -0.2224 -0.0158 -0.0828
  618POPI   C1B 9865  14.273   2.202  10.240 -0.0857 -0.2021 -0.0640
  618POPI   C2B 9866  14.311   2.207   9.752  0.2970 -0.1258  0.0517
  618POPI   C3B 9867  14.281   2.293   9.265 -0.0175 -0.0086  0.0104
  618POPI   C4B 9868  14.399   2.322   8.844  0.2438 -0.0494  0.2282
  619POPI    C1 9869   4.616   4.762  11.218 -0.1893 -0.2611  0.3377
  619POPI    C2 9870   4.339   4.478  11.263 -0.5161 -0.0241 -0.0965
  619POPI    C3 9871   4.389   4.755  11.547 -0.4609 -0.2834  0.1528
  619POPI   PO4 9872   4.754   4.658  11.053  0.0987  0.4143  0.2589
  619POPI   GL1 9873   4.743   4.731  10.690  0.1351 -0.0317  0.1500
  619POPI   GL2 9874   5.115   4.581  10.539  0.1271 -0.1469 -0.0810
  619POPI   C1A 9875   4.631   4.533  10.301 -0.0564  0.0140  0.0924
  619POPI   D2A 9876   4.820   4.473   9.858 -0.0031 -0.1667 -0.1983
  619POPI   C3A 9877   4.741   4.494   9.535 -0.2794  0.2798 -0.0046
  619POPI   C4A 9878   4.532   4.429   9.048 -0.1355 -0.0551  0.3368
  619POPI   C1B 9879   4.960   4.862  10.145 -0.1430  0.1629  0.4395
  619POPI   C2B 9880   4.831   5.057   9.714  0.1233 -0.0941  0.1925
  619POPI   C3B 9881   4.800   4.946   9.344  0.0830  0.3263  0.1924
  619POPI   C4B 9882   4.669   4.891   8.914  0.2462  0.0509 -0.0141
  620POPI    C1 9883   0.066   5.090  11.187  0.0512 -0.0265 -0.0083
  620POPI    C2 9884   0.104   5.467  11.315 -0.1158 -0.0694  0.1723
  620POPI    C3 9885   0.104   5.165  11.578  0.0942 -0.2033  0.0222
  620POPI   PO4 9886   0.178   5.030  10.951  0.1811  0.1867  0.0244
  620POPI   GL1 9887   0.317   5.127  10.526  0.1098  0.0262 -0.0441
  620POPI   GL2 9888   0.468   5.432  10.553  0.0724 -0.2364  0.1774
  620POPI   C1A 9889   0.424   5.183  10.142  0.1623 -0.0753 -0.0984
  620POPI   D2A 9890   0.461   5.075   9.699 -0.1685  0.1996  0.2254
  620POPI   C3A 9891   0.599   5.202   9.362 -0.0040  0.2862  0.1879
  620POPI   C4A 9892   0.488   5.161   9.012  0.0524 -0.0275 -0.1033
  620POPI   C1B 9893   0.824   5.448  10.294 -0.0208  0.2448  0.4821
  620POPI   C2B 9894   0.826   5.403   9.858  0.0070 -0.4805 -0.1093
  620POPI   C3B 9895   1.054   5.502   9.412  0.2736 -0.1685  0.1503
  620POPI   C4B 9896   0.963   5.369   9.010  0.3233 -0.0702  0.0828
  621POPI    C1 9897  11.824   4.095  10.952 -0.0070 -0.1166  0.1161
  621POPI    C2 9898  11.458   4.241  11.023 -0.0365 -0.1077 -0.0500
  621POPI    C3 9899  11.767   4.354  11.252 -0.1595 -0.2131  0.1715
  621POPI   PO4 9900  11.874   4.110  10.779 -0.0363  0.1591  0.1037
  621POPI   GL1 9901  12.061   4.286  10.436  0.1238 -0.0662 -0.0359
  621POPI   GL2 9902  11.710   4.229  10.279  0.2824  0.0616  0.2938
  621POPI   C1A 9903  12.221   4.259  10.044 -0.0880  0.2111  0.1633
  621POPI   D2A 9904  12.388   4.372   9.547 -0.1666  0.2037  0.0570
  621POPI   C3A 9905  12.385   4.163   9.099  0.1644  0.2953  0.4472
  621POPI   C4A 9906  12.540   4.421   8.865 -0.2663 -0.0170  0.2193
  621POPI   C1B 9907  11.747   4.324   9.808 -0.0541  0.0389  0.1816
  621POPI   C2B 9908  11.471   4.528   9.479  0.1877 -0.1527  0.1120
  621POPI   C3B 9909  11.426   4.544   9.017 -0.2887  0.3136 -0.2357
  621POPI   C4B 9910  11.324   4.532   8.593  0.1071 -0.0901  0.2936
  622POPI    C1 9911   7.758  11.594  11.483  0.0995  0.1297 -0.1719
  622POPI    C2 9912   7.436  11.472  11.687  0.0540  0.0879 -0.2676
  622POPI    C3 9913   7.696  11.726  11.855  0.0278  0.0381 -0.1510
  622POPI   PO4 9914   7.743  11.519  11.266  0.0116  0.0240 -0.3209
  622POPI   GL1 9915   8.177  11.414  10.997 -0.0596 -0.0032  0.2310
  622POPI   GL2 9916   8.146  11.591  10.852 -0.3666 -0.1374  0.0001
  622POPI   C1A 9917   8.028  11.199  10.562 -0.1410 -0.2357 -0.1410
  622POPI   D2A 9918   8.072  11.195  10.118 -0.1292 -0.1126  0.1499
  622POPI   C3A 9919   8.001  11.273   9.652  0.0584  0.2388 -0.1882
  622POPI   C4A 9920   7.913  11.202   9.295  0.2515  0.0826  0.2682
  622POPI   C1B 9921   8.085  11.729  10.419  0.1652  0.0500  0.0209
  622POPI   C2B 9922   7.996  11.756  10.015 -0.0165  0.0793 -0.1875
  622POPI   C3B 9923   7.965  11.777   9.505 -0.0542  0.3766 -0.1746
  622POPI   C4B 9924   7.830  11.953   9.086 -0.1818  0.1750  0.0486
  623POPI    C1 9925   7.446  17.080  11.412 -0.0119  0.1991  0.0628
  623POPI    C2 9926   7.702  17.275  11.648  0.0503 -0.0542  0.2086
  623POPI    C3 9927   7.581  16.907  11.746 -0.1867 -0.0293  0.0180
  623POPI   PO4 9928   7.455  17.172  11.193  0.1126  0.2793  0.3056
  623POPI   GL1 9929   7.660  17.115  10.851 -0.1821 -0.0388  0.1102
  623POPI   GL2 9930   7.958  16.983  10.819  0.2476  0.2788  0.1205
  623POPI   C1A 9931   7.519  17.313  10.534 -0.1430  0.0703  0.0049
  623POPI   D2A 9932   7.503  17.258  10.133 -0.0377  0.0333  0.0098
  623POPI   C3A 9933   7.554  17.275   9.702 -0.1857 -0.0702  0.0608
  623POPI   C4A 9934   7.542  17.274   9.307  0.1678  0.0090  0.0322
  623POPI   C1B 9935   7.942  17.064  10.367 -0.0771 -0.0210  0.1780
  623POPI   C2B 9936   7.886  16.949   9.904  0.0784  0.2182 -0.1309
  623POPI   C3B 9937   7.901  16.959   9.452 -0.0700  0.0101  0.3263
  623POPI   C4B 9938   7.890  16.922   8.979 -0.0071  0.0412  0.1663
  624POPI    C1 9939   6.505   6.102  11.148  0.0342  0.0553  0.1257
  624POPI    C2 9940   6.866   6.147  11.314  0.0590 -0.0054  0.0885
  624POPI    C3 9941   6.721   5.780  11.245  0.0779  0.0191 -0.0855
  624POPI   PO4 9942   6.477   6.239  11.013  0.4609  0.0061  0.0983
  624POPI   GL1 9943   6.299   6.164  10.620  0.0044  0.0715 -0.2382
  624POPI   GL2 9944   6.508   6.146  10.465  0.4237 -0.0910 -0.1461
  624POPI   C1A 9945   6.063   6.175  10.273 -0.1384 -0.2283 -0.2204
  624POPI   D2A 9946   6.095   6.043   9.837 -0.0367  0.1429 -0.0440
  624POPI   C3A 9947   6.054   6.238   9.424  0.0014  0.0853 -0.0637
  624POPI   C4A 9948   6.029   6.556   9.186  0.0952  0.0929  0.0015
  624POPI   C1B 9949   6.584   6.250  10.063 -0.0213  0.5791  0.2798
  624POPI   C2B 9950   6.690   6.493   9.698  0.1046 -0.0805  0.2281
  624POPI   C3B 9951   6.777   6.893   9.388 -0.2865  0.1818  0.1477
  624POPI   C4B 9952   6.382   6.912   9.124  0.0529 -0.1514 -0.0464
  625DPPI    C1 9953  14.492  10.642  11.238 -0.1133  0.0884  0.0867
  625DPPI    C2 9954  14.785  10.510  11.477 -0.0716  0.0953  0.0394
  625DPPI    C3 9955  14.491  10.737  11.627  0.1935  0.4752  0.0003
  625DPPI   PO4 9956  14.557  10.712  11.058 -0.1996 -0.1761  0.0969
  625DPPI   GL1 9957  14.308  10.745  10.599 -0.1080 -0.0118 -0.1404
  625DPPI   GL2 9958  14.136  10.465  10.462  0.1495  0.1488  0.0836
  625DPPI   C1A 9959  14.589  10.756  10.333  0.3782 -0.1719 -0.1637
  625DPPI   C2A 9960  14.636  10.821   9.863  0.0130  0.3703 -0.0546
  625DPPI   C3A 9961  14.664  10.907   9.381  0.0159  0.0682  0.0861
  625DPPI   C4A 9962  14.685  10.852   9.013  0.1688  0.2111  0.3184
  625DPPI   C1B 9963  14.196  10.508  10.155  0.2560 -0.0543  0.0844
  625DPPI   C2B 9964  14.267  10.536   9.724 -0.1710  0.1802 -0.1376
  625DPPI   C3B 9965  14.205  10.612   9.420 -0.2592  0.0351  0.2409
  625DPPI   C4B 9966  14.129  10.652   9.028  0.0012 -0.2507  0.0440
  626DPPI    C1 9967  10.158   6.847  11.229 -0.1983 -0.0258 -0.0249
  626DPPI    C2 9968  10.349   6.496  11.256 -0.2815 -0.0641  0.0745
  626DPPI    C3 9969  10.165   6.648  11.577 -0.1655  0.1167  0.0569
  626DPPI   PO4 9970  10.060   6.825  11.003  0.1990  0.0778 -0.2106
  626DPPI   GL1 9971   9.903   7.114  10.690 -0.1689  0.0072  0.2989
  626DPPI   GL2 9972   9.683   7.178  10.662 -0.0182  0.0364 -0.2402
  626DPPI   C1A 9973  10.162   7.097  10.445 -0.2782 -0.0519  0.2443
  626DPPI   C2A 9974  10.189   7.128  10.094  0.2650  0.1386 -0.2744
  626DPPI   C3A 9975  10.147   7.298   9.691  0.0139 -0.1066  0.0406
  626DPPI   C4A 9976  10.251   7.409   9.234 -0.2395  0.0890 -0.0962
  626DPPI   C1B 9977   9.704   7.359  10.296  0.0217 -0.0094  0.2260
  626DPPI   C2B 9978   9.744   7.614   9.928 -0.0176 -0.0254  0.0358
  626DPPI   C3B 9979   9.835   7.648   9.455  0.0829  0.0855  0.1436
  626DPPI   C4B 9980   9.821   7.520   9.094  0.0322  0.0227  0.0776
  627DPPI    C1 9981  12.898   5.118  10.933  0.1778  0.0530  0.1064
  627DPPI    C2 9982  13.223   5.124  11.167  0.0637  0.0228  0.2668
  627DPPI    C3 9983  12.912   4.890  11.261  0.0498 -0.0522  0.0394
  627DPPI   PO4 9984  12.971   5.124  10.730  0.0235 -0.2656 -0.1503
  627DPPI   GL1 9985  13.106   5.308  10.360  0.2325  0.2764  0.1967
  627DPPI   GL2 9986  12.815   5.478  10.362  0.2824  0.2264  0.1906
  627DPPI   C1A 9987  13.318   5.394   9.972 -0.0929 -0.0443  0.0138
  627DPPI   C2A 9988  13.337   5.442   9.529  0.0998  0.1305  0.1080
  627DPPI   C3A 9989  13.335   5.448   9.013 -0.2514 -0.0848 -0.1972
  627DPPI   C4A 9990  13.326   5.545   8.653 -0.0737 -0.1182  0.2164
  627DPPI   C1B 9991  12.905   5.702  10.044 -0.2318 -0.1391 -0.0930
  627DPPI   C2B 9992  12.972   5.748   9.604  0.1980  0.0486  0.0372
  627DPPI   C3B 9993  12.875   5.699   9.176 -0.1791  0.0090  0.4202
  627DPPI   C4B 9994  12.842   5.747   8.693  0.0127 -0.1352  0.1239
  628DPPI    C1 9995  15.636   4.952  11.321 -0.2017 -0.6268 -0.0424
  628DPPI    C2 9996  15.456   5.253  11.514  0.1832 -0.3405 -0.1173
  628DPPI    C3 9997  15.477   4.891  11.683 -0.0613 -0.2635  0.0854
  628DPPI   PO4 9998  15.623   4.925  11.055 -0.0033  0.1121 -0.2391
  628DPPI   GL1 9999  15.834   4.885  10.747 -0.2380 -0.0500  0.1005
  628DPPI   GL210000  15.938   5.090  10.596  0.1238  0.1808  0.1629
  628DPPI   C1A10001  15.636   4.637  10.388 -0.0438 -0.1370 -0.1143
  628DPPI   C2A10002  15.651   4.557  10.010 -0.2041  0.0493 -0.0758
  628DPPI   C3A10003  15.565   4.605   9.628  0.3062 -0.1408  0.1036
  628DPPI   C4A10004  15.643   4.749   9.237 -0.2495 -0.1495 -0.1271
  628DPPI   C1B10005  16.125   4.909  10.200 -0.0044 -0.1216 -0.0696
  628DPPI   C2B10006  16.094   4.789   9.869  0.1661 -0.2693 -0.0989
  628DPPI   C3B10007  16.078   4.880   9.455  0.1124 -0.2042  0.1590
  628DPPI   C4B10008  16.149   4.986   9.009 -0.1068 -0.3858  0.0386
  629DPPI    C110009   8.503   1.104  11.411 -0.1566 -0.2034  0.0613
  629DPPI    C210010   8.110   1.169  11.448 -0.1307  0.0644 -0.1095
  629DPPI    C310011   8.371   1.420  11.618 -0.0318 -0.2266  0.1781
  629DPPI   PO410012   8.570   1.053  11.133 -0.3024 -0.0235 -0.0630
  629DPPI   GL110013   8.733   1.074  10.805 -0.1937 -0.0503  0.0856
  629DPPI   GL210014   8.985   0.889  10.692  0.1492 -0.2243 -0.1688
  629DPPI   C1A10015   8.495   1.086  10.480  0.1868 -0.1133 -0.0126
  629DPPI   C2A10016   8.409   0.896  10.095 -0.3187  0.1082 -0.1043
  629DPPI   C3A10017   8.390   0.858   9.642  0.4106 -0.2828 -0.5793
  629DPPI   C4A10018   8.440   0.779   9.214  0.2449 -0.1162  0.3154
  629DPPI   C1B10019   8.873   0.793  10.301  0.1601  0.1618  0.1155
  629DPPI   C2B10020   8.845   0.662   9.855  0.0071  0.0997 -0.3148
  629DPPI   C3B10021   8.836   0.612   9.496  0.1486 -0.0390 -0.1070
  629DPPI   C4B10022   8.918   0.582   8.986  0.0234  0.2869 -0.3011
  630DPPI    C110023   6.711   5.134  10.787  0.0553 -0.0301  0.0454
  630DPPI    C210024   6.870   5.316  11.106  0.0616  0.1151 -0.0397
  630DPPI    C310025   6.645   4.989  11.154 -0.0629  0.2234  0.1265
  630DPPI   PO410026   6.663   5.340  10.590  0.0303  0.2492  0.1140
  630DPPI   GL110027   6.263   5.401  10.436 -0.1613 -0.1185 -0.0026
  630DPPI   GL210028   6.285   5.697  10.366 -0.0879  0.0902  0.0745
  630DPPI   C1A10029   6.463   5.263  10.009  0.3000 -0.1094 -0.0858
  630DPPI   C2A10030   6.640   4.827   9.913 -0.0880  0.1926  0.1688
  630DPPI   C3A10031   6.823   4.693   9.580  0.0475 -0.4597 -0.4057
  630DPPI   C4A10032   7.230   4.528   9.526  0.0865  0.0128 -0.0496
  630DPPI   C1B10033   6.468   5.747  10.021 -0.1504  0.0280  0.0543
  630DPPI   C2B10034   6.629   5.909   9.620 -0.0819 -0.0307  0.1222
  630DPPI   C3B10035   6.691   5.882   9.068 -0.0046  0.1537  0.1307
  630DPPI   C4B10036   6.705   5.812   8.644 -0.2373  0.2041 -0.1031
  631DPPI    C110037  10.155   1.330  11.263 -0.0544 -0.0166 -0.0201
  631DPPI    C210038  10.025   1.097  11.561 -0.2561  0.1233  0.0033
  631DPPI    C310039  10.066   1.491  11.618  0.0989  0.0946 -0.0311
  631DPPI   PO410040   9.921   1.324  11.076  0.0713 -0.1362 -0.1522
  631DPPI   GL110041   9.978   1.630  10.807  0.0565  0.1895 -0.1787
  631DPPI   GL210042  10.329   1.666  10.893 -0.2032  0.1983  0.1516
  631DPPI   C1A10043   9.835   1.335  10.421 -0.0648 -0.1344 -0.2506
  631DPPI   C2A10044   9.797   1.264   9.891  0.2147  0.0167 -0.1168
  631DPPI   C3A10045   9.818   1.144   9.381 -0.1982  0.1387 -0.0806
  631DPPI   C4A10046   9.657   1.192   8.907  0.1724 -0.1731  0.0745
  631DPPI   C1B10047  10.316   1.626  10.488  0.1200  0.1426 -0.1725
  631DPPI   C2B10048  10.172   1.502  10.062  0.1142 -0.0195  0.0345
  631DPPI   C3B10049  10.228   1.462   9.644 -0.1800 -0.0202  0.1666
  631DPPI   C4B10050  10.250   1.370   9.222 -0.1625 -0.2987  0.1536
  632DPPI    C110051   5.710   4.899  11.340  0.1128 -0.0417  0.0973
  632DPPI    C210052   5.949   5.214  11.405  0.1105 -0.0170 -0.0116
  632DPPI    C310053   5.583   5.203  11.567  0.1880 -0.0590  0.1630
  632DPPI   PO410054   5.602   4.880  11.037 -0.0804  0.0396  0.0514
  632DPPI   GL110055   5.502   5.147  10.585 -0.2252 -0.1702  0.1594
  632DPPI   GL210056   5.447   4.948  10.350  0.0922 -0.5050  0.1197
  632DPPI   C1A10057   5.715   5.300  10.230  0.0895 -0.0743  0.1780
  632DPPI   C2A10058   6.029   5.439   9.967  0.0632  0.0783  0.1274
  632DPPI   C3A10059   6.292   5.447   9.590  0.2693  0.1931 -0.1160
  632DPPI   C4A10060   6.509   5.427   9.200  0.2519 -0.0317  0.1063
  632DPPI   C1B10061   5.573   4.994   9.876  0.0588  0.2073 -0.3106
  632DPPI   C2B10062   5.730   5.336   9.483 -0.0730 -0.0392 -0.1157
  632DPPI   C3B10063   5.572   5.633   9.088 -0.0443  0.0129  0.1848
  632DPPI   C4B10064   5.724   5.693   8.763 -0.1627  0.0020 -0.0528
  633DPPI    C110065  15.936  12.115  11.277 -0.0518  0.1636  0.1669
  633DPPI    C210066  16.073  11.784  11.455  0.1492  0.2373  0.1512
  633DPPI    C310067  15.830  12.032  11.654  0.4507  0.3698  0.3612
  633DPPI   PO410068  15.948  11.943  10.993 -0.0293 -0.2455  0.0043
  633DPPI   GL110069  16.024  12.088  10.526  0.0328 -0.0372  0.2057
  633DPPI   GL210070  15.631  11.923  10.411 -0.0885  0.2351 -0.0452
  633DPPI   C1A10071  16.086  12.245  10.109 -0.2247 -0.0869 -0.1087
  633DPPI   C2A10072  16.029  12.279   9.723 -0.2870  0.0937 -0.1117
  633DPPI   C3A10073  16.070  12.311   9.281 -0.2857 -0.0176  0.1334
  633DPPI   C4A10074  16.154  12.426   8.873  0.0148  0.0730 -0.0775
  633DPPI   C1B10075  15.653  11.991   9.916 -0.1838  0.1525 -0.3334
  633DPPI   C2B10076  15.617  12.014   9.556  0.4609  0.4113  0.1417
  633DPPI   C3B10077  15.658  12.019   9.126 -0.0503 -0.1955 -0.0452
  633DPPI   C4B10078  15.504  11.964   8.766 -0.1408 -0.0038  0.0499
  634DPPI    C110079   7.002  17.289  11.554 -0.0254  0.2909  0.2234
  634DPPI    C210080   7.089  16.938  11.726 -0.2152  0.0194 -0.2165
  634DPPI    C310081   7.143  17.279  11.929  0.0463 -0.2545  0.1903
  634DPPI   PO410082   6.938  17.208  11.317 -0.0802 -0.0644  0.4339
  634DPPI   GL110083   7.128  17.392  10.855  0.0013  0.0566  0.3628
  634DPPI   GL210084   7.086  17.021  10.839 -0.2851  0.1607  0.0708
  634DPPI   C1A10085   7.186  17.610  10.434  0.0732 -0.0067 -0.0230
  634DPPI   C2A10086   7.102  17.603  10.024 -0.0298  0.3177  0.0640
  634DPPI   C3A10087   7.113  17.597   9.561  0.1950  0.1954  0.1466
  634DPPI   C4A10088   7.041  17.478   9.091 -0.0992 -0.1994  0.0165
  634DPPI   C1B10089   7.088  17.083  10.405 -0.1332  0.2905 -0.1595
  634DPPI   C2B10090   7.018  17.045   9.944  0.0505 -0.2111  0.0284
  634DPPI   C3B10091   7.084  17.126   9.493 -0.0052  0.0578  0.2678
  634DPPI   C4B10092   7.109  16.975   9.140  0.0843  0.0332  0.3226
  635PYPI    C110093   5.271   5.446  10.864 -0.0392  0.1496  0.0500
  635PYPI    C210094   5.249   5.358  11.254  0.1768  0.1350  0.0601
  635PYPI    C310095   5.606   5.399  11.078  0.0805  0.1077 -0.1444
  635PYPI   PO410096   5.011   5.536  10.838 -0.1742  0.0516  0.1391
  635PYPI   GL110097   4.781   5.688  10.437 -0.1326 -0.3924  0.0410
  635PYPI   GL210098   4.797   5.292  10.479 -0.0460  0.0198  0.0881
  635PYPI   C1A10099   4.740   5.515   9.976  0.0171  0.0705  0.2585
  635PYPI   C2A10100   4.642   5.675   9.604  0.3308 -0.1081 -0.0209
  635PYPI   D3A10101   4.749   6.048   9.257  0.1128 -0.0054  0.1883
  635PYPI   C4A10102   4.750   6.070   8.761  0.1351  0.2999  0.1925
  635PYPI   C1B10103   5.159   5.402  10.223 -0.0695  0.5388  0.1987
  635PYPI   C2B10104   5.389   5.489   9.910 -0.1141  0.0390 -0.0763
  635PYPI   C3B10105   5.183   5.370   9.496 -0.0505 -0.1353  0.0212
  635PYPI   C4B10106   4.933   5.514   9.200  0.0527 -0.0362  0.0844
  636PYPI    C110107   4.063  10.975  11.701 -0.0516  0.0835  0.0813
  636PYPI    C210108   4.412  11.091  11.858  0.1712 -0.2178 -0.1777
  636PYPI    C310109   4.286  10.714  11.907 -0.1127 -0.1154 -0.1007
  636PYPI   PO410110   4.102  11.008  11.445 -0.2262 -0.2688 -0.1459
  636PYPI   GL110111   3.902  11.020  11.094  0.1907  0.0789  0.0144
  636PYPI   GL210112   3.995  11.352  11.071  0.4728 -0.0523  0.0570
  636PYPI   C1A10113   3.929  10.923  10.723  0.1236 -0.0617  0.1253
  636PYPI   C2A10114   3.880  10.975  10.226 -0.0773 -0.2318  0.3022
  636PYPI   D3A10115   3.876  10.996   9.834 -0.1151  0.3597  0.0877
  636PYPI   C4A10116   3.925  10.949   9.447  0.2969 -0.2953  0.1152
  636PYPI   C1B10117   3.960  11.503  10.722  0.0401 -0.1186  0.0480
  636PYPI   C2B10118   3.941  11.578  10.333  0.0817  0.3082 -0.0725
  636PYPI   C3B10119   3.935  11.458   9.957  0.0839 -0.0030 -0.1899
  636PYPI   C4B10120   3.978  11.559   9.452  0.1782 -0.0728 -0.2358
  637PYPI    C110121  16.956   3.280  11.322 -0.1498 -0.0581  0.0529
  637PYPI    C210122  17.306   3.384  11.486  0.0245 -0.1231 -0.2686
  637PYPI    C310123  17.112   3.059  11.617  0.1135 -0.1213 -0.1298
  637PYPI   PO410124  17.084   3.279  11.021  0.0310 -0.2154  0.0098
  637PYPI   GL110125  17.280   3.301  10.614 -0.1424  0.0885  0.0395
  637PYPI   GL210126  17.321   2.998  10.614 -0.1458  0.1034  0.1567
  637PYPI   C1A10127  17.010   3.238  10.261 -0.1472  0.0223  0.0816
  637PYPI   C2A10128  17.003   3.344   9.814 -0.1465  0.2089 -0.0131
  637PYPI   D3A10129  17.016   3.240   9.403 -0.0289  0.1932 -0.2030
  637PYPI   C4A10130  16.936   3.547   9.001  0.1057  0.1510 -0.4644
  637PYPI   C1B10131  17.511   3.028  10.191  0.3382 -0.0717 -0.2409
  637PYPI   C2B10132  17.430   3.129   9.780 -0.3320 -0.1219  0.0566
  637PYPI   C3B10133  17.484   3.012   9.401 -0.0621 -0.0117 -0.3086
  637PYPI   C4B10134  17.400   3.126   9.028  0.1990 -0.2944  0.0226
  638PYPI    C110135   6.819  14.180  11.533  0.2124 -0.0662 -0.1661
  638PYPI    C210136   7.190  14.105  11.662  0.1631 -0.0584 -0.0189
  638PYPI    C310137   7.069  14.483  11.608  0.2075 -0.0639 -0.1595
  638PYPI   PO410138   6.808  14.057  11.309  0.0471 -0.0216  0.0541
  638PYPI   GL110139   6.953  13.912  10.915 -0.2097 -0.0041 -0.1394
  638PYPI   GL210140   6.566  14.125  10.883  0.0584 -0.0985 -0.1692
  638PYPI   C1A10141   7.110  13.817  10.443  0.0799 -0.1954  0.0015
  638PYPI   C2A10142   7.096  13.797   9.974 -0.0617  0.2066  0.2056
  638PYPI   D3A10143   7.175  13.872   9.480  0.2369 -0.1834 -0.1629
  638PYPI   C4A10144   7.153  13.947   9.052  0.1547  0.1657  0.1789
  638PYPI   C1B10145   6.614  14.154  10.467 -0.2084 -0.3014 -0.0296
  638PYPI   C2B10146   6.666  14.081  10.080 -0.1725 -0.2406  0.0185
  638PYPI   C3B10147   6.673  14.096   9.742  0.1526 -0.2614  0.0596
  638PYPI   C4B10148   6.684  14.158   9.284  0.1956  0.1478 -0.2538
  639PYPI    C110149   3.148   3.657  11.212  0.1728 -0.1903 -0.0928
  639PYPI    C210150   3.168   3.899  11.530 -0.0565 -0.1131 -0.1354
  639PYPI    C310151   3.353   3.544  11.537 -0.0157 -0.0895  0.0631
  639PYPI   PO410152   2.848   3.598  11.250 -0.2895  0.2097 -0.0198
  639PYPI   GL110153   2.585   3.781  10.874 -0.0557  0.1586  0.0765
  639PYPI   GL210154   2.537   3.384  10.906  0.0606  0.0728  0.0303
  639PYPI   C1A10155   2.545   3.947  10.479 -0.1026 -0.0100 -0.0612
  639PYPI   C2A10156   2.683   3.781  10.049 -0.2033 -0.0537 -0.0979
  639PYPI   D3A10157   2.770   3.843   9.600  0.0253  0.3591 -0.0347
  639PYPI   C4A10158   3.181   4.032   9.383  0.2788 -0.4319 -0.0423
  639PYPI   C1B10159   2.298   3.213  10.532  0.0922  0.1903  0.0980
  639PYPI   C2B10160   2.247   3.195  10.193 -0.3233 -0.3033  0.2180
  639PYPI   C3B10161   2.281   3.034   9.864 -0.0475  0.2134  0.0327
  639PYPI   C4B10162   2.241   2.980   9.420  0.0671  0.1659  0.2238
  640PYPI    C110163   4.273   0.045  11.595 -0.0104 -0.0830 -0.1434
  640PYPI    C210164   4.025  -0.105  11.871 -0.3940 -0.0411 -0.4564
  640PYPI    C310165   4.041   0.290  11.811  0.3248  0.0328  0.0927
  640PYPI   PO410166   4.224  -0.064  11.357  0.0829 -0.0270  0.0257
  640PYPI   GL110167   4.483   0.034  11.050 -0.3413  0.1251  0.2046
  640PYPI   GL210168   4.594  -0.268  10.912  0.0608 -0.0758 -0.2825
  640PYPI   C1A10169   4.464   0.179  10.678 -0.0554  0.0167  0.1050
  640PYPI   C2A10170   4.493   0.121  10.281 -0.1781 -0.3057  0.3483
  640PYPI   D3A10171   4.523   0.130   9.857  0.0557 -0.3271  0.0380
  640PYPI   C4A10172   4.462   0.236   9.458  0.0954  0.2680  0.0771
  640PYPI   C1B10173   4.517  -0.285  10.527 -0.2440  0.0751 -0.0703
  640PYPI   C2B10174   4.500  -0.344  10.056  0.3402  0.0267 -0.0356
  640PYPI   C3B10175   4.479  -0.389   9.635 -0.1186 -0.0393  0.1504
  640PYPI   C4B10176   4.332  -0.275   9.230 -0.0872  0.0460  0.3940
  641ERGO   ROH10177  10.571   9.013  10.590  0.3263  0.1159  0.0903
  641ERGO    R110178  10.700   9.077  10.347  0.3388 -0.3502 -0.0309
  641ERGO    R210179  10.738   8.891  10.145 -0.5693 -0.5027 -0.0865
  641ERGO    R310180  10.612   9.077   9.993 -0.0240  0.0125  0.0487
  641ERGO    R410181  10.726   8.890   9.800 -0.8982 -0.4684 -0.0808
  641ERGO    R510182  10.754   9.106   9.803 -0.0636 -0.5305 -0.0903
  641ERGO    C110183  10.600   9.065   9.456 -0.5777  0.0351  0.0494
  641ERGO    C210184  10.641   9.119   9.238 -0.1568  0.2741 -0.2020
  642ERGO   ROH10185   2.079  16.936  10.802 -0.1962  0.1268 -0.1326
  642ERGO    R110186   2.187  16.877  10.547 -0.1939  0.0304 -0.1095
  642ERGO    R210187   2.131  16.643  10.412 -0.1777 -0.0294 -0.0131
  642ERGO    R310188   2.058  16.813  10.213 -0.1916 -0.1162 -0.0832
  642ERGO    R410189   2.151  16.572  10.074 -0.2227 -0.1865  0.0161
  642ERGO    R510190   2.220  16.776  10.041 -0.2143 -0.2054 -0.0862
  642ERGO    C110191   2.094  16.692   9.691 -0.2620 -0.3597 -0.0327
  642ERGO    C210192   2.090  16.686   9.315  0.1087  0.0608  0.0604
  643ERGO   ROH10193   0.834   0.180  10.633 -0.0182 -0.0618  0.1298
  643ERGO    R110194   0.944   0.170  10.372 -0.0001 -0.0145  0.1357
  643ERGO    R210195   0.878  -0.027  10.191  0.0792 -0.0291  0.1267
  643ERGO    R310196   0.817   0.184  10.031  0.0159 -0.0464  0.1274
  643ERGO    R410197   0.900  -0.031   9.846  0.0256 -0.0493  0.1234
  643ERGO    R510198   0.981   0.173   9.855 -0.0066 -0.0307  0.1013
  643ERGO    C110199   0.855   0.165   9.495 -0.0650 -0.0772  0.1223
  643ERGO    C210200   0.842   0.118   9.093 -0.3893 -0.1491 -0.1340
  644ERGO   ROH10201  17.519  10.331  10.267 -0.2663 -0.2793 -0.0695
  644ERGO    R110202  17.437  10.337   9.996 -0.2208 -0.0260 -0.0793
  644ERGO    R210203  17.416  10.573   9.853  0.2476  0.0739  0.0009
  644ERGO    R310204  17.581  10.444   9.680  0.0300 -0.1836 -0.0217
  644ERGO    R410205  17.357  10.536   9.515  0.2107  0.2951 -0.0179
  644ERGO    R510206  17.433  10.332   9.528 -0.1706  0.1400 -0.0747
  644ERGO    C110207  17.477  10.394   9.155 -0.0152  0.1820 -0.0502
  644ERGO    C210208  17.335  10.504   8.906 -0.0359 -0.0398 -0.0031
  645ERGO   ROH10209   9.683  14.932  10.606 -0.0704  0.0181 -0.0687
  645ERGO    R110210   9.601  14.989  10.341  0.0391  0.0496 -0.0954
  645ERGO    R210211   9.778  15.077  10.147  0.1574 -0.1251 -0.0647
  645ERGO    R310212   9.680  14.865  10.008  0.0122 -0.0618 -0.0618
  645ERGO    R410213   9.822  15.026   9.808  0.1917 -0.1927 -0.0505
  645ERGO    R510214   9.615  14.957   9.797  0.1328 -0.0260 -0.0869
  645ERGO    C110215   9.756  14.797   9.481  0.0753 -0.1726 -0.0397
  645ERGO    C210216   9.805  14.748   9.100 -0.0728 -0.3946  0.0145
  646ERGO   ROH10217  13.757   4.689  10.561 -0.0872 -0.0564 -0.0090
  646ERGO    R110218  13.820   4.590  10.303 -0.0978 -0.0364 -0.0204
  646ERGO    R210219  13.626   4.526  10.117 -0.1063  0.0588 -0.0522
  646ERGO    R310220  13.768   4.696   9.959 -0.0331  0.0398 -0.0056
  646ERGO    R410221  13.667   4.492   9.776  0.0883  0.0080 -0.0245
  646ERGO    R510222  13.874   4.555   9.799  0.0663  0.0259  0.0773
  646ERGO    C110223  13.823   4.632   9.428  0.2704 -0.0395  0.0355
  646ERGO    C210224  13.825   4.678   8.993 -0.1126 -0.2468 -0.1975
  647ERGO   ROH10225   5.945   4.870  10.409  0.0356 -0.0726  0.1041
  647ERGO    R110226   6.105   4.867  10.176  0.0148  0.0633  0.0877
  647ERGO    R210227   6.022   4.750   9.939  0.0708  0.0333  0.0830
  647ERGO    R310228   6.079   4.995   9.836 -0.1060  0.0851  0.1045
  647ERGO    R410229   6.066   4.817   9.603  0.2887  0.0367  0.1104
  647ERGO    R510230   6.231   4.949   9.656  0.1023  0.2253  0.2390
  647ERGO    C110231   6.145   5.086   9.310  0.2498  0.0872  0.1465
  647ERGO    C210232   6.195   5.066   8.913 -0.1165  0.1184 -0.1458
  648ERGO   ROH10233   3.803   3.324  10.577 -0.1695  0.1084  0.1238
  648ERGO    R110234   3.673   3.376  10.331 -0.0725  0.2406  0.1005
  648ERGO    R210235   3.810   3.453  10.104  0.0600  0.0106  0.1048
  648ERGO    R310236   3.682   3.240   9.994 -0.2221  0.1632  0.1247
  648ERGO    R410237   3.768   3.403   9.765  0.0607  0.0092  0.1044
  648ERGO    R510238   3.566   3.332   9.805 -0.0572  0.3000  0.0812
  648ERGO    C110239   3.624   3.173   9.464 -0.2036  0.1517  0.1227
  648ERGO    C210240   3.682   3.308   9.149  0.0955 -0.0562  0.0595
  649ERGO   ROH10241  16.174   0.172  10.583 -0.1762  0.1018  0.0466
  649ERGO    R110242  16.221   0.152  10.305 -0.1431  0.0796  0.0537
  649ERGO    R210243  16.080  -0.021  10.142 -0.1306  0.0731  0.0485
  649ERGO    R310244  16.030   0.206  10.000 -0.1040  0.0654  0.0270
  649ERGO    R410245  16.105   0.006   9.798 -0.1013  0.0476  0.0484
  649ERGO    R510246  16.194   0.203   9.825 -0.0911  0.0426  0.0406
  649ERGO    C110247  16.073   0.235   9.465 -0.0592  0.0254  0.0283
  649ERGO    C210248  16.129   0.145   9.164  0.2223 -0.0631  0.3055
  650ERGO   ROH10249   8.810  11.761  10.829 -0.1300 -0.0580  0.1201
  650ERGO    R110250   8.962  11.777  10.591 -0.0956  0.2697  0.1602
  650ERGO    R210251   8.949  11.585  10.392  0.3644  0.2373  0.1531
  650ERGO    R310252   8.893  11.799  10.234 -0.0505  0.1294  0.1420
  650ERGO    R410253   8.944  11.579  10.047  0.3532  0.2032  0.1533
  650ERGO    R510254   9.040  11.775  10.047 -0.0107  0.3927  0.1345
  650ERGO    C110255   8.888  11.777   9.698 -0.0429  0.0820  0.1428
  650ERGO    C210256   8.839  11.778   9.369  0.1489  0.3155  0.1907
  651ERGO   ROH10257   4.278  16.147  10.932  0.2030  0.2974  0.0143
  651ERGO    R110258   4.430  16.099  10.698  0.1862  0.0584  0.0485
  651ERGO    R210259   4.373  15.892  10.524  0.0666 -0.0229  0.1671
  651ERGO    R310260   4.369  16.092  10.340  0.1929 -0.1263  0.0529
  651ERGO    R410261   4.367  15.844  10.182 -0.1701 -0.2021  0.1946
  651ERGO    R510262   4.507  16.011  10.161  0.0016 -0.3757  0.0226
  651ERGO    C110263   4.360  16.004   9.809 -0.1893 -0.4036  0.1037
  651ERGO    C210264   4.437  15.990   9.441 -0.0342  0.0540  0.2242
  652ERGO   ROH10265   4.254   5.247  10.564  0.0107  0.0473 -0.0232
  652ERGO    R110266   4.396   5.060  10.406 -0.0247 -0.0161  0.0215
  652ERGO    R210267   4.271   4.861  10.262 -0.0741  0.0893 -0.0713
  652ERGO    R310268   4.410   4.968  10.054  0.1016  0.0286  0.0123
  652ERGO    R410269   4.255   4.749   9.935 -0.0115  0.1535 -0.0976
  652ERGO    R510270   4.471   4.779   9.920  0.0251  0.0008  0.0080
  652ERGO    C110271   4.377   4.784   9.551  0.1898  0.1338 -0.0344
  652ERGO    C210272   4.195   4.856   9.249 -0.1253  0.0821 -0.1102
  653ERGO   ROH10273   0.789  13.662  10.647 -0.1564 -0.0294 -0.0063
  653ERGO    R110274   0.713  13.823  10.427  0.0461  0.1142  0.0262
  653ERGO    R210275   0.892  13.901  10.232  0.1420 -0.0995  0.0244
  653ERGO    R310276   0.709  13.790  10.064 -0.0294  0.1782  0.0215
  653ERGO    R410277   0.905  13.917   9.887  0.1937 -0.1592  0.0233
  653ERGO    R510278   0.689  13.948   9.885  0.2404  0.1929  0.0026
  653ERGO    C110279   0.741  13.822   9.529  0.0629  0.0666  0.0199
  653ERGO    C210280   0.843  13.959   9.172 -0.2567  0.1141  0.1025
  654ERGO   ROH10281  15.411   5.118  10.537  0.0668  0.1097  0.0560
  654ERGO    R110282  15.547   5.200  10.303 -0.0803  0.1916 -0.0009
  654ERGO    R210283  15.644   5.020  10.116  0.1709  0.2362  0.0882
  654ERGO    R310284  15.496   5.168   9.944 -0.0736 -0.0751  0.0187
  654ERGO    R410285  15.704   5.046   9.777  0.1816  0.2377  0.0894
  654ERGO    R510286  15.656   5.258   9.790 -0.2015  0.1669  0.0185
  654ERGO    C110287  15.599   5.201   9.417 -0.0417 -0.0537  0.0248
  654ERGO    C210288  15.749   5.255   9.108  0.0166 -0.0395  0.0355
  655ERGO   ROH10289   2.057   0.614  11.067  0.1028 -0.1151  0.0489
  655ERGO    R110290   2.187   0.617  10.816  0.0287 -0.0417  0.0095
  655ERGO    R210291   2.209   0.392  10.657  0.0717 -0.0242 -0.0199
  655ERGO    R310292   2.096   0.553  10.469 -0.0517 -0.0492  0.0338
  655ERGO    R410293   2.281   0.382  10.319  0.1506  0.2201 -0.0114
  655ERGO    R510294   2.274   0.600  10.316 -0.0721  0.2105  0.0926
  655ERGO    C110295   2.217   0.527   9.946  0.0807  0.3388  0.0438
  655ERGO    C210296   2.139   0.389   9.574  0.0272 -0.1404 -0.5582
  656ERGO   ROH10297   0.730  10.174  10.515  0.2508  0.1229  0.0245
  656ERGO    R110298   0.851  10.221  10.264  0.1004 -0.0376 -0.0811
  656ERGO    R210299   0.875  10.024  10.071 -0.2281 -0.1026 -0.0672
  656ERGO    R310300   0.749  10.207   9.915 -0.1868 -0.0168  0.0007
  656ERGO    R410301   0.892  10.035   9.726 -0.2286  0.0277 -0.0628
  656ERGO    R510302   0.904  10.252   9.738 -0.1811  0.0169  0.0182
  656ERGO    C110303   0.784  10.214   9.378 -0.1901  0.1841  0.0036
  656ERGO    C210304   0.846  10.191   9.004 -0.0000 -0.0564 -0.0355
  657ERGO   ROH10305   0.091   5.707  10.433 -0.4742 -0.3205  0.0761
  657ERGO    R110306   0.025   5.522  10.229 -0.3168 -0.1567 -0.1287
  657ERGO    R210307  -0.090   5.598   9.990 -0.0012  0.0534 -0.2186
  657ERGO    R310308   0.121   5.464   9.883  0.0685  0.0337 -0.0600
  657ERGO    R410309  -0.063   5.509   9.657  0.1567 -0.0989 -0.1665
  657ERGO    R510310   0.021   5.318   9.721  0.1593 -0.0588 -0.0364
  657ERGO    C110311   0.151   5.332   9.363  0.3140 -0.2061  0.0127
  657ERGO    C210312   0.024   5.514   9.076  0.4062 -0.3110 -0.1844
  658ERGO   ROH10313  17.702   7.216  10.509 -0.1203 -0.0275 -0.0118
  658ERGO    R110314  17.824   7.097  10.282  0.0358  0.0788  0.0111
  658ERGO    R210315  17.677   6.987  10.075  0.1635 -0.3574  0.1225
  658ERGO    R310316  17.827   7.156   9.923 -0.2393 -0.1221 -0.0224
  658ERGO    R410317  17.763   6.933   9.745  0.1311 -0.3090  0.1086
  658ERGO    R510318  17.961   7.011   9.788 -0.0111  0.1023 -0.0213
  658ERGO    C110319  17.953   7.060   9.410 -0.2660 -0.0600 -0.0356
  658ERGO    C210320  18.003   7.015   9.082 -0.0263  0.2192  0.3504
  659ERGO   ROH10321  12.706  15.096  10.937 -0.0992  0.2445 -0.0697
  659ERGO    R110322  12.782  15.213  10.690 -0.2212  0.1607 -0.1474
  659ERGO    R210323  12.957  15.089  10.516 -0.1602  0.1896 -0.0993
  659ERGO    R310324  12.755  15.126  10.338 -0.2112 -0.0573 -0.0982
  659ERGO    R410325  12.990  15.070  10.172 -0.1007  0.3230 -0.1020
  659ERGO    R510326  12.857  15.242  10.155 -0.3573  0.1443 -0.0628
  659ERGO    C110327  12.818  15.094   9.805 -0.1137  0.1688 -0.1025
  659ERGO    C210328  12.892  15.067   9.401 -0.0223 -0.2543  0.0623
  660ERGO   ROH10329   8.032  14.525  10.876 -0.1992  0.1741 -0.0077
  660ERGO    R110330   7.954  14.403  10.633 -0.2482  0.1821  0.0052
  660ERGO    R210331   7.829  14.543  10.429 -0.0836  0.2374 -0.0520
  660ERGO    R310332   8.033  14.442  10.280 -0.1375  0.0284  0.0103
  660ERGO    R410333   7.817  14.488  10.088 -0.0509  0.2372 -0.0539
  660ERGO    R510334   7.926  14.302  10.119 -0.2390  0.1244 -0.0132
  660ERGO    C110335   8.001  14.361   9.750 -0.0825  0.0408  0.0035
  660ERGO    C210336   8.044  14.351   9.409 -0.0061  0.0730 -0.0562
  661ERGO   ROH10337   5.660   2.714  10.723 -0.0827  0.2147 -0.0645
  661ERGO    R110338   5.579   2.695  10.452 -0.0750  0.1255 -0.0616
  661ERGO    R210339   5.689   2.851  10.253 -0.0819  0.0758 -0.1086
  661ERGO    R310340   5.735   2.610  10.135 -0.0583  0.0419 -0.0309
  661ERGO    R410341   5.751   2.804   9.916 -0.0712 -0.0307 -0.0915
  661ERGO    R510342   5.626   2.626   9.922 -0.0542 -0.0384 -0.0372
  661ERGO    C110343   5.831   2.551   9.609 -0.0428 -0.1246 -0.0086
  661ERGO    C210344   6.081   2.606   9.351  0.0330 -0.0257 -0.1923
  662ERGO   ROH10345   7.091  14.879  10.793  0.2337  0.2399 -0.2503
  662ERGO    R110346   6.930  14.913  10.562  0.1037  0.2138 -0.1652
  662ERGO    R210347   7.000  15.082  10.356 -0.0299  0.2197 -0.2096
  662ERGO    R310348   6.967  14.859  10.204 -0.0816  0.2106 -0.1841
  662ERGO    R410349   6.996  15.077  10.010 -0.1681  0.1968 -0.2079
  662ERGO    R510350   6.834  14.932  10.019 -0.1573  0.1924 -0.1349
  662ERGO    C110351   6.963  14.865   9.667 -0.2972  0.1750 -0.1830
  662ERGO    C210352   7.064  15.014   9.387 -0.0852 -0.0291 -0.2628
  663ERGO   ROH10353  16.178   9.410  10.132  0.0288  0.0400 -0.0667
  663ERGO    R110354  16.288   9.538   9.905  0.0748 -0.0181 -0.0780
  663ERGO    R210355  16.511   9.441   9.774  0.0717 -0.0818 -0.0391
  663ERGO    R310356  16.348   9.452   9.557  0.0936 -0.0898 -0.0575
  663ERGO    R410357  16.610   9.376   9.449  0.1163 -0.0482 -0.0321
  663ERGO    R510358  16.486   9.543   9.383  0.1013 -0.0601 -0.0362
  663ERGO    C110359  16.514   9.349   9.056  0.1630 -0.0362 -0.0452
  663ERGO    C210360  16.653   9.367   8.764 -0.4354  0.0833 -0.0781
  664ERGO   ROH10361  16.598  17.857  10.638  0.4688  0.1461  0.1618
  664ERGO    R110362  16.670  17.793  10.372  0.2497 -0.0294  0.1422
  664ERGO    R210363  16.493  17.678  10.193 -0.0111  0.1914  0.2550
  664ERGO    R310364  16.562  17.891  10.039  0.2389  0.0535  0.1692
  664ERGO    R410365  16.489  17.681   9.848 -0.3161  0.1488  0.2547
  664ERGO    R510366  16.675  17.794   9.851 -0.0985 -0.1826  0.0754
  664ERGO    C110367  16.551  17.883   9.501 -0.2591 -0.0052  0.1740
  664ERGO    C210368  16.595  17.888   9.125  0.0715  0.0986 -0.2046
  665ERGO   ROH10369   7.711  13.039  10.900  0.0536  0.0653 -0.0136
  665ERGO    R110370   7.579  12.959  10.663  0.0280 -0.0152  0.0301
  665ERGO    R210371   7.444  13.138  10.500  0.0113 -0.0779 -0.0046
  665ERGO    R310372   7.606  13.034  10.308 -0.0207 -0.1377 -0.0036
  665ERGO    R410373   7.369  13.129  10.163  0.2160  0.4474 -0.0759
  665ERGO    R510374   7.456  12.929  10.154 -0.1140  0.2898 -0.2361
  665ERGO    C110375   7.478  13.026   9.786  0.3050  0.6970 -0.1164
  665ERGO    C210376   7.602  13.178   9.444  0.1368  0.0484 -0.0256
  666ERGO   ROH10377   7.156  11.954  10.647 -0.0596 -0.0234  0.1401
  666ERGO    R110378   7.176  11.796  10.412 -0.0839 -0.0403  0.1482
  666ERGO    R210379   6.977  11.788  10.221 -0.0804 -0.0067  0.1359
  666ERGO    R310380   7.181  11.855  10.053 -0.0558 -0.0561  0.1476
  666ERGO    R410381   6.961  11.775   9.876 -0.0546  0.0025  0.1350
  666ERGO    R510382   7.164  11.696   9.874 -0.0794 -0.0452  0.1458
  666ERGO    C110383   7.142  11.830   9.518 -0.0165 -0.0386  0.1453
  666ERGO    C210384   7.250  11.762   9.114 -0.2200 -0.1999  0.1585
  667ERGO   ROH10385  11.449   0.149  10.594  0.0183 -0.0596 -0.0088
  667ERGO    R110386  11.524   0.242  10.337  0.0973 -0.1126 -0.0061
  667ERGO    R210387  11.679   0.092  10.164 -0.0379 -0.2458 -0.0206
  667ERGO    R310388  11.473   0.137   9.992 -0.0061 -0.0512 -0.0086
  667ERGO    R410389  11.704   0.088   9.819 -0.0044  0.0498 -0.0233
  667ERGO    R510390  11.571   0.261   9.812  0.0376  0.0826  0.1100
  667ERGO    C110391  11.526   0.128   9.458  0.0451  0.4046 -0.0135
  667ERGO    C210392  11.693   0.211   9.238  0.2035 -0.2883  0.0337
  668ERGO   ROH10393  11.515  12.205  10.559 -0.0427  0.1093  0.0006
  668ERGO    R110394  11.625  12.231  10.300 -0.0251  0.0480  0.0020
  668ERGO    R210395  11.572  12.051  10.097 -0.0781  0.0469  0.0185
  668ERGO    R310396  11.497  12.274   9.962  0.0015  0.0587 -0.0072
  668ERGO    R410397  11.583  12.087   9.753 -0.2118 -0.0571  0.0022
  668ERGO    R510398  11.655  12.291   9.782 -0.0678 -0.0920 -0.0853
  668ERGO    C110399  11.520  12.317   9.426 -0.2150 -0.1066 -0.0315
  668ERGO    C210400  11.516  12.263   9.089 -0.1974  0.2035  0.0290
  669ERGO   ROH10401  12.250   5.228  10.269 -0.0764 -0.0880 -0.0791
  669ERGO    R110402  12.410   5.343  10.067 -0.1173 -0.0134 -0.0682
  669ERGO    R210403  12.494   5.202   9.844 -0.0657  0.0360 -0.0770
  669ERGO    R310404  12.380   5.409   9.710 -0.1375  0.0062 -0.0635
  669ERGO    R410405  12.516   5.252   9.503 -0.1287  0.0328 -0.0823
  669ERGO    R510406  12.540   5.466   9.541 -0.1748  0.0415 -0.0896
  669ERGO    C110407  12.422   5.475   9.178 -0.2328  0.0030 -0.0726
  669ERGO    C210408  12.432   5.484   8.906  0.0473 -0.1128 -0.2117
  670ERGO   ROH10409   7.896   7.203   6.628  0.0127 -0.1693 -0.0195
  670ERGO    R110410   7.944   7.333   6.874  0.0040 -0.3768  0.0932
  670ERGO    R210411   7.816   7.567   6.947  0.3278 -0.1952  0.0893
  670ERGO    R310412   7.748   7.424   7.168 -0.1211 -0.2013 -0.0421
  670ERGO    R410413   7.666   7.699   7.229  0.3000 -0.0817  0.0227
  670ERGO    R510414   7.795   7.572   7.350 -0.0248 -0.3746  0.0771
  670ERGO    C110415   7.515   7.642   7.601 -0.1377 -0.0215 -0.1395
  670ERGO    C210416   7.257   7.762   7.763  0.0810  0.1384  0.0310
  671ERGO   ROH10417   2.052   6.246  10.572 -0.1369  0.0764  0.0243
  671ERGO    R110418   1.927   6.244  10.318 -0.1572  0.1447  0.0338
  671ERGO    R210419   1.804   6.468  10.211 -0.1023  0.1930  0.0722
  671ERGO    R310420   1.970   6.418  10.002 -0.1331  0.1735  0.0526
  671ERGO    R410421   1.725   6.524   9.879 -0.2452 -0.0678  0.0597
  671ERGO    R510422   1.825   6.337   9.829 -0.1335 -0.0337  0.1473
  671ERGO    C110423   1.835   6.510   9.489 -0.3573 -0.2379  0.0341
  671ERGO    C210424   1.744   6.438   9.122 -0.3251 -0.1406  0.2362
  672ERGO   ROH10425   0.911  12.842  10.610 -0.0751  0.0452 -0.0828
  672ERGO    R110426   0.855  12.720  10.360  0.1098 -0.0021 -0.1021
  672ERGO    R210427   0.713  12.848  10.161  0.0422 -0.1324 -0.1358
  672ERGO    R310428   0.931  12.787  10.011  0.1427  0.0797 -0.0803
  672ERGO    R410429   0.722  12.852   9.815  0.1026 -0.1859 -0.1351
  672ERGO    R510430   0.842  12.670   9.822  0.3053 -0.0563 -0.0772
  672ERGO    C110431   0.932  12.797   9.473  0.2321 -0.0180 -0.0827
  672ERGO    C210432   0.848  12.855   9.122  0.2996 -0.0570 -0.0691
  673ERGO   ROH10433  10.295  10.979  10.855 -0.0022 -0.0596 -0.0964
  673ERGO    R110434  10.364  10.909  10.590 -0.0318  0.0631 -0.1378
  673ERGO    R210435  10.190  10.778  10.420  0.0410 -0.1004 -0.0899
  673ERGO    R310436  10.244  10.987  10.256 -0.2562 -0.0090 -0.0751
  673ERGO    R410437  10.200  10.760  10.075  0.1729 -0.0892 -0.0867
  673ERGO    R510438  10.374  10.892  10.079 -0.0425  0.2019 -0.0359
  673ERGO    C110439  10.256  10.947   9.720 -0.0294  0.0032 -0.0711
  673ERGO    C210440  10.239  11.030   9.425 -0.1163 -0.1501  0.3566
  674loPI    C110441   9.771  10.696   5.408 -0.0893 -0.2936 -0.1156
  674loPI    C210442   9.520  10.555   5.130  0.0297 -0.3612 -0.1894
  674loPI    C310443   9.911  10.582   5.051  0.0114 -0.0015 -0.1726
  674loPI   PO410444   9.607  10.906   5.530 -0.0963  0.1902  0.0209
  674loPI   GL110445   9.518  10.986   5.993 -0.2505 -0.1597  0.1027
  674loPI   GL210446   9.676  11.225   6.107  0.0268  0.1220  0.5153
  674loPI   C1A10447   9.663  10.789   6.358 -0.2768  0.0514 -0.1036
  674loPI   C2A10448   9.743  10.632   6.812  0.1033 -0.1965 -0.1013
  674loPI   C3A10449   9.697  10.647   7.275  0.2325 -0.3285  0.3387
  674loPI   C4A10450   9.692  10.564   7.645 -0.0768 -0.1721  0.0848
  674loPI   C5A10451   9.813  10.384   8.050 -0.2787 -0.1283  0.0256
  674loPI   C6A10452   9.603  10.419   8.406  0.1793  0.1263 -0.0671
  674loPI   C1B10453   9.726  11.199   6.556  0.0051 -0.2493 -0.0326
  674loPI   C2B10454   9.762  11.173   6.998 -0.1324 -0.3350  0.2063
  674loPI   C3B10455   9.738  11.129   7.432  0.1288 -0.0011 -0.2183
  674loPI   C4B10456   9.773  11.183   7.853 -0.0966  0.1895 -0.3542
  675loPI    C110457   9.276  13.082   5.441 -0.0863  0.2935  0.0965
  675loPI    C210458   8.925  13.244   5.336 -0.1321  0.1329 -0.0017
  675loPI    C310459   9.166  13.090   5.056 -0.0599  0.0891  0.0841
  675loPI   PO410460   9.229  12.915   5.738  0.0051  0.3460 -0.1798
  675loPI   GL110461   9.124  12.860   6.184  0.3136 -0.0526 -0.0023
  675loPI   GL210462   9.151  12.488   6.192 -0.2733  0.0100 -0.0982
  675loPI   C1A10463   9.222  12.984   6.602 -0.0422 -0.0469  0.1027
  675loPI   C2A10464   9.274  12.901   7.097 -0.2757 -0.1598  0.3252
  675loPI   C3A10465   9.336  12.951   7.446  0.0997  0.2654  0.0625
  675loPI   C4A10466   9.263  12.927   7.779  0.0085  0.1838 -0.1209
  675loPI   C5A10467   9.257  13.133   8.109  0.1362  0.0709 -0.0668
  675loPI   C6A10468   9.225  12.993   8.489  0.2145 -0.3762  0.0788
  675loPI   C1B10469   9.200  12.473   6.575  0.1355  0.1711 -0.4013
  675loPI   C2B10470   9.243  12.427   6.966  0.2154  0.0357 -0.1249
  675loPI   C3B10471   9.315  12.420   7.378 -0.2290 -0.0440  0.1662
  675loPI   C4B10472   9.279  12.460   7.711 -0.4473 -0.1417  0.1182
  676loPI    C110473   1.834   7.266   5.289  0.2029 -0.0252  0.1070
  676loPI    C210474   1.974   6.902   5.199 -0.0014 -0.0375 -0.1751
  676loPI    C310475   1.741   7.097   4.938 -0.1491  0.1661  0.1037
  676loPI   PO410476   1.921   7.336   5.472 -0.3793  0.0060  0.0696
  676loPI   GL110477   2.312   7.415   5.831  0.0663  0.1427  0.1343
  676loPI   GL210478   2.548   7.179   5.893  0.2139  0.3425 -0.1168
  676loPI   C1A10479   2.136   7.435   6.230  0.0979 -0.2512 -0.2056
  676loPI   C2A10480   2.211   7.513   6.588  0.0557 -0.1275  0.1057
  676loPI   C3A10481   2.234   7.548   6.975 -0.1070 -0.1728 -0.1460
  676loPI   C4A10482   2.273   7.573   7.434  0.0373  0.0314  0.1914
  676loPI   C5A10483   2.307   7.625   7.808  0.0509 -0.2994  0.2120
  676loPI   C6A10484   2.218   7.588   8.266 -0.0061 -0.1818  0.1053
  676loPI   C1B10485   2.613   7.190   6.302  0.0539  0.3229  0.0891
  676loPI   C2B10486   2.630   7.289   6.791 -0.2715  0.3163  0.0821
  676loPI   C3B10487   2.776   7.330   7.186 -0.2597  0.0702  0.1233
  676loPI   C4B10488   2.654   7.313   7.622  0.0608 -0.0900 -0.0311
  677loPI    C110489  11.745   3.466   5.615  0.2934 -0.0764 -0.0768
  677loPI    C210490  12.004   3.633   5.360  0.1855 -0.1046 -0.2060
  677loPI    C310491  11.637   3.534   5.236 -0.0540  0.3721  0.0932
  677loPI   PO410492  11.852   3.495   5.846  0.3200 -0.0743  0.1090
  677loPI   GL110493  12.053   3.539   6.249 -0.1553  0.0657  0.0848
  677loPI   GL210494  12.067   3.151   6.238 -0.2571 -0.0313 -0.1795
  677loPI   C1A10495  11.988   3.803   6.502  0.0616  0.1908 -0.0334
  677loPI   C2A10496  12.131   3.829   6.923  0.1656  0.0062  0.0973
  677loPI   C3A10497  12.143   3.762   7.391 -0.3543  0.1275 -0.2244
  677loPI   C4A10498  12.180   3.731   7.944  0.2731 -0.1322 -0.2333
  677loPI   C5A10499  12.194   3.764   8.388 -0.0953  0.2194  0.2312
  677loPI   C6A10500  12.471   3.875   8.696  0.0147 -0.1581 -0.0730
  677loPI   C1B10501  12.083   3.205   6.607  0.0378 -0.2478 -0.2423
  677loPI   C2B10502  12.129   3.247   7.002 -0.0584  0.1664  0.2514
  677loPI   C3B10503  12.177   3.213   7.343  0.0440  0.0797 -0.1486
  677loPI   C4B10504  12.174   3.226   7.680 -0.1624  0.0419  0.2797
  678loPI    C110505  12.544  11.691   5.359  0.0195  0.2782  0.3127
  678loPI    C210506  12.723  11.916   5.081  0.0509 -0.2251 -0.0901
  678loPI    C310507  12.358  12.014   5.214  0.1678  0.1983 -0.0658
  678loPI   PO410508  12.705  11.730   5.634  0.0601  0.1300 -0.2372
  678loPI   GL110509  12.999  11.532   5.990 -0.0639  0.2589 -0.0970
  678loPI   GL210510  13.326  11.467   6.002  0.0371  0.0673  0.0797
  678loPI   C1A10511  12.879  11.588   6.445 -0.3426  0.1148 -0.1461
  678loPI   C2A10512  12.742  11.555   6.775  0.0262 -0.2092 -0.2348
  678loPI   C3A10513  12.821  11.591   7.231 -0.0528  0.1694 -0.1605
  678loPI   C4A10514  12.853  11.529   7.595  0.1850  0.0251  0.1409
  678loPI   C5A10515  12.847  11.616   8.018 -0.2756  0.1014  0.0912
  678loPI   C6A10516  12.626  11.964   8.219  0.1221  0.2902 -0.2181
  678loPI   C1B10517  13.304  11.370   6.505 -0.0493 -0.0959  0.1153
  678loPI   C2B10518  13.240  11.333   6.937  0.1404 -0.3011 -0.1241
  678loPI   C3B10519  13.279  11.226   7.373  0.0117 -0.0528 -0.2875
  678loPI   C4B10520  13.339  11.212   7.807  0.1326 -0.0301  0.3012
  679loPI    C110521   8.164   3.384   5.970  0.2554  0.2245  0.0533
  679loPI    C210522   8.001   3.507   5.626 -0.0613  0.1080  0.1581
  679loPI    C310523   8.341   3.672   5.756  0.1971 -0.0181 -0.3317
  679loPI   PO410524   7.928   3.387   6.208  0.3091  0.6245  0.3278
  679loPI   GL110525   7.885   3.287   6.681  0.0807  0.0399 -0.1888
  679loPI   GL210526   7.986   3.543   6.725 -0.1247  0.0202  0.0077
  679loPI   C1A10527   7.567   3.185   6.921  0.2087  0.1832  0.0345
  679loPI   C2A10528   7.517   3.365   7.265 -0.2873  0.1140 -0.2050
  679loPI   C3A10529   7.266   3.454   7.505  0.0399  0.5015  0.0097
  679loPI   C4A10530   7.141   3.591   7.941 -0.1979 -0.1322 -0.2634
  679loPI   C5A10531   7.321   3.962   8.028 -0.0536  0.1270  0.0903
  679loPI   C6A10532   7.668   4.126   7.926  0.2498 -0.0084  0.1118
  679loPI   C1B10533   7.959   3.634   7.151  0.0284 -0.1155 -0.1635
  679loPI   C2B10534   8.060   3.431   7.618  0.1322 -0.1958  0.1502
  679loPI   C3B10535   8.021   3.124   7.927  0.0234 -0.2093  0.1955
  679loPI   C4B10536   8.011   2.900   8.220 -0.0480  0.1790  0.1112
  680loPI    C110537  17.602  12.390   5.064 -0.1480 -0.1716  0.0128
  680loPI    C210538  17.833  12.513   4.761  0.0738 -0.1645  0.1825
  680loPI    C310539  17.501  12.715   4.854 -0.0059 -0.1782 -0.0669
  680loPI   PO410540  17.776  12.316   5.251 -0.1393  0.0178  0.0150
  680loPI   GL110541  17.764  12.324   5.655 -0.0736 -0.0825  0.1214
  680loPI   GL210542  17.962  12.089   5.869  0.0644 -0.1025 -0.1715
  680loPI   C1A10543  17.839  12.503   6.018 -0.0594 -0.1659  0.0138
  680loPI   C2A10544  17.782  12.498   6.333 -0.2251 -0.0955 -0.1426
  680loPI   C3A10545  17.687  12.593   6.706 -0.1872  0.0690 -0.0150
  680loPI   C4A10546  17.715  12.510   7.232  0.0569 -0.0359 -0.0337
  680loPI   C5A10547  17.832  12.377   7.672 -0.4224  0.1986  0.0163
  680loPI   C6A10548  18.103  12.445   8.057 -0.3317 -0.2006  0.1649
  680loPI   C1B10549  18.229  12.224   6.320 -0.1063 -0.0595 -0.0917
  680loPI   C2B10550  18.156  12.305   6.776  0.0313 -0.0291  0.1248
  680loPI   C3B10551  18.304  12.188   7.142 -0.0100 -0.2552  0.1303
  680loPI   C4B10552  18.347  12.179   7.585  0.0558 -0.1014  0.2090
  681loPI    C110553  16.233  10.654   5.116 -0.0406 -0.0517 -0.0662
  681loPI    C210554  16.531  10.550   4.870 -0.0072 -0.1805  0.0281
  681loPI    C310555  16.393  10.925   4.869  0.1524 -0.1210 -0.0188
  681loPI   PO410556  16.337  10.597   5.379  0.1753 -0.3149  0.3119
  681loPI   GL110557  16.489  10.370   5.726 -0.0972 -0.2502 -0.3393
  681loPI   GL210558  16.389  10.034   5.732 -0.1082  0.1988 -0.0787
  681loPI   C1A10559  16.500  10.608   6.067 -0.3478 -0.0944 -0.1885
  681loPI   C2A10560  16.489  10.622   6.519 -0.1587 -0.1296 -0.1496
  681loPI   C3A10561  16.434  10.624   6.948  0.3604  0.0444 -0.2749
  681loPI   C4A10562  16.466  10.639   7.384 -0.1236 -0.1199 -0.1464
  681loPI   C5A10563  16.519  10.628   7.763  0.2009  0.1505  0.0384
  681loPI   C6A10564  16.360  10.468   8.050 -0.0504  0.0965  0.2111
  681loPI   C1B10565  16.537  10.061   6.130  0.1761 -0.2397  0.1526
  681loPI   C2B10566  16.474  10.141   6.591  0.2324  0.0534 -0.0116
  681loPI   C3B10567  16.429  10.196   7.110 -0.1794  0.1940 -0.0531
  681loPI   C4B10568  16.629  10.094   7.541 -0.1062 -0.0734  0.0699
  682loPI    C110569   1.334  15.808   5.826  0.2272 -0.0258 -0.0767
  682loPI    C210570   1.043  15.799   5.551 -0.1555  0.2162  0.3068
  682loPI    C310571   1.400  15.957   5.461 -0.0885 -0.2012 -0.2095
  682loPI   PO410572   1.134  15.852   6.038 -0.0048 -0.1577 -0.1156
  682loPI   GL110573   1.379  15.856   6.423  0.2905  0.1078  0.1919
  682loPI   GL210574   1.487  15.623   6.615  0.0945  0.0189 -0.2377
  682loPI   C1A10575   1.095  15.879   6.839 -0.1939  0.0025  0.0992
  682loPI   C2A10576   0.780  16.151   7.089  0.3530  0.1861  0.1710
  682loPI   C3A10577   0.546  16.128   7.491  0.2633  0.0197 -0.4342
  682loPI   C4A10578   0.608  16.243   7.886 -0.2342  0.2241  0.2809
  682loPI   C5A10579   0.592  16.279   8.349  0.2014  0.1361  0.2699
  682loPI   C6A10580   0.304  16.545   8.579  0.2909 -0.3469  0.0467
  682loPI   C1B10581   1.195  15.385   6.874  0.1969 -0.0351  0.3462
  682loPI   C2B10582   1.103  15.352   7.419 -0.0003  0.0211  0.0963
  682loPI   C3B10583   1.132  15.464   7.856  0.2757  0.2627  0.0066
  682loPI   C4B10584   1.212  15.296   8.365  0.3169 -0.3605 -0.0600
  683loPI    C110585   5.155  14.013   5.543  0.5545 -0.2568  0.0290
  683loPI    C210586   5.384  14.339   5.579  0.1658  0.0326 -0.0475
  683loPI    C310587   5.275  14.211   5.216 -0.0932  0.1157 -0.0008
  683loPI   PO410588   5.139  13.937   5.769 -0.0757  0.2296  0.1406
  683loPI   GL110589   4.842  13.997   6.071  0.0099 -0.0104 -0.1532
  683loPI   GL210590   4.663  14.102   6.040  0.2240  0.1962  0.1110
  683loPI   C1A10591   4.669  13.912   6.540 -0.1083  0.4102  0.0020
  683loPI   C2A10592   4.664  13.938   6.965 -0.2236  0.0219 -0.2005
  683loPI   C3A10593   4.660  13.808   7.395  0.0559 -0.1887 -0.2530
  683loPI   C4A10594   4.800  13.929   7.722  0.0877  0.1661  0.2876
  683loPI   C5A10595   4.709  14.208   8.064 -0.0937  0.1846  0.0525
  683loPI   C6A10596   4.849  14.575   8.094  0.0424  0.0658 -0.1295
  683loPI   C1B10597   4.731  14.411   6.325  0.0705 -0.1169 -0.0027
  683loPI   C2B10598   4.703  14.384   6.780  0.0165 -0.0695  0.1540
  683loPI   C3B10599   4.710  14.353   7.236  0.2254 -0.2523  0.0951
  683loPI   C4B10600   4.797  14.482   7.627 -0.0318  0.2119 -0.0038
  684loPI    C110601  11.216  14.214   5.577  0.1325  0.1105  0.2557
  684loPI    C210602  11.170  14.611   5.594  0.0619  0.1233 -0.1310
  684loPI    C310603  11.331  14.442   5.269  0.0101 -0.1734 -0.0059
  684loPI   PO410604  11.255  14.176   5.779  0.1532  0.1669 -0.1247
  684loPI   GL110605  11.472  14.189   6.144 -0.3704 -0.0137 -0.1340
  684loPI   GL210606  11.711  14.249   6.049 -0.1184  0.4636  0.0556
  684loPI   C1A10607  11.324  14.332   6.489 -0.0957 -0.1271  0.1241
  684loPI   C2A10608  11.358  14.333   6.993 -0.0398  0.0914  0.0211
  684loPI   C3A10609  11.453  14.372   7.406  0.0748  0.1772 -0.0593
  684loPI   C4A10610  11.532  14.289   7.824  0.1800 -0.2020  0.0463
  684loPI   C5A10611  11.405  13.922   8.111 -0.4407  0.2234 -0.1699
  684loPI   C6A10612  11.520  13.632   8.391 -0.0695  0.2611 -0.0098
  684loPI   C1B10613  11.854  14.064   6.518  0.2301 -0.3459 -0.1866
  684loPI   C2B10614  11.839  14.067   6.991  0.0797 -0.1121 -0.1720
  684loPI   C3B10615  11.972  14.065   7.375 -0.1910 -0.0162  0.1931
  684loPI   C4B10616  11.955  14.009   7.814  0.3473 -0.0446  0.0903
  685loPI    C110617  15.027  13.008   5.154  0.2795  0.0316 -0.1362
  685loPI    C210618  15.310  12.987   4.872  0.1093 -0.0124 -0.3056
  685loPI    C310619  14.924  13.009   4.767  0.0476  0.0230 -0.0761
  685loPI   PO410620  15.044  13.111   5.343 -0.1167 -0.0532 -0.0185
  685loPI   GL110621  14.977  13.021   5.743 -0.3817 -0.0927  0.1405
  685loPI   GL210622  14.856  13.308   5.888  0.1716 -0.0813 -0.0423
  685loPI   C1A10623  15.002  12.878   6.195 -0.1360  0.2600  0.3100
  685loPI   C2A10624  15.041  12.905   6.585 -0.1184 -0.1112  0.1091
  685loPI   C3A10625  14.996  12.891   7.110  0.0235 -0.2033 -0.0300
  685loPI   C4A10626  15.087  12.866   7.561 -0.0129  0.4288 -0.0033
  685loPI   C5A10627  14.999  12.793   7.979  0.0282 -0.1886  0.2669
  685loPI   C6A10628  14.842  12.834   8.487  0.0755  0.0160 -0.1424
  685loPI   C1B10629  15.000  13.377   6.341  0.0735 -0.0523 -0.1539
  685loPI   C2B10630  14.968  13.428   6.749 -0.1262  0.1663 -0.0589
  685loPI   C3B10631  15.073  13.420   7.209 -0.0139  0.0716  0.0738
  685loPI   C4B10632  15.124  13.385   7.624 -0.1016 -0.1278 -0.2065
  686loPI    C110633   8.849   4.545   6.361 -0.1992 -0.0868  0.0921
  686loPI    C210634   8.853   4.145   6.355 -0.1835 -0.0853 -0.0500
  686loPI    C310635   8.736   4.349   6.031 -0.0078  0.0273 -0.0441
  686loPI   PO410636   9.054   4.626   6.539 -0.2852  0.0558  0.2008
  686loPI   GL110637   9.111   4.716   6.910 -0.2387 -0.3070 -0.0270
  686loPI   GL210638   9.089   5.053   6.813 -0.1658 -0.0097 -0.1319
  686loPI   C1A10639   9.114   4.452   7.292  0.2537  0.1086  0.2161
  686loPI   C2A10640   9.400   4.346   7.638 -0.2952 -0.0516  0.0605
  686loPI   C3A10641   9.338   4.166   8.037  0.4436 -0.2977  0.1747
  686loPI   C4A10642   9.013   4.025   8.371  0.3167 -0.2202  0.1784
  686loPI   C5A10643   8.685   4.021   8.702  0.1337  0.1664 -0.1345
  686loPI   C6A10644   8.252   4.228   8.851  0.1532 -0.1042 -0.0779
  686loPI   C1B10645   9.193   5.140   7.253 -0.1128  0.0613 -0.2207
  686loPI   C2B10646   9.418   5.314   7.611 -0.0105 -0.3105  0.1900
  686loPI   C3B10647   9.530   5.290   8.051  0.0467  0.2476  0.2327
  686loPI   C4B10648   9.449   5.286   8.428 -0.0299 -0.2222 -0.1487
  687loPI    C110649   6.173   9.724   5.648 -0.0440 -0.2376  0.0833
  687loPI    C210650   6.427   9.558   5.387  0.1617 -0.0763  0.1785
  687loPI    C310651   6.439   9.453   5.773  0.0500 -0.1049  0.1744
  687loPI   PO410652   6.065  10.013   5.618 -0.2233  0.2279  0.0668
  687loPI   GL110653   5.900  10.154   6.096  0.0418 -0.0242 -0.1245
  687loPI   GL210654   5.929   9.823   6.108  0.0312 -0.2209  0.0524
  687loPI   C1A10655   5.740  10.179   6.570  0.0899  0.1103  0.0982
  687loPI   C2A10656   5.723  10.166   7.071 -0.1612 -0.0808  0.2704
  687loPI   C3A10657   5.734  10.298   7.477 -0.1688  0.2120 -0.3698
  687loPI   C4A10658   5.787  10.391   7.884 -0.2030  0.0095  0.2139
  687loPI   C5A10659   6.100  10.016   8.079 -0.2359 -0.0671  0.0365
  687loPI   C6A10660   6.118   9.812   8.472 -0.0574  0.1091  0.3252
  687loPI   C1B10661   6.213   9.889   6.394  0.1097  0.0740  0.1023
  687loPI   C2B10662   6.133   9.950   6.736  0.0441  0.1831 -0.1209
  687loPI   C3B10663   6.163   9.918   7.182  0.0043  0.0539 -0.1227
  687loPI   C4B10664   6.191  10.038   7.593 -0.1049 -0.3813 -0.1960
  688loPI    C110665  12.945   2.279   5.557 -0.0537  0.0497  0.0001
  688loPI    C210666  12.720   2.010   5.365 -0.1829  0.0983  0.0819
  688loPI    C310667  12.716   2.393   5.248 -0.1387  0.0982  0.0803
  688loPI   PO410668  12.891   2.125   5.814 -0.1314  0.2632 -0.0879
  688loPI   GL110669  12.963   2.200   6.225  0.0442  0.0733  0.0357
  688loPI   GL210670  12.667   2.394   6.157  0.0191 -0.1123 -0.0741
  688loPI   C1A10671  12.984   2.253   6.641 -0.0042 -0.3164 -0.2079
  688loPI   C2A10672  13.025   2.212   7.063 -0.0435 -0.1834  0.2739
  688loPI   C3A10673  13.076   2.140   7.374 -0.0799  0.2242 -0.1598
  688loPI   C4A10674  13.091   2.098   7.817 -0.2000 -0.4405 -0.3037
  688loPI   C5A10675  12.932   1.970   8.225 -0.0567  0.0001  0.0290
  688loPI   C6A10676  12.699   1.974   8.538 -0.1518 -0.2301  0.1839
  688loPI   C1B10677  12.516   2.456   6.581  0.2543 -0.1698  0.2013
  688loPI   C2B10678  12.535   2.441   6.980 -0.0836 -0.0894 -0.2026
  688loPI   C3B10679  12.626   2.481   7.348  0.1389  0.0041 -0.2044
  688loPI   C4B10680  12.637   2.300   7.700 -0.1741 -0.0273  0.0190
  689loPI    C110681  16.522   2.563   5.072  0.0816 -0.3789 -0.2705
  689loPI    C210682  16.757   2.808   4.861 -0.1015 -0.0679 -0.1203
  689loPI    C310683  16.381   2.742   4.743 -0.1229 -0.0992 -0.0362
  689loPI   PO410684  16.508   2.668   5.428  0.0818  0.1332 -0.2653
  689loPI   GL110685  16.386   2.601   5.852  0.2629  0.0463 -0.1220
  689loPI   GL210686  16.135   2.748   6.011  0.2807  0.2005 -0.4866
  689loPI   C1A10687  16.531   2.772   6.351 -0.0982 -0.1635  0.1925
  689loPI   C2A10688  16.489   2.897   6.772  0.4266 -0.0132 -0.3096
  689loPI   C3A10689  16.569   2.891   7.194 -0.4585 -0.2452 -0.1911
  689loPI   C4A10690  16.589   2.836   7.607 -0.1791 -0.0432 -0.1367
  689loPI   C5A10691  16.661   2.671   7.980 -0.1344  0.1769  0.0084
  689loPI   C6A10692  16.819   2.465   8.271 -0.0551  0.0214  0.0901
  689loPI   C1B10693  16.087   2.547   6.520  0.2285  0.2389  0.0004
  689loPI   C2B10694  16.081   2.600   6.985 -0.0559  0.0386 -0.1864
  689loPI   C3B10695  16.161   2.599   7.510  0.1595 -0.1365  0.0575
  689loPI   C4B10696  16.270   2.425   7.934  0.1536 -0.0418  0.0439
  690loPI    C110697   6.676  10.698   5.351 -0.1334 -0.0356  0.0254
  690loPI    C210698   6.546  11.047   5.207 -0.1005 -0.0784 -0.1095
  690loPI    C310699   6.884  10.886   5.065  0.1037  0.0329  0.2391
  690loPI   PO410700   6.642  10.744   5.613 -0.0955  0.1135 -0.1077
  690loPI   GL110701   6.530  10.651   5.943  0.0727  0.1139  0.1983
  690loPI   GL210702   6.290  10.394   5.939 -0.1435  0.0077  0.0510
  690loPI   C1A10703   6.576  10.895   6.261 -0.1692 -0.1615  0.3504
  690loPI   C2A10704   6.491  10.838   6.627 -0.0515  0.1654 -0.0463
  690loPI   C3A10705   6.519  10.763   7.007  0.0838 -0.4736  0.0489
  690loPI   C4A10706   6.604  10.890   7.498  0.0214 -0.1081  0.4258
  690loPI   C5A10707   6.569  11.100   7.957 -0.1938  0.0721 -0.2448
  690loPI   C6A10708   6.755  11.432   8.362  0.0804  0.0331 -0.1279
  690loPI   C1B10709   6.462  10.307   6.347  0.1806  0.2390  0.1209
  690loPI   C2B10710   6.460  10.292   6.846 -0.0727  0.4832 -0.3658
  690loPI   C3B10711   6.531  10.278   7.253 -0.2330  0.0877  0.1282
  690loPI   C4B10712   6.539  10.401   7.522  0.3512  0.0120 -0.0374
  691loPI    C110713  17.834  10.451   5.174 -0.0724  0.0412 -0.1138
  691loPI    C210714  17.773  10.084   5.026 -0.2373 -0.0223  0.1059
  691loPI    C310715  17.752  10.403   4.785  0.1902 -0.1752 -0.1460
  691loPI   PO410716  17.674  10.496   5.386  0.0169  0.1195 -0.1425
  691loPI   GL110717  17.665  10.603   5.829 -0.1404  0.0117  0.0751
  691loPI   GL210718  17.887  10.491   5.893 -0.0001 -0.1192 -0.1940
  691loPI   C1A10719  17.356  10.591   6.100  0.0095 -0.1288 -0.0396
  691loPI   C2A10720  17.394  10.594   6.587 -0.1023 -0.0716  0.1977
  691loPI   C3A10721  17.376  10.683   7.010  0.1271  0.0429 -0.2887
  691loPI   C4A10722  17.409  10.650   7.375  0.2463  0.0997 -0.1432
  691loPI   C5A10723  17.505  10.606   7.792 -0.1114 -0.0075  0.4082
  691loPI   C6A10724  17.639  10.838   8.184 -0.0200  0.1532 -0.2589
  691loPI   C1B10725  17.876  10.435   6.285 -0.2801 -0.0693  0.0435
  691loPI   C2B10726  17.810  10.404   6.716 -0.1779  0.2021 -0.1924
  691loPI   C3B10727  17.877  10.422   7.089  0.1887  0.0478 -0.0859
  691loPI   C4B10728  17.933  10.234   7.435 -0.1024 -0.1308  0.1717
  692loPI    C110729   5.156   7.481   5.567  0.0563 -0.0380  0.0229
  692loPI    C210730   5.148   7.495   5.168  0.0119  0.0892  0.0279
  692loPI    C310731   5.401   7.729   5.371  0.1814 -0.1252  0.0676
  692loPI   PO410732   4.935   7.498   5.678 -0.2845  0.2040  0.2323
  692loPI   GL110733   4.832   7.803   6.033  0.1394  0.0018 -0.2138
  692loPI   GL210734   4.534   7.951   6.111 -0.2063  0.1290  0.1034
  692loPI   C1A10735   4.946   8.076   6.363 -0.2153  0.0985 -0.0323
  692loPI   C2A10736   4.946   8.047   6.845 -0.2167  0.0735  0.0147
  692loPI   C3A10737   4.916   8.133   7.257  0.0495  0.0325 -0.1715
  692loPI   C4A10738   4.943   8.075   7.596  0.3012  0.1348  0.0036
  692loPI   C5A10739   4.950   8.193   7.980  0.0656 -0.2062  0.0240
  692loPI   C6A10740   4.689   8.241   8.305  0.3262 -0.1542 -0.1528
  692loPI   C1B10741   4.488   7.896   6.508 -0.2488  0.0772 -0.0159
  692loPI   C2B10742   4.532   7.862   6.990 -0.0617  0.0369 -0.4702
  692loPI   C3B10743   4.489   7.837   7.399  0.1938  0.0706 -0.3423
  692loPI   C4B10744   4.559   7.705   7.785 -0.1003  0.0628 -0.0514
  693loPI    C110745  15.674   8.953   5.153 -0.3126  0.1408 -0.1755
  693loPI    C210746  15.944   9.173   4.957  0.2022 -0.0984  0.2418
  693loPI    C310747  15.732   8.896   4.762  0.4167 -0.0603 -0.0519
  693loPI   PO410748  15.808   8.916   5.375  0.0216  0.1265  0.2314
  693loPI   GL110749  15.988   8.727   5.787  0.1053 -0.1371 -0.0395
  693loPI   GL210750  15.967   8.477   5.539  0.1351  0.0640  0.1607
  693loPI   C1A10751  15.985   8.821   6.191  0.0192 -0.2989  0.0559
  693loPI   C2A10752  16.094   8.791   6.588 -0.1473  0.0103  0.1546
  693loPI   C3A10753  16.117   8.853   7.017  0.0782  0.0041  0.2430
  693loPI   C4A10754  16.068   8.812   7.515 -0.2066  0.2094 -0.1050
  693loPI   C5A10755  16.397   8.551   7.812  0.0868  0.0409  0.1070
  693loPI   C6A10756  16.592   8.211   8.047  0.0972  0.1638 -0.2922
  693loPI   C1B10757  15.982   8.304   5.934  0.1483 -0.1944 -0.0838
  693loPI   C2B10758  16.008   8.357   6.379 -0.1975  0.0112  0.0459
  693loPI   C3B10759  16.039   8.333   6.840 -0.0947 -0.0445  0.0399
  693loPI   C4B10760  15.988   8.283   7.314 -0.1273  0.1110  0.0096
  694loPI    C110761  14.901   4.644   5.272  0.2752  0.2415 -0.2202
  694loPI    C210762  14.673   4.808   4.987 -0.2296 -0.0502  0.0026
  694loPI    C310763  14.839   4.449   4.928  0.1531  0.1451 -0.1443
  694loPI   PO410764  14.732   4.669   5.515  0.0698  0.0243  0.0517
  694loPI   GL110765  14.593   4.949   5.888  0.0223  0.0799  0.2943
  694loPI   GL210766  14.878   5.095   5.785 -0.2135 -0.1526 -0.0952
  694loPI   C1A10767  14.757   4.887   6.296 -0.1773  0.0654 -0.0191
  694loPI   C2A10768  14.820   4.854   6.705  0.2190 -0.2224 -0.0101
  694loPI   C3A10769  14.755   4.860   7.145 -0.3206 -0.1363  0.0648
  694loPI   C4A10770  14.805   4.741   7.513 -0.1882 -0.2247 -0.1422
  694loPI   C5A10771  14.745   4.799   7.983 -0.0042 -0.3812  0.1005
  694loPI   C6A10772  14.460   5.099   8.304 -0.2727 -0.1736  0.3539
  694loPI   C1B10773  14.696   5.361   6.214 -0.0327 -0.0132  0.2367
  694loPI   C2B10774  14.730   5.419   6.518  0.1683 -0.0798  0.1090
  694loPI   C3B10775  14.694   5.360   6.952  0.1291 -0.1178  0.3313
  694loPI   C4B10776  14.780   5.360   7.411  0.0045 -0.1859  0.4050
  695loPI    C110777   5.720  14.679   5.346  0.1042  0.0161  0.0666
  695loPI    C210778   6.070  14.570   5.186  0.0303  0.1903 -0.2221
  695loPI    C310779   5.728  14.423   5.039 -0.0334  0.2570 -0.1419
  695loPI   PO410780   5.763  14.652   5.586 -0.1265  0.1799  0.1137
  695loPI   GL110781   5.837  14.545   5.966  0.3262 -0.1583 -0.0189
  695loPI   GL210782   6.078  14.619   6.103 -0.1899  0.1542  0.1531
  695loPI   C1A10783   5.638  14.452   6.363  0.1058  0.4277  0.0336
  695loPI   C2A10784   5.540  14.403   6.768 -0.2604  0.0795  0.0402
  695loPI   C3A10785   5.616  14.413   7.158  0.2620 -0.0711 -0.2146
  695loPI   C4A10786   5.727  14.394   7.619 -0.3286 -0.0960 -0.1205
  695loPI   C5A10787   5.756  14.419   8.061  0.0278  0.2242  0.0238
  695loPI   C6A10788   5.916  14.293   8.442 -0.2000 -0.1531  0.1502
  695loPI   C1B10789   6.061  14.721   6.486  0.2893  0.3221 -0.3595
  695loPI   C2B10790   6.059  14.708   6.907 -0.0544 -0.0917 -0.0144
  695loPI   C3B10791   6.038  14.692   7.176  0.2976 -0.0010  0.0635
  695loPI   C4B10792   6.182  14.656   7.625  0.1818  0.0852 -0.2439
  696loPI    C110793  14.741   9.747   5.212 -0.0816 -0.1951  0.0644
  696loPI    C210794  14.767  10.057   4.961 -0.0812 -0.1507  0.1189
  696loPI    C310795  14.673   9.694   4.822  0.0171 -0.1465  0.0402
  696loPI   PO410796  14.596   9.830   5.427 -0.0539 -0.2675  0.1555
  696loPI   GL110797  14.561   9.642   5.776 -0.0261 -0.1271  0.2899
  696loPI   GL210798  14.714  10.012   5.883  0.3124 -0.1104 -0.0132
  696loPI   C1A10799  14.611   9.641   6.227 -0.0099  0.1835 -0.0215
  696loPI   C2A10800  14.686   9.621   6.684  0.0267  0.0741 -0.1036
  696loPI   C3A10801  14.687   9.537   7.177  0.2789 -0.0390  0.1434
  696loPI   C4A10802  14.665   9.524   7.684  0.1502 -0.1733 -0.1143
  696loPI   C5A10803  14.971   9.737   7.995  0.1187  0.1009  0.0004
  696loPI   C6A10804  15.413   9.687   8.218 -0.1424  0.0370  0.1671
  696loPI   C1B10805  14.663  10.142   6.238 -0.3630 -0.0805 -0.0879
  696loPI   C2B10806  14.666  10.089   6.697  0.1479 -0.2115 -0.0277
  696loPI   C3B10807  14.666  10.006   7.168 -0.0464 -0.2940 -0.0432
  696loPI   C4B10808  14.599  10.025   7.665 -0.1661 -0.1447 -0.3736
  697loPI    C110809  13.452   1.009   5.514 -0.1177 -0.0954  0.0182
  697loPI    C210810  13.609   0.650   5.432 -0.1684 -0.1356  0.0964
  697loPI    C310811  13.255   0.755   5.276 -0.1210 -0.0923  0.0175
  697loPI   PO410812  13.468   0.986   5.829 -0.2975  0.3197  0.3422
  697loPI   GL110813  13.573   1.090   6.220 -0.1556 -0.2637  0.3814
  697loPI   GL210814  13.484   1.371   6.134  0.0405 -0.1721 -0.1196
  697loPI   C1A10815  13.475   1.013   6.700  0.5317 -0.2807  0.2518
  697loPI   C2A10816  13.492   0.898   7.070  0.2410  0.1830 -0.2057
  697loPI   C3A10817  13.546   0.797   7.492 -0.1390 -0.1701  0.0477
  697loPI   C4A10818  13.525   0.845   7.925 -0.1266 -0.0465 -0.0187
  697loPI   C5A10819  13.238   0.572   8.172 -0.0584 -0.1306  0.2567
  697loPI   C6A10820  12.867   0.327   8.198  0.0756  0.1895  0.1257
  697loPI   C1B10821  13.498   1.510   6.539 -0.1996  0.3551 -0.0785
  697loPI   C2B10822  13.541   1.449   6.982  0.1791 -0.3599  0.0857
  697loPI   C3B10823  13.597   1.368   7.395 -0.2684  0.0077  0.0774
  697loPI   C4B10824  13.532   1.360   7.889 -0.3754 -0.0472 -0.1364
  698loPI    C110825   9.113  10.736   5.401 -0.4066 -0.1139  0.1408
  698loPI    C210826   8.774  10.839   5.215 -0.1868 -0.0010 -0.2093
  698loPI    C310827   9.127  10.924   5.048  0.0174 -0.1172  0.1504
  698loPI   PO410828   9.110  10.869   5.608  0.2159 -0.0087 -0.1250
  698loPI   GL110829   9.061  10.684   5.946  0.1145 -0.0372 -0.2511
  698loPI   GL210830   8.877  10.716   6.140 -0.0779  0.1360  0.0546
  698loPI   C1A10831   9.195  10.959   6.378  0.0540 -0.1727 -0.0412
  698loPI   C2A10832   9.281  10.953   6.794 -0.3157  0.1272  0.0884
  698loPI   C3A10833   9.216  10.926   7.168 -0.2750  0.1835  0.2847
  698loPI   C4A10834   9.296  10.851   7.623 -0.1375 -0.0422 -0.2343
  698loPI   C5A10835   9.452  10.819   8.111 -0.1142 -0.1346  0.3196
  698loPI   C6A10836   9.308  10.825   8.549  0.0927 -0.1140  0.1446
  698loPI   C1B10837   8.847  10.724   6.602 -0.0938  0.0697  0.1038
  698loPI   C2B10838   8.851  10.613   6.973  0.2109  0.0244  0.0752
  698loPI   C3B10839   8.832  10.590   7.429  0.0028 -0.0553 -0.0654
  698loPI   C4B10840   8.848  10.514   7.904  0.2656  0.0788  0.2009
  699loPI    C110841   5.456   2.024   5.976  0.2696 -0.2695  0.0709
  699loPI    C210842   5.165   1.855   5.760  0.0747 -0.0140  0.1278
  699loPI    C310843   5.492   1.998   5.578 -0.0850  0.1939 -0.0004
  699loPI   PO410844   5.295   2.057   6.181  0.0772  0.1042  0.0224
  699loPI   GL110845   5.459   1.951   6.632  0.0036  0.0301  0.0988
  699loPI   GL210846   5.471   2.250   6.834 -0.0889 -0.3645 -0.1439
  699loPI   C1A10847   5.591   1.713   6.937 -0.0016  0.1149 -0.1712
  699loPI   C2A10848   5.731   1.848   7.243  0.1700  0.1630 -0.2025
  699loPI   C3A10849   5.980   2.083   7.550 -0.0064  0.1160 -0.1166
  699loPI   C4A10850   6.360   2.303   7.822  0.0946  0.2105  0.0212
  699loPI   C5A10851   6.742   2.437   7.785 -0.4948  0.2202 -0.0419
  699loPI   C6A10852   7.194   2.313   7.831  0.0661 -0.1209 -0.0576
  699loPI   C1B10853   5.234   2.071   7.122 -0.1036 -0.2785 -0.0871
  699loPI   C2B10854   4.876   2.037   7.266  0.2217  0.2202  0.0046
  699loPI   C3B10855   4.782   1.812   7.583 -0.0068 -0.2240 -0.0490
  699loPI   C4B10856   4.778   1.333   7.554  0.1633  0.2541  0.4058
  700loPI    C110857  11.129  12.618   5.200 -0.0176  0.0022 -0.0358
  700loPI    C210858  10.889  12.307   5.123  0.2403 -0.1815 -0.1117
  700loPI    C310859  11.252  12.325   4.956  0.3411  0.0154  0.1238
  700loPI   PO410860  11.061  12.675   5.486  0.0861  0.1445 -0.3530
  700loPI   GL110861  11.109  12.710   6.016 -0.1147  0.4224 -0.0627
  700loPI   GL210862  11.414  12.762   6.134 -0.1135 -0.0225  0.2570
  700loPI   C1A10863  11.009  12.502   6.354  0.0283 -0.0539 -0.3982
  700loPI   C2A10864  10.931  12.423   6.696  0.1489 -0.1676 -0.0989
  700loPI   C3A10865  10.994  12.453   7.119  0.1326  0.1116 -0.0858
  700loPI   C4A10866  11.084  12.478   7.555 -0.1682  0.1720 -0.0508
  700loPI   C5A10867  11.087  12.501   7.972  0.1272  0.1097 -0.0027
  700loPI   C6A10868  11.068  12.327   8.282  0.0419 -0.0021  0.0720
  700loPI   C1B10869  11.395  12.783   6.644  0.0193  0.0425  0.3214
  700loPI   C2B10870  11.418  12.732   7.086 -0.0697 -0.1070 -0.1969
  700loPI   C3B10871  11.446  12.852   7.556 -0.1283  0.0071  0.0621
  700loPI   C4B10872  11.495  12.806   8.024  0.2422  0.0813  0.3459
  701loPI    C110873   6.511   0.186   6.071 -0.0122 -0.0653  0.0055
  701loPI    C210874   6.429  -0.077   5.780 -0.1441 -0.0755  0.0517
  701loPI    C310875   6.377   0.315   5.716 -0.0869 -0.0711  0.0316
  701loPI   PO410876   6.762   0.204   6.156  0.1086  0.1070  0.1854
  701loPI   GL110877   6.812   0.122   6.546 -0.0807  0.0364 -0.0875
  701loPI   GL210878   6.595  -0.156   6.487 -0.1065  0.0627  0.1037
  701loPI   C1A10879   7.065   0.298   6.966  0.1194  0.1360 -0.1396
  701loPI   C2A10880   7.136   0.185   7.312  0.0173 -0.1366 -0.0367
  701loPI   C3A10881   7.291   0.166   7.715  0.1762 -0.4023  0.0827
  701loPI   C4A10882   7.391   0.470   8.111  0.3242  0.0606  0.1977
  701loPI   C5A10883   7.660   0.780   8.109 -0.0789 -0.2845 -0.1997
  701loPI   C6A10884   7.628   1.214   7.991  0.1530 -0.0194  0.0084
  701loPI   C1B10885   6.642  -0.006   7.014 -0.0579  0.2680 -0.0914
  701loPI   C2B10886   6.753  -0.157   7.377  0.1672 -0.2740  0.1066
  701loPI   C3B10887   6.844  -0.135   7.786 -0.1174  0.1739 -0.0971
  701loPI   C4B10888   6.525   0.000   8.080  0.4470 -0.0311  0.2129
  702loPI    C110889  16.197  17.054   5.756  0.1243 -0.1131  0.0903
  702loPI    C210890  16.434  16.746   5.665 -0.0377 -0.2050 -0.0255
  702loPI    C310891  16.148  16.703   5.941  0.1996 -0.0395  0.2524
  702loPI   PO410892  16.363  17.247   5.862 -0.1384  0.1833  0.0326
  702loPI   GL110893  16.411  17.334   6.220  0.3320  0.3514  0.1472
  702loPI   GL210894  16.749  17.285   6.159  0.0341  0.1785  0.1771
  702loPI   C1A10895  16.376  17.346   6.624  0.1363 -0.1964  0.1358
  702loPI   C2A10896  16.302  17.343   6.898  0.0539  0.4472 -0.1444
  702loPI   C3A10897  16.345  17.307   7.328  0.0520  0.2622 -0.0440
  702loPI   C4A10898  16.292  17.393   7.812  0.3553  0.3436 -0.0346
  702loPI   C5A10899  16.216  17.475   8.205 -0.2219  0.1052 -0.2157
  702loPI   C6A10900  16.336  17.161   8.426 -0.0075 -0.0038  0.1595
  702loPI   C1B10901  16.871  17.173   6.667  0.0661 -0.0305  0.1557
  702loPI   C2B10902  16.792  17.116   7.095  0.2473 -0.0717 -0.0365
  702loPI   C3B10903  16.782  17.094   7.466  0.0971 -0.3128 -0.0839
  702loPI   C4B10904  16.733  17.214   7.859  0.2870  0.2140 -0.1708
  703loPI    C110905  16.315   1.652   5.687  0.1185 -0.1930  0.0320
  703loPI    C210906  16.047   1.462   5.458  0.0541 -0.0491 -0.0124
  703loPI    C310907  16.242   1.781   5.315 -0.0494  0.0946  0.1613
  703loPI   PO410908  16.163   1.683   5.910 -0.0102 -0.3710 -0.1568
  703loPI   GL110909  16.192   1.436   6.139 -0.3198  0.0302  0.0335
  703loPI   GL210910  15.910   1.335   6.323 -0.0545  0.1619  0.1016
  703loPI   C1A10911  16.204   1.618   6.564 -0.2235 -0.0573 -0.3286
  703loPI   C2A10912  16.242   1.472   7.000 -0.2764 -0.1792 -0.1455
  703loPI   C3A10913  16.219   1.517   7.401 -0.0039 -0.0529 -0.0890
  703loPI   C4A10914  16.220   1.427   7.927 -0.4525  0.0670 -0.0462
  703loPI   C5A10915  16.335   1.563   8.358  0.4673 -0.0957  0.0687
  703loPI   C6A10916  16.311   1.886   8.588  0.2319 -0.1656  0.0211
  703loPI   C1B10917  15.702   1.298   6.639 -0.2071  0.2562  0.2028
  703loPI   C2B10918  15.837   1.255   7.109 -0.2047 -0.0254 -0.1859
  703loPI   C3B10919  15.832   1.188   7.519 -0.1031  0.0294 -0.3080
  703loPI   C4B10920  15.777   1.235   8.012 -0.0288 -0.1496 -0.2764
  704loPI    C110921   3.833   2.485   6.127 -0.1151  0.2408  0.1914
  704loPI    C210922   4.093   2.743   5.967  0.0035 -0.0120 -0.0298
  704loPI    C310923   3.805   2.583   5.740  0.0020 -0.1615  0.0761
  704loPI   PO410924   3.809   2.503   6.306  0.1591  0.0984  0.0896
  704loPI   GL110925   3.458   2.311   6.426  0.1027  0.0211  0.2852
  704loPI   GL210926   3.761   2.074   6.539 -0.0278  0.1589  0.2982
  704loPI   C1A10927   3.333   2.189   6.735 -0.0556 -0.1868 -0.1664
  704loPI   C2A10928   3.327   2.161   7.170  0.3115  0.0651  0.3444
  704loPI   C3A10929   3.285   2.004   7.528  0.0368  0.0858 -0.0079
  704loPI   C4A10930   3.424   2.121   8.021 -0.5112  0.1291 -0.1101
  704loPI   C5A10931   3.535   2.276   8.253 -0.1473 -0.1352  0.0232
  704loPI   C6A10932   3.845   2.363   8.481  0.1636 -0.0495  0.0160
  704loPI   C1B10933   3.741   2.035   6.975  0.0096 -0.1642 -0.2330
  704loPI   C2B10934   3.771   1.787   7.383 -0.1004 -0.0712 -0.1654
  704loPI   C3B10935   3.827   1.968   7.714 -0.1734  0.0493 -0.0131
  704loPI   C4B10936   3.789   2.432   7.861 -0.0939 -0.1955  0.0727
  705loPI    C110937  14.344   0.363   5.640 -0.1328  0.0061  0.1304
  705loPI    C210938  14.089   0.466   5.351  0.2255  0.2064 -0.1221
  705loPI    C310939  14.159   0.080   5.427 -0.2681  0.1452  0.0613
  705loPI   PO410940  14.334   0.524   5.889 -0.1205 -0.2936  0.0065
  705loPI   GL110941  14.090   0.547   6.170 -0.0630  0.1172  0.1931
  705loPI   GL210942  13.943   0.757   6.428  0.3169  0.2470  0.0289
  705loPI   C1A10943  14.326   0.450   6.505 -0.1967 -0.3008 -0.0513
  705loPI   C2A10944  14.468   0.354   7.038  0.0477 -0.0920  0.2555
  705loPI   C3A10945  14.463   0.456   7.412  0.1442  0.3952  0.3227
  705loPI   C4A10946  14.478   0.327   7.792  0.2135  0.2151  0.0096
  705loPI   C5A10947  14.593   0.284   8.217  0.1746  0.0875 -0.3139
  705loPI   C6A10948  14.825   0.125   8.572  0.2809  0.0156 -0.1659
  705loPI   C1B10949  13.861   0.647   6.792 -0.0649  0.0827  0.1449
  705loPI   C2B10950  13.985   0.643   7.203  0.1559 -0.0059 -0.1943
  705loPI   C3B10951  14.006   0.616   7.604  0.0055 -0.2868  0.0785
  705loPI   C4B10952  13.991   0.517   7.982  0.1359 -0.0056 -0.1610
  706loPI    C110953   1.248   4.488   5.329 -0.0843  0.1665  0.0983
  706loPI    C210954   1.176   4.101   5.253 -0.3462  0.1732  0.3005
  706loPI    C310955   1.094   4.378   4.976 -0.0958  0.0795  0.1302
  706loPI   PO410956   1.073   4.530   5.544  0.0183 -0.3400  0.0367
  706loPI   GL110957   1.080   4.680   6.041  0.0378 -0.1933  0.0798
  706loPI   GL210958   1.130   4.908   6.210  0.1068 -0.0313  0.1740
  706loPI   C1A10959   0.972   4.376   6.366 -0.4952  0.3768 -0.0614
  706loPI   C2A10960   0.950   4.250   6.806 -0.0290  0.0481 -0.0572
  706loPI   C3A10961   0.942   4.263   7.235  0.1125 -0.1858  0.1670
  706loPI   C4A10962   0.916   4.250   7.724 -0.0479  0.0346 -0.4347
  706loPI   C5A10963   1.021   4.021   8.032 -0.1334 -0.0963  0.1031
  706loPI   C6A10964   0.832   3.650   8.298 -0.2293 -0.0146  0.0501
  706loPI   C1B10965   0.836   4.760   6.666 -0.1723 -0.0761  0.1243
  706loPI   C2B10966   0.950   4.721   7.054  0.1044  0.1578  0.1570
  706loPI   C3B10967   0.933   4.767   7.513  0.2207 -0.0894  0.0186
  706loPI   C4B10968   1.057   4.930   7.888 -0.3851 -0.0517  0.0100
  707loPI    C110969   3.680   8.913   5.350  0.0759 -0.1767 -0.0320
  707loPI    C210970   3.626   9.103   5.002 -0.0699  0.1088  0.1421
  707loPI    C310971   3.962   8.895   5.066 -0.0231  0.0885 -0.1507
  707loPI   PO410972   3.664   9.175   5.617 -0.0200 -0.0245  0.2916
  707loPI   GL110973   3.397   9.292   5.920 -0.3709 -0.0323 -0.1046
  707loPI   GL210974   3.115   9.289   5.897  0.1521  0.0047 -0.2447
  707loPI   C1A10975   3.457   9.207   6.376 -0.2773 -0.1292  0.1092
  707loPI   C2A10976   3.465   9.375   6.848 -0.1672 -0.1129  0.1305
  707loPI   C3A10977   3.460   9.515   7.326  0.2144 -0.0186  0.1151
  707loPI   C4A10978   3.486   9.439   7.685  0.1860 -0.1463 -0.1587
  707loPI   C5A10979   3.313   9.592   8.130 -0.0660 -0.1874  0.4353
  707loPI   C6A10980   2.965   9.862   8.206  0.1058 -0.0658 -0.1445
  707loPI   C1B10981   3.060   9.535   6.204 -0.1416  0.1564  0.0716
  707loPI   C2B10982   3.046   9.592   6.680 -0.2454  0.2308  0.0029
  707loPI   C3B10983   3.016   9.582   7.190 -0.0987  0.0537 -0.1710
  707loPI   C4B10984   3.094   9.725   7.674 -0.0538 -0.2905  0.3464
  708loPI    C110985   6.111   9.199   5.478  0.1836  0.0276  0.1026
  708loPI    C210986   6.182   9.252   5.088 -0.0908 -0.1178  0.0304
  708loPI    C310987   6.134   8.883   5.235  0.1245 -0.0713  0.2244
  708loPI   PO410988   5.926   9.300   5.625 -0.1038 -0.1283  0.1864
  708loPI   GL110989   6.035   9.224   6.042  0.0570  0.1982  0.0012
  708loPI   GL210990   5.756   9.322   6.182 -0.0964 -0.0291  0.0495
  708loPI   C1A10991   6.174   9.348   6.611  0.0320  0.0987  0.1764
  708loPI   C2A10992   6.128   9.453   7.084 -0.1876  0.1344  0.0893
  708loPI   C3A10993   6.130   9.530   7.554 -0.2330  0.0693  0.2729
  708loPI   C4A10994   6.292   9.561   7.930  0.1508 -0.2549  0.0537
  708loPI   C5A10995   6.556   9.456   8.257  0.0329 -0.0151 -0.2889
  708loPI   C6A10996   6.546   9.155   8.476  0.2333 -0.1309 -0.0465
  708loPI   C1B10997   5.675   9.117   6.584  0.0362  0.0219  0.1192
  708loPI   C2B10998   5.706   9.126   7.027 -0.1515  0.1677 -0.1321
  708loPI   C3B10999   5.763   9.187   7.430  0.0051 -0.1179 -0.0581
  708loPI   C4B11000   5.819   9.381   7.876 -0.0958  0.1795 -0.0388
  709loPI    C111001   0.163   9.763   5.280 -0.0412  0.0397  0.1856
  709loPI    C211002   0.418   9.507   5.109 -0.1725 -0.1065  0.2060
  709loPI    C311003   0.118   9.663   4.895 -0.0414  0.1001  0.1698
  709loPI   PO411004   0.087   9.623   5.514  0.0529 -0.0534  0.1337
  709loPI   GL111005  -0.172   9.293   5.632  0.1056  0.0358  0.0375
  709loPI   GL211006  -0.428   9.544   5.717  0.0965 -0.3687  0.0191
  709loPI   C1A11007  -0.111   9.364   6.035 -0.0931  0.2143  0.0577
  709loPI   C2A11008  -0.066   9.459   6.357  0.1073  0.0576 -0.0592
  709loPI   C3A11009  -0.129   9.335   6.815  0.3030  0.3299  0.1601
  709loPI   C4A11010   0.012   9.269   7.372  0.1545 -0.2114  0.0903
  709loPI   C5A11011  -0.007   9.245   7.774 -0.0770 -0.1272  0.0496
  709loPI   C6A11012   0.112   9.226   8.126  0.1528  0.0577 -0.2025
  709loPI   C1B11013  -0.512   9.552   6.151  0.1192 -0.0018 -0.1810
  709loPI   C2B11014  -0.519   9.653   6.634 -0.1733  0.1207  0.0519
  709loPI   C3B11015  -0.515   9.672   7.094 -0.1980  0.2129 -0.0271
  709loPI   C4B11016  -0.451   9.525   7.548 -0.0021  0.2923  0.1688
  710loPI    C111017  10.724  10.443   4.993 -0.0879 -0.0698 -0.1547
  710loPI    C211018  11.000  10.669   4.812  0.0959 -0.0972  0.0863
  710loPI    C311019  10.929  10.298   4.681  0.0814 -0.0450 -0.0561
  710loPI   PO411020  10.745  10.603   5.238 -0.0099  0.3154 -0.2818
  710loPI   GL111021  10.671  10.609   5.676 -0.1120 -0.0993  0.0661
  710loPI   GL211022  10.559  10.741   5.854 -0.0288  0.0320  0.0253
  710loPI   C1A11023  11.009  10.439   5.959 -0.1299  0.2709 -0.0616
  710loPI   C2A11024  11.025  10.469   6.327  0.6610 -0.3169 -0.0050
  710loPI   C3A11025  11.065  10.444   6.727  0.3352 -0.0286 -0.1800
  710loPI   C4A11026  11.036  10.472   7.198 -0.2429  0.1501  0.3153
  710loPI   C5A11027  11.149  10.383   7.621  0.2967  0.0829  0.2781
  710loPI   C6A11028  11.234  10.333   8.041 -0.2636 -0.0512 -0.0159
  710loPI   C1B11029  10.523  10.812   6.232 -0.1465 -0.1210 -0.1595
  710loPI   C2B11030  10.572  10.783   6.588 -0.1748 -0.0077 -0.0205
  710loPI   C3B11031  10.638  10.699   7.017  0.1251  0.2509  0.0093
  710loPI   C4B11032  10.638  10.621   7.495 -0.0036  0.3023  0.1941
  711loPI    C111033  10.205  10.155   5.003 -0.1309  0.1918 -0.1067
  711loPI    C211034  10.526   9.950   4.881 -0.1459  0.0870  0.0273
  711loPI    C311035  10.223  10.015   4.629 -0.1279 -0.0303 -0.0253
  711loPI   PO411036  10.262  10.039   5.285 -0.1525  0.0515  0.0618
  711loPI   GL111037  10.427  10.136   5.700  0.4664 -0.0045 -0.1822
  711loPI   GL211038  10.634   9.950   5.810 -0.0466 -0.2727  0.0126
  711loPI   C1A11039  10.520  10.339   6.135  0.0220  0.0505 -0.0484
  711loPI   C2A11040  10.581  10.202   6.541 -0.0091 -0.1898  0.1087
  711loPI   C3A11041  10.670  10.169   6.957 -0.1362  0.1771 -0.0155
  711loPI   C4A11042  10.652  10.159   7.338  0.1384 -0.1014 -0.0247
  711loPI   C5A11043  10.696  10.246   7.858 -0.0080  0.2154 -0.0173
  711loPI   C6A11044  10.626  10.675   8.074  0.3332  0.1421  0.0908
  711loPI   C1B11045  10.876   9.985   6.185  0.2850 -0.1912 -0.0098
  711loPI   C2B11046  11.017   9.944   6.557  0.3220  0.1268  0.1120
  711loPI   C3B11047  11.007   9.851   7.045  0.4482  0.3997  0.4588
  711loPI   C4B11048  11.087   9.894   7.443 -0.3537 -0.3304  0.2757
  712loPI    C111049   4.920  17.167   5.841  0.2791  0.0145  0.1392
  712loPI    C211050   4.857  17.116   5.450  0.1850  0.0026  0.1557
  712loPI    C311051   5.201  17.275   5.578  0.2181  0.0017  0.0686
  712loPI   PO411052   4.642  17.333   5.902 -0.0656  0.0510  0.1994
  712loPI   GL111053   4.433  17.431   6.309  0.0960  0.1578 -0.2463
  712loPI   GL211054   4.339  17.645   6.323 -0.0376 -0.0146  0.0856
  712loPI   C1A11055   4.433  17.375   6.830 -0.0218  0.0072 -0.2191
  712loPI   C2A11056   4.496  17.449   7.235 -0.2471  0.1827 -0.1482
  712loPI   C3A11057   4.519  17.425   7.654 -0.0923 -0.0144  0.1643
  712loPI   C4A11058   4.425  17.566   7.986  0.0773 -0.1495 -0.3813
  712loPI   C5A11059   4.190  17.585   8.364  0.0771 -0.1239 -0.2437
  712loPI   C6A11060   4.158  17.648   8.752 -0.2322 -0.2327 -0.1737
  712loPI   C1B11061   4.038  17.286   6.542 -0.1850  0.3428  0.0913
  712loPI   C2B11062   4.034  17.109   6.972 -0.1480  0.0447 -0.0702
  712loPI   C3B11063   4.185  17.150   7.426  0.1826 -0.0362  0.0791
  712loPI   C4B11064   4.121  17.209   7.914 -0.1661 -0.2682 -0.0279
  713loPI    C111065  15.541   4.778   5.295  0.1943 -0.2918 -0.1422
  713loPI    C211066  15.700   4.924   4.959 -0.0794  0.3948  0.0094
  713loPI    C311067  15.320   4.797   4.962 -0.0491  0.3042  0.0406
  713loPI   PO411068  15.771   4.643   5.460  0.2419 -0.3740  0.1234
  713loPI   GL111069  15.947   4.767   5.866  0.1621 -0.1101 -0.1987
  713loPI   GL211070  16.170   4.684   6.042 -0.1498 -0.2611  0.1287
  713loPI   C1A11071  15.759   4.948   6.200  0.1291 -0.0400 -0.1169
  713loPI   C2A11072  15.702   4.913   6.624  0.4465 -0.2596 -0.0743
  713loPI   C3A11073  15.637   4.865   7.044 -0.0387 -0.4668  0.2302
  713loPI   C4A11074  15.661   4.930   7.393  0.1203  0.1751  0.2388
  713loPI   C5A11075  15.580   4.807   7.756  0.1401  0.2747 -0.0534
  713loPI   C6A11076  15.271   4.610   8.010  0.0306 -0.0434 -0.0499
  713loPI   C1B11077  16.081   4.632   6.475  0.2121  0.1513 -0.0115
  713loPI   C2B11078  16.094   4.655   6.881  0.0770  0.2451  0.0701
  713loPI   C3B11079  16.157   4.638   7.325 -0.0173  0.3602 -0.2178
  713loPI   C4B11080  16.024   4.662   7.707 -0.0222 -0.0434 -0.3452
  714loPI    C111081   7.153  10.098   5.170  0.1142 -0.0310  0.1384
  714loPI    C211082   6.924  10.321   4.931 -0.0728 -0.2500  0.1093
  714loPI    C311083   7.298  10.230   4.821  0.0620  0.1766  0.1941
  714loPI   PO411084   7.023  10.187   5.402  0.3292  0.0714 -0.1396
  714loPI   GL111085   7.027  10.413   5.730 -0.2293  0.1487  0.1276
  714loPI   GL211086   6.897  10.197   5.895 -0.2190  0.4262 -0.1323
  714loPI   C1A11087   6.965  10.579   6.277  0.1142  0.0561 -0.0840
  714loPI   C2A11088   6.903  10.536   6.765 -0.0111 -0.0145  0.0879
  714loPI   C3A11089   6.921  10.621   7.255  0.3238  0.0336  0.0597
  714loPI   C4A11090   7.031  10.603   7.702  0.0947 -0.2636 -0.3241
  714loPI   C5A11091   7.032  10.365   8.114  0.0821 -0.2596 -0.0851
  714loPI   C6A11092   7.171  10.442   8.500  0.2968 -0.1934  0.0534
  714loPI   C1B11093   6.822   9.943   6.310 -0.2118  0.2647  0.1067
  714loPI   C2B11094   6.933  10.017   6.752  0.2114  0.1545 -0.2514
  714loPI   C3B11095   7.048  10.023   7.203 -0.2756  0.1972 -0.1658
  714loPI   C4B11096   7.068  10.092   7.645  0.0754  0.0498  0.1891
  715loPI    C111097   1.250  10.624   5.505  0.0758 -0.1796 -0.0531
  715loPI    C211098   1.500  10.344   5.364  0.2348  0.0337 -0.2009
  715loPI    C311099   1.303  10.584   5.111 -0.1867 -0.1843 -0.0897
  715loPI   PO411100   1.248  10.633   5.739  0.1289 -0.1935 -0.2153
  715loPI   GL111101   1.221  10.689   6.238  0.0013  0.2027 -0.0036
  715loPI   GL211102   0.929  10.902   6.092  0.1385 -0.3024 -0.1153
  715loPI   C1A11103   1.280  10.610   6.729 -0.0740  0.0507 -0.2926
  715loPI   C2A11104   1.225  10.651   7.111 -0.0742 -0.0280 -0.0051
  715loPI   C3A11105   1.330  10.691   7.547  0.0917 -0.0249 -0.0751
  715loPI   C4A11106   1.417  10.910   7.898 -0.0153 -0.2423 -0.0221
  715loPI   C5A11107   1.522  11.145   8.266 -0.1197  0.0919 -0.3038
  715loPI   C6A11108   1.733  11.514   8.366  0.0406 -0.0514  0.1246
  715loPI   C1B11109   0.797  10.963   6.482  0.2053  0.2223  0.0157
  715loPI   C2B11110   0.765  10.898   6.873 -0.1437  0.2389 -0.1099
  715loPI   C3B11111   0.875  10.859   7.380 -0.1300  0.3098 -0.1381
  715loPI   C4B11112   0.899  10.808   7.794 -0.2121  0.1367 -0.4344
  716loPI    C111113   4.891  15.448   5.164 -0.1608 -0.1547  0.0095
  716loPI    C211114   5.158  15.187   5.020  0.1361  0.1388  0.0147
  716loPI    C311115   4.931  15.402   4.769 -0.0772 -0.0875  0.0097
  716loPI   PO411116   4.999  15.366   5.533  0.2814  0.2008 -0.0105
  716loPI   GL111117   4.869  15.239   5.891 -0.0436  0.0919  0.3713
  716loPI   GL211118   5.013  15.043   6.060  0.0489 -0.0436  0.1961
  716loPI   C1A11119   4.667  15.358   6.292  0.2732  0.0007 -0.1306
  716loPI   C2A11120   4.663  15.389   6.745 -0.0591 -0.0008 -0.0076
  716loPI   C3A11121   4.688  15.425   7.130 -0.1897 -0.0080  0.1487
  716loPI   C4A11122   4.719  15.432   7.570 -0.0294  0.1509  0.1383
  716loPI   C5A11123   4.524  15.435   7.960  0.0554 -0.0386 -0.0922
  716loPI   C6A11124   4.556  15.105   8.233 -0.3462 -0.0704  0.0538
  716loPI   C1B11125   5.107  15.178   6.480  0.0421  0.0469 -0.2196
  716loPI   C2B11126   5.161  15.146   6.914  0.1316 -0.0713 -0.1652
  716loPI   C3B11127   5.095  15.095   7.324  0.1708  0.0928 -0.1719
  716loPI   C4B11128   5.257  15.080   7.641 -0.1101 -0.2751 -0.1464
  717loPI    C111129   8.081   9.945   5.386 -0.2308 -0.2997 -0.0362
  717loPI    C211130   8.459   9.913   5.259 -0.1546  0.2298  0.0355
  717loPI    C311131   8.160   9.930   4.994 -0.0951  0.1908 -0.0344
  717loPI   PO411132   8.037   9.817   5.519  0.0087 -0.0606 -0.0334
  717loPI   GL111133   7.776   9.938   5.902  0.2990 -0.0416 -0.0441
  717loPI   GL211134   8.048   9.757   6.032 -0.3557  0.0878  0.0701
  717loPI   C1A11135   7.816  10.042   6.342 -0.2581 -0.0779 -0.3289
  717loPI   C2A11136   7.789  10.063   6.761  0.0506 -0.1452 -0.0731
  717loPI   C3A11137   7.934  10.142   7.124  0.1111  0.0214 -0.0010
  717loPI   C4A11138   7.966  10.078   7.550  0.0459 -0.0740  0.1332
  717loPI   C5A11139   7.962  10.066   7.959  0.1382  0.1383 -0.1524
  717loPI   C6A11140   8.002  10.412   8.329 -0.2169  0.1082 -0.1512
  717loPI   C1B11141   8.130   9.726   6.441  0.0658  0.0228  0.0345
  717loPI   C2B11142   8.185   9.792   6.922  0.0152  0.1018  0.1831
  717loPI   C3B11143   8.355   9.860   7.315 -0.0812  0.3019 -0.2813
  717loPI   C4B11144   8.321   9.823   7.735 -0.0334 -0.1648 -0.2244
  718loPI    C111145  13.822   2.584   5.757 -0.0016  0.0423 -0.0844
  718loPI    C211146  13.762   2.220   5.602  0.0041  0.0815 -0.1797
  718loPI    C311147  13.764   2.541   5.363 -0.1600  0.1620 -0.0754
  718loPI   PO411148  14.088   2.525   5.865 -0.5214 -0.1122  0.0778
  718loPI   GL111149  14.367   2.398   6.186  0.0574  0.2547 -0.3500
  718loPI   GL211150  14.316   2.782   6.317 -0.1991  0.2467 -0.1728
  718loPI   C1A11151  14.365   2.527   6.738  0.1839 -0.2969  0.2519
  718loPI   C2A11152  14.334   2.466   7.214 -0.1597 -0.0440 -0.1734
  718loPI   C3A11153  14.434   2.522   7.574 -0.2330  0.0741 -0.0816
  718loPI   C4A11154  14.421   2.448   8.003  0.1057  0.0344  0.1461
  718loPI   C5A11155  14.146   2.408   8.369 -0.0529 -0.0689  0.0399
  718loPI   C6A11156  13.851   2.035   8.472  0.1050  0.3597 -0.2775
  718loPI   C1B11157  14.344   3.005   6.764 -0.0142  0.1557 -0.0634
  718loPI   C2B11158  14.330   3.085   7.142  0.1949 -0.2017 -0.1022
  718loPI   C3B11159  14.405   3.016   7.518  0.0090 -0.3900  0.1167
  718loPI   C4B11160  14.347   2.915   7.946 -0.4469 -0.0969  0.2414
  719loPI    C111161  13.027  14.113   5.419  0.0061 -0.1095 -0.0152
  719loPI    C211162  12.849  14.241   5.085  0.2337 -0.0445 -0.1132
  719loPI    C311163  13.240  14.304   5.140  0.1532  0.1520  0.2699
  719loPI   PO411164  13.009  14.226   5.645  0.0231 -0.2127  0.2935
  719loPI   GL111165  13.328  14.164   5.952  0.0770 -0.0243  0.0448
  719loPI   GL211166  13.576  14.116   6.090 -0.3059 -0.0402  0.2342
  719loPI   C1A11167  13.151  14.316   6.303 -0.0678  0.0715  0.0075
  719loPI   C2A11168  13.240  14.478   6.756 -0.2455 -0.0535  0.2090
  719loPI   C3A11169  13.295  14.306   7.189 -0.3330 -0.2162 -0.0688
  719loPI   C4A11170  13.286  14.324   7.575 -0.1655  0.0599 -0.0078
  719loPI   C5A11171  13.284  14.186   8.061  0.3633 -0.3575  0.3782
  719loPI   C6A11172  13.011  14.415   8.403 -0.1285  0.1159  0.1434
  719loPI   C1B11173  13.637  14.196   6.481 -0.0621  0.0964  0.3484
  719loPI   C2B11174  13.717  14.152   6.928  0.1236 -0.2094 -0.0652
  719loPI   C3B11175  13.783  14.138   7.377 -0.0151  0.0601  0.1762
  719loPI   C4B11176  13.773  13.991   7.798 -0.1131 -0.1211 -0.0387
  720loPI    C111177   6.466  15.080   5.877 -0.2916  0.0257 -0.0418
  720loPI    C211178   6.330  15.360   5.626 -0.1336 -0.0018 -0.1601
  720loPI    C311179   6.629  15.120   5.513 -0.1194 -0.0715  0.0236
  720loPI   PO411180   6.414  15.163   6.058 -0.6588  0.2994 -0.1378
  720loPI   GL111181   6.504  15.072   6.434 -0.2210  0.1573 -0.0028
  720loPI   GL211182   6.792  15.279   6.539  0.1591  0.1133  0.0695
  720loPI   C1A11183   6.447  14.986   6.866 -0.0135 -0.2241  0.4166
  720loPI   C2A11184   6.546  14.947   7.329 -0.0924 -0.0199  0.1747
  720loPI   C3A11185   6.589  14.861   7.824 -0.2473  0.1162  0.0093
  720loPI   C4A11186   6.405  14.540   8.103 -0.2220 -0.3103 -0.0823
  720loPI   C5A11187   6.621  14.364   8.537 -0.2568  0.2428 -0.1666
  720loPI   C6A11188   6.476  14.010   8.839 -0.0598 -0.2858  0.3662
  720loPI   C1B11189   6.951  15.324   7.006 -0.1849 -0.0297  0.0129
  720loPI   C2B11190   6.948  15.268   7.412  0.2723  0.0054 -0.1816
  720loPI   C3B11191   7.035  15.253   7.868 -0.1920  0.0602  0.1250
  720loPI   C4B11192   7.246  15.134   8.340  0.0887 -0.1353  0.0276
  721loPI    C111193  13.288   1.895   5.408  0.1162 -0.0359 -0.0447
  721loPI    C211194  13.355   2.250   5.234  0.1664 -0.1794 -0.3241
  721loPI    C311195  13.104   1.988   5.065  0.0768 -0.2522 -0.0833
  721loPI   PO411196  13.393   1.945   5.634  0.2990  0.1063  0.2192
  721loPI   GL111197  13.338   1.913   5.993  0.2368 -0.0639  0.1938
  721loPI   GL211198  13.147   1.739   6.088 -0.2241 -0.2105  0.2130
  721loPI   C1A11199  13.465   2.003   6.385  0.0322  0.0561  0.1253
  721loPI   C2A11200  13.407   2.077   6.769 -0.2984  0.3125 -0.0537
  721loPI   C3A11201  13.472   1.949   7.148 -0.1109 -0.0519 -0.1294
  721loPI   C4A11202  13.518   1.949   7.590 -0.0422  0.0996 -0.2050
  721loPI   C5A11203  13.645   1.853   7.989 -0.2114 -0.0309 -0.1828
  721loPI   C6A11204  13.319   1.616   8.247  0.1220 -0.1258 -0.0703
  721loPI   C1B11205  12.997   1.722   6.510 -0.1489 -0.0057 -0.1806
  721loPI   C2B11206  13.101   1.729   6.977 -0.0172 -0.3098 -0.2795
  721loPI   C3B11207  13.095   1.644   7.433 -0.2076  0.0500  0.0801
  721loPI   C4B11208  13.066   1.555   7.844 -0.1997  0.1698  0.1761
  722loPI    C111209   0.173  17.159   5.678  0.0792 -0.1871  0.1107
  722loPI    C211210   0.301  17.282   5.320 -0.1100  0.2162  0.1749
  722loPI    C311211   0.403  16.920   5.456  0.3884  0.2587 -0.0639
  722loPI   PO411212   0.194  17.385   5.809 -0.0059  0.2819  0.1370
  722loPI   GL111213   0.186  17.626   6.112 -0.1953  0.0982  0.0560
  722loPI   GL211214  -0.081  17.622   6.267  0.1689 -0.0819 -0.0711
  722loPI   C1A11215   0.334  17.442   6.507 -0.2973  0.2340  0.0740
  722loPI   C2A11216   0.320  17.401   6.863  0.1117 -0.2101 -0.1192
  722loPI   C3A11217   0.253  17.372   7.247 -0.0201  0.0351  0.3347
  722loPI   C4A11218   0.185  17.403   7.673 -0.1566 -0.0760 -0.0208
  722loPI   C5A11219   0.239  17.205   8.064 -0.5708  0.2440  0.1236
  722loPI   C6A11220   0.075  16.869   8.202  0.3755  0.2510 -0.1494
  722loPI   C1B11221  -0.089  17.659   6.683  0.2726 -0.2437  0.1097
  722loPI   C2B11222  -0.128  17.610   7.046  0.0364 -0.2755 -0.2850
  722loPI   C3B11223  -0.226  17.700   7.450 -0.1750  0.0307  0.3765
  722loPI   C4B11224  -0.310  17.742   7.807  0.0672 -0.1198  0.2200
  723loPI    C111225  17.881   7.578   5.038 -0.0580  0.1063 -0.0932
  723loPI    C211226  18.159   7.330   4.891  0.0411  0.2489 -0.1482
  723loPI    C311227  17.826   7.405   4.681 -0.1478 -0.0990  0.0179
  723loPI   PO411228  17.948   7.531   5.352  0.0676 -0.0128 -0.1649
  723loPI   GL111229  17.877   7.694   5.747 -0.0764  0.3236  0.4473
  723loPI   GL211230  18.158   7.647   5.875 -0.0041 -0.1842  0.3259
  723loPI   C1A11231  17.795   7.894   6.112 -0.0026 -0.0926 -0.0479
  723loPI   C2A11232  17.796   7.803   6.518 -0.0975 -0.0145 -0.1559
  723loPI   C3A11233  17.815   7.845   6.997 -0.0580  0.3384 -0.1453
  723loPI   C4A11234  17.865   7.848   7.398  0.1181 -0.0059  0.3417
  723loPI   C5A11235  18.223   7.988   7.634  0.1374 -0.2023  0.1510
  723loPI   C6A11236  18.364   7.917   8.011 -0.0947 -0.0680  0.0692
  723loPI   C1B11237  18.261   7.562   6.246 -0.1685  0.0430  0.4627
  723loPI   C2B11238  18.228   7.502   6.681 -0.0422 -0.0364 -0.0497
  723loPI   C3B11239  18.291   7.549   7.155 -0.2786 -0.1872 -0.0665
  723loPI   C4B11240  18.389   7.512   7.591  0.0421 -0.2715  0.0547
  724loPI    C111241  15.934   5.603   5.262 -0.1826 -0.4664  0.1467
  724loPI    C211242  15.858   5.769   4.906  0.0946  0.2644  0.4092
  724loPI    C311243  15.965   5.384   4.928 -0.1053  0.1551 -0.2710
  724loPI   PO411244  15.832   5.675   5.386 -0.1867 -0.1067 -0.1419
  724loPI   GL111245  15.742   5.675   5.799  0.1436  0.0280 -0.0851
  724loPI   GL211246  15.669   5.946   5.941  0.2541 -0.0276  0.3491
  724loPI   C1A11247  15.570   5.439   6.169 -0.1665 -0.0599  0.1785
  724loPI   C2A11248  15.597   5.409   6.580 -0.0045 -0.0222 -0.1047
  724loPI   C3A11249  15.650   5.381   7.042  0.4994  0.0567 -0.0964
  724loPI   C4A11250  15.614   5.435   7.437  0.2908  0.1379 -0.1109
  724loPI   C5A11251  15.656   5.283   7.809 -0.1332  0.0563 -0.1806
  724loPI   C6A11252  15.895   4.987   8.115  0.1100 -0.2921  0.0661
  724loPI   C1B11253  15.629   5.907   6.388  0.1462  0.3612 -0.0737
  724loPI   C2B11254  15.699   5.887   6.786 -0.1051  0.1296 -0.0595
  724loPI   C3B11255  15.670   5.918   7.215  0.0918 -0.0138  0.0939
  724loPI   C4B11256  15.620   5.908   7.653  0.3550  0.1118 -0.1223
  725loPI    C111257   5.617   8.868   5.482 -0.3437 -0.2584  0.2534
  725loPI    C211258   5.805   8.529   5.384 -0.0926 -0.0608  0.0375
  725loPI    C311259   5.686   8.782   5.098 -0.0619  0.1477  0.2070
  725loPI   PO411260   5.519   8.819   5.728 -0.5619  0.0370  0.0064
  725loPI   GL111261   5.630   8.830   6.091 -0.0735 -0.1805  0.2643
  725loPI   GL211262   5.808   8.582   6.261  0.0554  0.0426 -0.0577
  725loPI   C1A11263   5.321   8.820   6.422  0.0604 -0.0668  0.2433
  725loPI   C2A11264   5.284   8.845   6.819  0.1050 -0.0398  0.1168
  725loPI   C3A11265   5.301   8.852   7.260 -0.2278  0.1575  0.2873
  725loPI   C4A11266   5.296   8.988   7.631  0.3000  0.5211  0.3118
  725loPI   C5A11267   5.435   8.864   7.961 -0.1769  0.0282  0.1363
  725loPI   C6A11268   5.591   9.043   8.343 -0.2231 -0.2193  0.1221
  725loPI   C1B11269   5.805   8.637   6.701  0.0597 -0.0668 -0.1382
  725loPI   C2B11270   5.800   8.650   7.082  0.2529  0.3021 -0.1090
  725loPI   C3B11271   5.818   8.715   7.608 -0.0340 -0.2393  0.3212
  725loPI   C4B11272   5.948   8.745   8.063  0.1875  0.0811 -0.5363
  726loPI    C111273   9.075   5.391   5.872  0.0679 -0.0129 -0.0572
  726loPI    C211274   9.247   5.030   5.878  0.0080 -0.0410 -0.0222
  726loPI    C311275   9.033   5.145   5.560  0.0919 -0.0058 -0.0661
  726loPI   PO411276   9.216   5.535   6.055 -0.0565 -0.1102 -0.1351
  726loPI   GL111277   9.316   5.626   6.485  0.0833 -0.1691  0.1498
  726loPI   GL211278   9.426   5.904   6.655 -0.3267  0.3971 -0.0578
  726loPI   C1A11279   9.346   5.466   6.906  0.0571 -0.1250 -0.0322
  726loPI   C2A11280   9.386   5.647   7.195  0.1199  0.0235  0.1977
  726loPI   C3A11281   9.249   5.858   7.652 -0.0057  0.2287  0.0447
  726loPI   C4A11282   9.271   5.706   7.978  0.1865 -0.0585  0.2165
  726loPI   C5A11283   9.408   5.851   8.350 -0.0327 -0.0534  0.1039
  726loPI   C6A11284   9.090   6.030   8.733 -0.0765  0.1515 -0.1894
  726loPI   C1B11285   9.424   6.087   7.020  0.0466 -0.0808 -0.3100
  726loPI   C2B11286   9.651   6.022   7.312  0.0241  0.0907 -0.0484
  726loPI   C3B11287   9.981   6.094   7.609 -0.0311 -0.3070 -0.0247
  726loPI   C4B11288  10.304   6.368   7.616  0.1095  0.2905  0.2664
  727loPI    C111289  15.520  13.949   5.343  0.0007  0.2484 -0.2246
  727loPI    C211290  15.227  14.193   5.462 -0.0926  0.0854 -0.1164
  727loPI    C311291  15.197  14.001   5.113 -0.0527  0.1715 -0.1675
  727loPI   PO411292  15.609  13.813   5.579  0.1346 -0.2113 -0.0268
  727loPI   GL111293  15.428  13.801   6.001  0.0511 -0.0842 -0.3598
  727loPI   GL211294  15.418  13.642   6.168 -0.4095 -0.0394  0.1462
  727loPI   C1A11295  15.112  13.962   6.272  0.0007  0.1065 -0.0422
  727loPI   C2A11296  14.992  13.917   6.726  0.0014 -0.2533  0.0044
  727loPI   C3A11297  15.023  13.940   7.139 -0.3746  0.1036 -0.1047
  727loPI   C4A11298  15.003  13.882   7.587 -0.1203  0.1742  0.4826
  727loPI   C5A11299  15.046  13.713   8.111  0.0409 -0.0141 -0.1583
  727loPI   C6A11300  14.671  13.691   8.408 -0.1245 -0.0064 -0.0505
  727loPI   C1B11301  15.448  13.734   6.518  0.0161  0.0377  0.0528
  727loPI   C2B11302  15.504  13.660   6.884  0.0339 -0.0781 -0.0760
  727loPI   C3B11303  15.549  13.614   7.324 -0.1674  0.0254 -0.1259
  727loPI   C4B11304  15.454  13.697   7.855  0.1219 -0.4800 -0.2019
  728loPI    C111305  11.087   6.194   5.309 -0.1332 -0.1194 -0.3060
  728loPI    C211306  11.066   6.524   5.084 -0.2973 -0.0022 -0.1224
  728loPI    C311307  11.212   6.185   4.929 -0.3626  0.0891 -0.3893
  728loPI   PO411308  11.241   6.175   5.519  0.2015 -0.0932 -0.1151
  728loPI   GL111309  11.360   6.025   5.939 -0.2218 -0.0856  0.0623
  728loPI   GL211310  11.108   6.114   5.980  0.1948  0.4403 -0.0051
  728loPI   C1A11311  11.585   6.178   6.232  0.3277 -0.1268  0.0389
  728loPI   C2A11312  11.559   6.143   6.669  0.0620 -0.0031 -0.0373
  728loPI   C3A11313  11.634   6.118   7.085  0.1029 -0.1649  0.1899
  728loPI   C4A11314  11.628   6.112   7.497 -0.1364 -0.0108 -0.0626
  728loPI   C5A11315  11.583   6.032   7.964  0.0432  0.0747  0.2964
  728loPI   C6A11316  11.606   5.866   8.384  0.4541  0.2930 -0.1092
  728loPI   C1B11317  11.161   6.359   6.406  0.1034 -0.0490  0.0312
  728loPI   C2B11318  11.167   6.320   6.950  0.0501 -0.1012 -0.1294
  728loPI   C3B11319  11.178   6.396   7.391 -0.0780  0.0085  0.0084
  728loPI   C4B11320  11.266   6.377   7.818 -0.0187 -0.1120 -0.2462
  729loPI    C111321   5.155  12.948   5.588  0.0135  0.0800 -0.0047
  729loPI    C211322   5.186  13.279   5.366 -0.2631 -0.0687 -0.2733
  729loPI    C311323   5.170  12.921   5.189 -0.0746 -0.2213  0.0096
  729loPI   PO411324   5.332  12.998   5.729  0.0476 -0.0272 -0.1754
  729loPI   GL111325   5.294  12.958   6.183  0.0129  0.1592 -0.0814
  729loPI   GL211326   5.591  13.036   6.360 -0.0830 -0.1249  0.1992
  729loPI   C1A11327   5.147  13.090   6.573  0.0658 -0.1840  0.1691
  729loPI   C2A11328   5.178  13.088   7.050 -0.3368  0.3262  0.2154
  729loPI   C3A11329   5.288  13.171   7.500 -0.1243 -0.1557 -0.1183
  729loPI   C4A11330   5.252  13.093   7.929  0.0600 -0.1431 -0.2937
  729loPI   C5A11331   5.272  12.961   8.348 -0.1056 -0.0079 -0.3454
  729loPI   C6A11332   5.489  13.059   8.715  0.1112  0.1540  0.2824
  729loPI   C1B11333   5.631  12.952   6.786  0.1242  0.1087  0.1318
  729loPI   C2B11334   5.631  12.856   7.271 -0.0935  0.1092  0.1140
  729loPI   C3B11335   5.727  12.989   7.607  0.0931 -0.1207 -0.0131
  729loPI   C4B11336   5.702  12.830   7.997  0.4019 -0.3017  0.0228
  730loPI    C111337   1.030   7.649   4.927 -0.2889 -0.1924  0.1053
  730loPI    C211338   0.692   7.505   4.770 -0.3661  0.2722 -0.1751
  730loPI    C311339   0.805   7.880   4.691  0.0683  0.2191  0.1540
  730loPI   PO411340   1.028   7.586   5.145  0.2255 -0.1573  0.0031
  730loPI   GL111341   0.890   7.581   5.505 -0.0541  0.0154 -0.1698
  730loPI   GL211342   0.634   7.809   5.621  0.0603  0.1578  0.0752
  730loPI   C1A11343   1.091   7.485   5.884 -0.6063 -0.0707 -0.1641
  730loPI   C2A11344   1.221   7.577   6.340 -0.0720  0.0606  0.0309
  730loPI   C3A11345   1.190   7.526   6.781 -0.2558  0.0298 -0.0784
  730loPI   C4A11346   1.279   7.552   7.304 -0.0279 -0.4412  0.0470
  730loPI   C5A11347   1.303   7.745   7.698 -0.2275  0.0316 -0.0518
  730loPI   C6A11348   1.144   8.006   8.026  0.0834 -0.1513  0.2644
  730loPI   C1B11349   0.784   7.805   6.078  0.0231  0.0717 -0.0314
  730loPI   C2B11350   0.746   7.749   6.421  0.0913 -0.3530 -0.1853
  730loPI   C3B11351   0.741   7.739   6.887  0.2655 -0.0466 -0.1475
  730loPI   C4B11352   0.867   7.811   7.309  0.1801  0.3076  0.1684
  731loPI    C111353  14.762  13.539   5.236  0.1826  0.0157  0.0968
  731loPI    C211354  14.930  13.646   4.890  0.1207 -0.0279  0.0530
  731loPI    C311355  14.638  13.373   4.894 -0.1382  0.2445  0.0978
  731loPI   PO411356  14.942  13.648   5.436 -0.2462 -0.3992  0.0053
  731loPI   GL111357  14.959  13.757   5.819 -0.0374 -0.1818 -0.0036
  731loPI   GL211358  14.916  14.076   5.811 -0.1587 -0.0358 -0.0336
  731loPI   C1A11359  14.710  13.725   6.125  0.3974 -0.3117  0.0784
  731loPI   C2A11360  14.542  13.645   6.546  0.2001 -0.2027  0.0315
  731loPI   C3A11361  14.585  13.602   6.955 -0.0861  0.2346 -0.1225
  731loPI   C4A11362  14.640  13.628   7.369  0.0040  0.1225 -0.0299
  731loPI   C5A11363  14.653  13.571   7.794 -0.1550 -0.1024 -0.1088
  731loPI   C6A11364  14.827  13.261   8.085 -0.2997 -0.0475 -0.2639
  731loPI   C1B11365  14.940  14.468   6.175 -0.1213 -0.1551 -0.3126
  731loPI   C2B11366  15.059  14.449   6.540 -0.5593 -0.1539  0.1174
  731loPI   C3B11367  15.093  14.498   6.979 -0.1380  0.1984 -0.2301
  731loPI   C4B11368  14.960  14.429   7.478  0.0183  0.1291 -0.3033
  732loPI    C111369   7.451  16.478   5.603  0.4434 -0.1225  0.0520
  732loPI    C211370   7.583  16.781   5.378  0.1391  0.0732  0.1314
  732loPI    C311371   7.470  16.438   5.205 -0.2210  0.2691 -0.0339
  732loPI   PO411372   7.604  16.389   5.846  0.2292  0.0274  0.3955
  732loPI   GL111373   7.413  16.318   6.243  0.2102  0.2162  0.2722
  732loPI   GL211374   7.304  16.095   6.480  0.2620  0.4896 -0.0126
  732loPI   C1A11375   7.710  16.369   6.635 -0.0699 -0.2155 -0.2209
  732loPI   C2A11376   7.771  16.371   7.018 -0.2606 -0.1520  0.1352
  732loPI   C3A11377   7.928  16.325   7.433 -0.0004 -0.0435 -0.1692
  732loPI   C4A11378   7.835  16.283   7.830 -0.0563  0.1193  0.2250
  732loPI   C5A11379   7.738  16.414   8.261  0.4070  0.2432  0.4439
  732loPI   C6A11380   7.774  16.594   8.646 -0.0660 -0.3207 -0.1022
  732loPI   C1B11381   7.398  16.035   6.884  0.0104  0.1683  0.0702
  732loPI   C2B11382   7.353  16.035   7.332  0.3822 -0.1314 -0.0436
  732loPI   C3B11383   7.412  15.919   7.721  0.0084 -0.5271  0.4066
  732loPI   C4B11384   7.455  15.960   8.178 -0.2476  0.0211  0.1840
  733loPI    C111385  14.753   6.408   5.183 -0.0466 -0.1460  0.0268
  733loPI    C211386  14.433   6.528   4.974  0.0179 -0.2082 -0.1079
  733loPI    C311387  14.765   6.751   4.977  0.0024 -0.1860 -0.0369
  733loPI   PO411388  14.752   6.349   5.364  0.2290 -0.0188 -0.3564
  733loPI   GL111389  14.520   6.235   5.775 -0.2025  0.2001  0.0381
  733loPI   GL211390  14.267   6.210   5.950  0.0776 -0.2329 -0.2764
  733loPI   C1A11391  14.612   6.463   6.148 -0.0170 -0.0431  0.1049
  733loPI   C2A11392  14.717   6.479   6.622  0.1121  0.0216  0.0461
  733loPI   C3A11393  14.725   6.326   6.979  0.3351 -0.0175  0.0529
  733loPI   C4A11394  14.726   6.487   7.404 -0.1411 -0.1709  0.2796
  733loPI   C5A11395  14.700   6.383   7.819  0.1383  0.0596  0.2067
  733loPI   C6A11396  14.455   6.200   8.091  0.1404 -0.1710 -0.1593
  733loPI   C1B11397  14.200   6.218   6.478 -0.1392  0.2123  0.4390
  733loPI   C2B11398  14.283   6.085   6.876 -0.2044 -0.1892  0.0682
  733loPI   C3B11399  14.359   6.138   7.287  0.0327  0.1064  0.1386
  733loPI   C4B11400  14.251   6.279   7.661  0.0840 -0.1298  0.0709
  734loPI    C111401  12.046  14.411   5.572 -0.0963 -0.0737  0.0470
  734loPI    C211402  11.674  14.543   5.641  0.0409  0.3581 -0.0119
  734loPI    C311403  11.856  14.629   5.295  0.1802  0.1086 -0.0029
  734loPI   PO411404  12.138  14.441   5.776 -0.0573 -0.1925  0.0026
  734loPI   GL111405  12.302  14.588   6.122 -0.1207  0.0218  0.3503
  734loPI   GL211406  12.282  14.887   6.254  0.2299 -0.2362 -0.1668
  734loPI   C1A11407  12.255  14.367   6.425 -0.0853  0.1161  0.1127
  734loPI   C2A11408  12.237  14.282   6.824  0.0923  0.3269 -0.0784
  734loPI   C3A11409  12.394  14.330   7.312 -0.0840  0.2655 -0.0036
  734loPI   C4A11410  12.277  14.352   7.712 -0.3885 -0.3245 -0.4336
  734loPI   C5A11411  12.294  14.219   8.155  0.1746 -0.1198 -0.0296
  734loPI   C6A11412  12.219  13.929   8.546  0.2240 -0.0509 -0.3477
  734loPI   C1B11413  12.236  14.770   6.676  0.1695 -0.1092 -0.0063
  734loPI   C2B11414  12.382  14.788   7.094  0.0378 -0.1061  0.0665
  734loPI   C3B11415  12.307  14.882   7.509  0.0998 -0.0078 -0.1272
  734loPI   C4B11416  12.285  15.004   7.958  0.1127 -0.0695 -0.1669
  735loPI    C111417   7.451  17.695   5.804  0.3717 -0.0124 -0.2418
  735loPI    C211418   7.583  17.593   5.440 -0.0573 -0.3079 -0.3214
  735loPI    C311419   7.288  17.861   5.479  0.2134 -0.0264 -0.1706
  735loPI   PO411420   7.395  17.484   5.991  0.0569 -0.0726  0.3173
  735loPI   GL111421   7.648  17.421   6.322  0.1791  0.1554  0.0512
  735loPI   GL211422   7.766  17.131   6.198 -0.1444  0.3278 -0.1259
  735loPI   C1A11423   7.687  17.332   6.724  0.1002 -0.2756  0.3420
  735loPI   C2A11424   7.732  17.381   7.173  0.0850  0.1971 -0.1782
  735loPI   C3A11425   7.745  17.329   7.659  0.0364  0.1314 -0.1646
  735loPI   C4A11426   7.837  17.318   8.073 -0.0250 -0.1388  0.1936
  735loPI   C5A11427   7.712  17.112   8.398 -0.0209 -0.1751 -0.1993
  735loPI   C6A11428   7.515  17.194   8.804  0.4153 -0.0809  0.0144
  735loPI   C1B11429   7.720  16.873   6.603  0.0476  0.0042 -0.0168
  735loPI   C2B11430   7.670  16.916   7.021 -0.1862  0.0654  0.0271
  735loPI   C3B11431   7.814  16.840   7.425  0.0972  0.4893 -0.1420
  735loPI   C4B11432   7.830  16.865   7.836 -0.1050 -0.0262 -0.1367
  736loPI    C111433   6.441  13.162   5.649  0.0429  0.1856  0.0994
  736loPI    C211434   6.396  13.335   5.291  0.2575 -0.0258 -0.0327
  736loPI    C311435   6.157  13.032   5.398  0.2565 -0.0265 -0.0369
  736loPI   PO411436   6.618  13.323   5.769  0.0373 -0.2568  0.2585
  736loPI   GL111437   6.495  13.416   6.260 -0.3978  0.1495 -0.0887
  736loPI   GL211438   6.576  13.764   6.141 -0.0183  0.0396 -0.0823
  736loPI   C1A11439   6.568  13.514   6.691  0.1585 -0.2140 -0.1020
  736loPI   C2A11440   6.608  13.467   7.013  0.1668 -0.1586 -0.1017
  736loPI   C3A11441   6.586  13.450   7.547  0.1711 -0.0238  0.0324
  736loPI   C4A11442   6.564  13.367   7.979 -0.0114 -0.0172 -0.0640
  736loPI   C5A11443   6.637  13.054   8.295  0.2259  0.0512 -0.0673
  736loPI   C6A11444   6.674  13.139   8.787 -0.0754  0.0003 -0.0592
  736loPI   C1B11445   6.531  14.029   6.555  0.2041  0.0115  0.1727
  736loPI   C2B11446   6.559  14.000   6.945 -0.0152 -0.1813  0.4506
  736loPI   C3B11447   6.613  13.873   7.315  0.1061  0.0059 -0.2674
  736loPI   C4B11448   6.526  13.936   7.764 -0.1721 -0.0839  0.0095
  737loPI    C111449  12.016  13.701   5.083  0.1461 -0.1993 -0.1897
  737loPI    C211450  12.166  13.869   4.752 -0.2083  0.0020 -0.2530
  737loPI    C311451  11.986  13.513   4.732  0.0114 -0.1121 -0.2257
  737loPI   PO411452  12.134  13.895   5.340 -0.0181  0.2179  0.0917
  737loPI   GL111453  12.132  13.926   5.770 -0.1312  0.1437  0.0283
  737loPI   GL211454  12.277  13.634   5.800  0.0009  0.2544 -0.0336
  737loPI   C1A11455  12.259  13.902   6.186 -0.0157 -0.0227  0.1149
  737loPI   C2A11456  12.344  13.753   6.606  0.0335 -0.2138 -0.2411
  737loPI   C3A11457  12.301  13.797   7.047  0.4688  0.1635 -0.0144
  737loPI   C4A11458  12.423  13.787   7.449 -0.0928 -0.0231  0.1584
  737loPI   C5A11459  12.433  13.907   7.823 -0.1074  0.0072  0.2706
  737loPI   C6A11460  12.458  13.688   8.219 -0.0177  0.1560 -0.4320
  737loPI   C1B11461  11.894  13.566   6.100  0.2993 -0.2273 -0.2346
  737loPI   C2B11462  11.841  13.567   6.611 -0.0922 -0.1613 -0.1011
  737loPI   C3B11463  11.844  13.567   7.025 -0.1418 -0.0973 -0.1773
  737loPI   C4B11464  11.974  13.528   7.427  0.0853  0.5303 -0.2919
  738loPI    C111465   8.163  10.771   5.355 -0.2228  0.1054  0.1076
  738loPI    C211466   7.928  10.878   5.049  0.0287 -0.1997 -0.2006
  738loPI    C311467   8.264  11.082   5.123  0.0126 -0.1798 -0.1821
  738loPI   PO411468   7.995  10.790   5.565  0.0741 -0.1045 -0.1302
  738loPI   GL111469   7.847  10.583   6.009 -0.1336  0.0789 -0.0916
  738loPI   GL211470   7.959  10.937   6.085 -0.2039  0.0381  0.0298
  738loPI   C1A11471   7.801  10.494   6.399  0.0247 -0.0904 -0.0327
  738loPI   C2A11472   7.834  10.567   6.856 -0.0903  0.0178  0.0369
  738loPI   C3A11473   7.922  10.548   7.297  0.0728  0.0646 -0.0301
  738loPI   C4A11474   7.893  10.593   7.731 -0.0792 -0.1710 -0.1172
  738loPI   C5A11475   7.896  10.836   8.073  0.0356 -0.1684  0.1430
  738loPI   C6A11476   7.766  11.173   8.209 -0.0479  0.0163 -0.0912
  738loPI   C1B11477   7.854  11.168   6.430 -0.5076  0.0514 -0.2813
  738loPI   C2B11478   7.748  11.064   6.832 -0.1434 -0.0251  0.0669
  738loPI   C3B11479   7.908  11.128   7.228  0.0527 -0.3843  0.1102
  738loPI   C4B11480   7.964  11.160   7.670  0.1319  0.1548 -0.1130
  739loPI    C111481  15.134  16.449   5.598 -0.1589  0.2643  0.0611
  739loPI    C211482  15.002  16.157   5.359  0.0363  0.0153  0.2508
  739loPI    C311483  15.171  16.484   5.202 -0.1769  0.0263  0.0371
  739loPI   PO411484  15.131  16.345   5.890  0.2061 -0.2856 -0.1632
  739loPI   GL111485  15.072  16.539   6.257  0.4045 -0.1437 -0.1576
  739loPI   GL211486  15.321  16.753   6.376  0.0370  0.0339  0.4085
  739loPI   C1A11487  14.916  16.601   6.677  0.2797 -0.3216 -0.0698
  739loPI   C2A11488  15.091  16.616   7.091  0.1142 -0.2397 -0.1396
  739loPI   C3A11489  15.093  16.439   7.493 -0.0505  0.1219  0.1309
  739loPI   C4A11490  14.943  16.358   7.864 -0.2539  0.0241  0.0346
  739loPI   C5A11491  14.762  16.405   8.261 -0.0956 -0.0604 -0.0594
  739loPI   C6A11492  14.827  16.196   8.688 -0.3172 -0.0439  0.2585
  739loPI   C1B11493  15.434  16.839   6.828  0.0202  0.0073 -0.2301
  739loPI   C2B11494  15.575  16.806   7.143 -0.0872 -0.0064  0.0248
  739loPI   C3B11495  15.527  16.711   7.549 -0.1674  0.0849  0.1970
  739loPI   C4B11496  15.421  16.619   8.002 -0.1081 -0.0543  0.1775
  740loPI    C111497   1.989  10.864   5.672 -0.1437  0.1434 -0.1869
  740loPI    C211498   2.047  10.994   5.298 -0.1410 -0.2167 -0.3159
  740loPI    C311499   1.740  10.751   5.380 -0.1888 -0.0754 -0.0659
  740loPI   PO411500   2.161  10.768   5.736 -0.0505  0.0774  0.2170
  740loPI   GL111501   2.180  10.471   6.079 -0.0079 -0.1295 -0.1359
  740loPI   GL211502   1.972  10.669   6.277  0.0274 -0.0929 -0.0564
  740loPI   C1A11503   2.121  10.120   6.434  0.0269  0.1638 -0.0119
  740loPI   C2A11504   2.199  10.085   6.822  0.0018 -0.0348 -0.3880
  740loPI   C3A11505   2.198  10.193   7.242  0.4016  0.0528  0.1295
  740loPI   C4A11506   2.229  10.271   7.667  0.0683  0.1813 -0.2108
  740loPI   C5A11507   2.210  10.291   8.089 -0.1902 -0.2629 -0.2548
  740loPI   C6A11508   1.953  10.270   8.344 -0.0261  0.0785  0.1458
  740loPI   C1B11509   2.090  10.627   6.711  0.1730  0.1867 -0.1281
  740loPI   C2B11510   2.155  10.729   7.235  0.0488 -0.1702 -0.3431
  740loPI   C3B11511   2.133  10.727   7.694 -0.1186  0.0926 -0.1951
  740loPI   C4B11512   1.909  10.875   8.114  0.1127  0.2302 -0.0118
  741loPI    C111513  16.617  13.791   5.460  0.1380  0.1551 -0.0231
  741loPI    C211514  16.443  14.050   5.210  0.0988 -0.1405 -0.3093
  741loPI    C311515  16.375  13.658   5.170  0.1606 -0.1993  0.1156
  741loPI   PO411516  16.600  13.894   5.731  0.0317  0.3036  0.0218
  741loPI   GL111517  16.299  13.912   6.045 -0.0654 -0.0653  0.2902
  741loPI   GL211518  16.265  14.187   6.150  0.0252 -0.0724  0.3515
  741loPI   C1A11519  16.437  13.736   6.431  0.3415 -0.2704  0.0240
  741loPI   C2A11520  16.452  13.725   6.853  0.4584  0.0925 -0.0987
  741loPI   C3A11521  16.338  13.677   7.258 -0.4092 -0.1359 -0.3807
  741loPI   C4A11522  16.390  13.691   7.615 -0.0854 -0.0135  0.0050
  741loPI   C5A11523  16.361  13.493   8.057 -0.2466 -0.1372  0.0549
  741loPI   C6A11524  16.182  13.210   8.266 -0.4429  0.1914 -0.2872
  741loPI   C1B11525  16.392  14.220   6.567  0.0746 -0.0073 -0.3642
  741loPI   C2B11526  16.439  14.217   6.996  0.2245  0.0647 -0.0105
  741loPI   C3B11527  16.366  14.201   7.463 -0.0551 -0.0379 -0.0261
  741loPI   C4B11528  16.352  14.104   7.962  0.1772  0.1537 -0.1564
  742loPI    C111529  14.041   3.668   5.233  0.2148  0.1605  0.1378
  742loPI    C211530  14.009   3.331   5.019  0.0802  0.2281  0.0498
  742loPI    C311531  13.837   3.668   4.889  0.1592  0.3158  0.1699
  742loPI   PO411532  13.906   3.603   5.466  0.0550  0.0185  0.1152
  742loPI   GL111533  14.011   3.802   5.926  0.0882 -0.1761  0.1618
  742loPI   GL211534  13.927   3.555   6.141 -0.1160 -0.1586  0.0395
  742loPI   C1A11535  14.301   4.024   6.276 -0.0424  0.0893 -0.0491
  742loPI   C2A11536  14.286   3.977   6.684  0.0874  0.0495 -0.0118
  742loPI   C3A11537  14.335   4.011   7.047 -0.1606 -0.1058  0.0330
  742loPI   C4A11538  14.292   4.036   7.445  0.0223  0.3572 -0.0741
  742loPI   C5A11539  14.194   4.059   7.905 -0.2000 -0.0135  0.1730
  742loPI   C6A11540  14.021   3.807   8.177  0.0570 -0.0160 -0.0379
  742loPI   C1B11541  13.886   3.750   6.416  0.0354 -0.1378 -0.6684
  742loPI   C2B11542  13.787   3.799   6.759 -0.0393 -0.1133 -0.0567
  742loPI   C3B11543  13.796   3.822   7.134  0.1332  0.1622  0.1697
  742loPI   C4B11544  13.834   3.807   7.591  0.0057 -0.0414 -0.0500
  743loPI    C111545  17.247  10.839   5.288  0.0418  0.1523  0.0058
  743loPI    C211546  17.380  11.188   5.143  0.2793  0.0809  0.0478
  743loPI    C311547  17.521  10.843   4.997  0.0458  0.0005  0.0069
  743loPI   PO411548  17.232  10.880   5.547  0.2162  0.5044 -0.2749
  743loPI   GL111549  17.418  11.062   5.933 -0.2775 -0.0128  0.1024
  743loPI   GL211550  17.696  11.346   6.054 -0.2712  0.0508  0.1446
  743loPI   C1A11551  17.328  11.072   6.311  0.1858  0.2005 -0.2911
  743loPI   C2A11552  17.338  11.171   6.714 -0.1079 -0.1372  0.0362
  743loPI   C3A11553  17.307  11.165   7.194  0.2230  0.2584  0.1403
  743loPI   C4A11554  17.438  11.164   7.614 -0.2865  0.0388  0.2113
  743loPI   C5A11555  17.201  10.969   7.959 -0.1359 -0.0211  0.0525
  743loPI   C6A11556  17.209  10.877   8.345 -0.0167 -0.0288  0.0052
  743loPI   C1B11557  17.756  11.381   6.509  0.0136 -0.1898  0.0732
  743loPI   C2B11558  17.766  11.364   6.862  0.1842  0.0304  0.1209
  743loPI   C3B11559  17.784  11.489   7.245  0.0083  0.3860 -0.0976
  743loPI   C4B11560  17.931  11.350   7.589 -0.0107 -0.0153  0.3328
  744loPI    C111561  16.923   6.654   5.000  0.1080 -0.0459  0.0359
  744loPI    C211562  17.120   6.472   4.704  0.0470  0.2131 -0.1681
  744loPI    C311563  16.967   6.837   4.647 -0.1264  0.1892  0.1249
  744loPI   PO411564  17.089   6.622   5.209  0.2109 -0.0672 -0.0240
  744loPI   GL111565  17.000   6.629   5.584  0.6581  0.2471  0.0483
  744loPI   GL211566  17.221   6.856   5.663 -0.0405  0.0427  0.0501
  744loPI   C1A11567  16.949   6.671   6.016  0.2099 -0.1928 -0.0235
  744loPI   C2A11568  16.886   6.696   6.489 -0.0585 -0.0472 -0.0445
  744loPI   C3A11569  16.919   6.766   6.851 -0.2163  0.1208 -0.0558
  744loPI   C4A11570  16.992   6.733   7.221  0.1549  0.0327  0.0916
  744loPI   C5A11571  17.121   6.730   7.643 -0.2089  0.5002 -0.1104
  744loPI   C6A11572  17.117   6.686   8.079  0.3704  0.0356  0.1656
  744loPI   C1B11573  17.395   6.950   5.967 -0.3317  0.0325  0.2380
  744loPI   C2B11574  17.332   6.993   6.375 -0.0022  0.1146  0.0601
  744loPI   C3B11575  17.421   7.023   6.808 -0.0517 -0.0408 -0.1406
  744loPI   C4B11576  17.387   7.010   7.313 -0.1275  0.2991 -0.2098
  745loPI    C111577  10.740   6.347   5.646  0.0024 -0.0036 -0.0379
  745loPI    C211578  10.472   6.276   5.357 -0.0507 -0.0785  0.0292
  745loPI    C311579  10.676   6.620   5.361 -0.0176 -0.0958 -0.1223
  745loPI   PO411580  10.661   6.248   5.848  0.2999 -0.0378 -0.0596
  745loPI   GL111581  10.503   6.312   6.198  0.0968  0.1181  0.1934
  745loPI   GL211582  10.254   6.429   6.308 -0.2622 -0.2753  0.1505
  745loPI   C1A11583  10.758   6.120   6.556 -0.1379  0.2606 -0.1972
  745loPI   C2A11584  10.653   5.719   6.651  0.1146 -0.0853 -0.1566
  745loPI   C3A11585  10.705   5.573   7.053  0.0732 -0.0124 -0.1174
  745loPI   C4A11586  10.801   5.595   7.417  0.0262 -0.0083 -0.3811
  745loPI   C5A11587  10.787   5.418   7.924 -0.2187 -0.1053 -0.2546
  745loPI   C6A11588  10.816   5.439   8.325  0.3975 -0.0026  0.0919
  745loPI   C1B11589  10.203   6.545   6.686 -0.0364  0.1035  0.1166
  745loPI   C2B11590  10.372   6.674   7.075  0.2298 -0.6411  0.1496
  745loPI   C3B11591  10.689   6.575   7.387 -0.0843  0.1977  0.2840
  745loPI   C4B11592  10.836   6.627   7.820  0.2088 -0.0990  0.0109
  746loPI    C111593   4.054   0.907   5.957 -0.0519  0.1687 -0.1216
  746loPI    C211594   3.695   0.993   6.111 -0.0121  0.0522  0.0396
  746loPI    C311595   3.722   0.778   5.774 -0.0967  0.2043 -0.0656
  746loPI   PO411596   4.206   0.826   6.167  0.0346 -0.3044  0.1930
  746loPI   GL111597   4.375   0.991   6.422  0.0030  0.2402  0.2091
  746loPI   GL211598   4.520   0.730   6.594 -0.0489 -0.2900 -0.2247
  746loPI   C1A11599   4.278   1.122   6.823 -0.0242 -0.0927 -0.1048
  746loPI   C2A11600   4.368   1.043   7.297  0.2268 -0.1219  0.1221
  746loPI   C3A11601   4.320   1.144   7.747  0.3403 -0.0417  0.2962
  746loPI   C4A11602   4.520   1.477   7.975  0.4563 -0.1951  0.2752
  746loPI   C5A11603   4.458   1.722   8.308  0.0803  0.0635 -0.2773
  746loPI   C6A11604   4.776   1.956   8.593 -0.0944 -0.0597 -0.2690
  746loPI   C1B11605   4.483   0.555   7.019  0.1214 -0.3225  0.2293
  746loPI   C2B11606   4.391   0.473   7.464  0.1923 -0.0333 -0.0199
  746loPI   C3B11607   4.397   0.629   7.867  0.0587  0.2365 -0.1659
  746loPI   C4B11608   4.487   0.997   8.197 -0.1557  0.0844 -0.1094
  747loPI    C111609   4.223   2.006   6.247 -0.1350 -0.2555 -0.4821
  747loPI    C211610   4.188   2.220   5.911 -0.0885  0.2275 -0.1889
  747loPI    C311611   4.315   2.395   6.247 -0.1160 -0.2523  0.0805
  747loPI   PO411612   4.070   1.798   6.264  0.1709 -0.1753 -0.0653
  747loPI   GL111613   3.919   1.448   6.510 -0.1558 -0.0471  0.2949
  747loPI   GL211614   3.684   1.318   6.547 -0.2895  0.1559 -0.0628
  747loPI   C1A11615   3.856   1.387   7.009 -0.0980  0.0066 -0.1072
  747loPI   C2A11616   3.921   1.287   7.429  0.2076 -0.1528 -0.1945
  747loPI   C3A11617   4.012   1.470   7.882  0.0382 -0.5544 -0.1127
  747loPI   C4A11618   3.744   1.749   8.149 -0.2978 -0.0736  0.0402
  747loPI   C5A11619   3.436   1.633   8.461 -0.0415 -0.0149 -0.1341
  747loPI   C6A11620   3.341   1.154   8.584 -0.1099  0.2881  0.1655
  747loPI   C1B11621   3.437   1.140   6.893 -0.0592 -0.1882 -0.3833
  747loPI   C2B11622   3.428   1.065   7.278 -0.0072  0.0837  0.1047
  747loPI   C3B11623   3.306   0.912   7.677  0.0275  0.2001 -0.0044
  747loPI   C4B11624   3.424   0.836   8.077 -0.1043 -0.2416  0.1122
  748loPI    C111625   3.169  15.233   5.551  0.1896 -0.0720 -0.0442
  748loPI    C211626   3.159  14.890   5.346  0.0607 -0.0635 -0.0532
  748loPI    C311627   2.998  15.221   5.190  0.0008 -0.0471  0.0432
  748loPI   PO411628   3.156  15.118   5.793 -0.1103  0.0855  0.2014
  748loPI   GL111629   3.132  15.126   6.193 -0.1721  0.1815 -0.1003
  748loPI   GL211630   3.150  14.740   6.235 -0.3144 -0.2462  0.2201
  748loPI   C1A11631   3.324  15.072   6.624  0.1778 -0.0707  0.1411
  748loPI   C2A11632   3.308  15.050   7.044  0.2033 -0.2899 -0.1460
  748loPI   C3A11633   3.257  15.088   7.475 -0.2083 -0.2292  0.2089
  748loPI   C4A11634   3.272  15.079   8.013 -0.0473  0.2600 -0.3041
  748loPI   C5A11635   3.649  15.184   8.227 -0.1448 -0.3246 -0.3835
  748loPI   C6A11636   4.010  15.109   8.084 -0.2215  0.1153  0.0181
  748loPI   C1B11637   2.908  14.828   6.585 -0.1487 -0.0138  0.0310
  748loPI   C2B11638   2.831  14.812   7.022 -0.2001 -0.0010  0.1166
  748loPI   C3B11639   2.884  14.762   7.364 -0.0683  0.2811 -0.1689
  748loPI   C4B11640   2.846  14.840   7.827 -0.1448 -0.1710  0.0296
  749loPI    C111641  15.530   5.302   5.248  0.3250  0.0918 -0.0163
  749loPI    C211642  15.425   5.646   5.074 -0.1704 -0.0317  0.0247
  749loPI    C311643  15.395   5.302   4.872  0.0422 -0.0851  0.0818
  749loPI   PO411644  15.490   5.332   5.504  0.3453 -0.0703 -0.0777
  749loPI   GL111645  15.454   5.053   5.819  0.0197  0.0437  0.4038
  749loPI   GL211646  15.288   4.703   5.769 -0.1488 -0.2680  0.0233
  749loPI   C1A11647  15.255   5.119   6.237 -0.1285 -0.1275  0.2435
  749loPI   C2A11648  15.222   5.190   6.740 -0.3674  0.2179  0.0520
  749loPI   C3A11649  15.224   5.205   7.241  0.0104 -0.2986  0.0666
  749loPI   C4A11650  15.164   5.101   7.628 -0.0261  0.4348  0.1061
  749loPI   C5A11651  15.186   5.101   8.097  0.1586 -0.0975 -0.1044
  749loPI   C6A11652  15.497   5.286   8.264  0.1747  0.1323  0.1925
  749loPI   C1B11653  15.270   4.638   6.269 -0.1078  0.1053 -0.1948
  749loPI   C2B11654  15.254   4.705   6.690  0.1695 -0.1663 -0.0785
  749loPI   C3B11655  15.184   4.577   7.106  0.0516 -0.3120  0.1105
  749loPI   C4B11656  15.243   4.534   7.542 -0.1157 -0.2099  0.1822
  750loPI    C111657  14.623   2.308   5.604 -0.2161  0.0236  0.2326
  750loPI    C211658  14.284   2.148   5.464  0.1050 -0.3723 -0.1199
  750loPI    C311659  14.579   2.245   5.211  0.1704  0.1949  0.1572
  750loPI   PO411660  14.643   2.245   5.771 -0.1626 -0.1304 -0.0429
  750loPI   GL111661  14.776   2.059   6.165  0.0730  0.0811 -0.1554
  750loPI   GL211662  14.874   1.811   6.107 -0.2231  0.1808  0.1818
  750loPI   C1A11663  14.783   2.302   6.491  0.1034 -0.2075 -0.2030
  750loPI   C2A11664  14.909   2.255   6.839  0.0096  0.3549  0.0699
  750loPI   C3A11665  14.872   2.187   7.292  0.1048 -0.0568 -0.0728
  750loPI   C4A11666  14.981   2.216   7.760 -0.1152 -0.0035 -0.0605
  750loPI   C5A11667  14.934   2.002   8.143  0.1122 -0.2153  0.0066
  750loPI   C6A11668  14.906   1.602   8.311 -0.0973 -0.1800 -0.0768
  750loPI   C1B11669  14.836   1.788   6.643 -0.1881  0.1300  0.0072
  750loPI   C2B11670  14.757   1.674   7.039  0.1507  0.0627  0.0271
  750loPI   C3B11671  14.874   1.701   7.433  0.1299 -0.2804  0.0741
  750loPI   C4B11672  14.894   1.637   7.812 -0.1527 -0.1893 -0.0173
  751loPI    C111673   9.010   6.333   5.841 -0.0033  0.2776 -0.0189
  751loPI    C211674   9.344   6.166   5.697 -0.2400 -0.1821 -0.0548
  751loPI    C311675   9.015   6.184   5.470 -0.3877 -0.1952  0.1557
  751loPI   PO411676   8.970   6.424   6.145 -0.1209 -0.0706  0.0193
  751loPI   GL111677   9.203   6.606   6.491  0.1360  0.3557 -0.3396
  751loPI   GL211678   9.086   6.280   6.674 -0.1434 -0.2749  0.1322
  751loPI   C1A11679   9.448   6.616   6.931  0.0447 -0.0973 -0.0376
  751loPI   C2A11680   9.428   6.609   7.314 -0.0263 -0.3050  0.2866
  751loPI   C3A11681   9.442   6.461   7.697 -0.3405 -0.1167  0.2405
  751loPI   C4A11682   9.207   6.223   7.983 -0.0926  0.0048 -0.1781
  751loPI   C5A11683   8.898   6.009   8.301  0.0055 -0.0099  0.3531
  751loPI   C6A11684   8.712   6.323   8.638 -0.1326 -0.0618  0.0926
  751loPI   C1B11685   9.001   6.375   7.032  0.2897  0.1989 -0.3979
  751loPI   C2B11686   8.980   6.242   7.501 -0.1679 -0.0755  0.0173
  751loPI   C3B11687   8.724   6.341   7.894 -0.2926  0.0081 -0.3267
  751loPI   C4B11688   8.539   6.547   8.217  0.2665  0.0807 -0.1132
  752loPI    C111689  16.323  14.610   5.517 -0.0540  0.0744  0.0791
  752loPI    C211690  16.151  14.440   5.198  0.0035  0.2921 -0.0696
  752loPI    C311691  16.498  14.635   5.159  0.1708  0.0531  0.1857
  752loPI   PO411692  16.259  14.363   5.679  0.1213  0.2960  0.1566
  752loPI   GL111693  15.919  14.485   6.022  0.1148  0.1757  0.2398
  752loPI   GL211694  15.833  14.085   5.916  0.2449 -0.0036 -0.1906
  752loPI   C1A11695  15.955  14.550   6.361 -0.2716  0.2965  0.0593
  752loPI   C2A11696  15.960  14.413   6.752 -0.2842  0.1378  0.3868
  752loPI   C3A11697  15.969  14.433   7.206  0.0934  0.1815  0.1345
  752loPI   C4A11698  16.005  14.357   7.698 -0.0566  0.2064 -0.0997
  752loPI   C5A11699  15.908  14.385   8.106 -0.0418 -0.3216  0.0893
  752loPI   C6A11700  15.732  14.618   8.337 -0.0831  0.2030  0.2167
  752loPI   C1B11701  15.801  14.084   6.300  0.0072  0.1736 -0.1972
  752loPI   C2B11702  15.974  13.871   6.666  0.1510  0.0332 -0.0607
  752loPI   C3B11703  15.973  13.970   7.064  0.1388  0.0627 -0.2748
  752loPI   C4B11704  15.963  13.926   7.505  0.0659  0.0990  0.2451
  753loPI    C111705  11.887   9.339   5.729 -0.0624  0.1591 -0.3024
  753loPI    C211706  11.518   9.193   5.782  0.0257 -0.0212 -0.1791
  753loPI    C311707  11.624   9.342   5.427 -0.1845  0.0873 -0.1980
  753loPI   PO411708  11.942   9.503   5.943  0.1369 -0.1576 -0.1397
  753loPI   GL111709  11.740   9.447   6.206 -0.2704  0.1582  0.0388
  753loPI   GL211710  11.486   9.209   6.250 -0.0561  0.0128 -0.1303
  753loPI   C1A11711  11.941   9.404   6.618 -0.0248  0.2899  0.0520
  753loPI   C2A11712  11.901   9.403   7.113  0.0989 -0.3193  0.1136
  753loPI   C3A11713  12.009   9.467   7.584  0.2315  0.1945 -0.1262
  753loPI   C4A11714  11.786   9.342   7.937 -0.1293 -0.3107  0.1978
  753loPI   C5A11715  11.376   9.329   8.216 -0.0409 -0.2266  0.1641
  753loPI   C6A11716  11.299   9.453   8.620  0.0512  0.0143  0.0296
  753loPI   C1B11717  11.480   9.172   6.721 -0.0438 -0.1252  0.0613
  753loPI   C2B11718  11.440   9.120   7.094 -0.2678 -0.0606  0.0965
  753loPI   C3B11719  11.508   9.174   7.494  0.0181  0.0247 -0.1920
  753loPI   C4B11720  11.485   9.006   7.863 -0.2693  0.6000 -0.2365
  754loPI    C111721   7.597   0.871   5.722 -0.1062  0.0389 -0.1748
  754loPI    C211722   7.535   1.261   5.658  0.1370  0.1129  0.0232
  754loPI    C311723   7.907   1.123   5.706  0.0483 -0.1352  0.0130
  754loPI   PO411724   7.509   0.697   5.934 -0.0348 -0.1577  0.3774
  754loPI   GL111725   7.292   0.647   6.294 -0.2087 -0.0716 -0.2094
  754loPI   GL211726   7.218   0.353   6.422 -0.0009 -0.1549 -0.1726
  754loPI   C1A11727   7.437   0.788   6.676 -0.2444  0.3277 -0.2539
  754loPI   C2A11728   7.388   0.619   7.168 -0.0873 -0.2769  0.1408
  754loPI   C3A11729   7.294   0.621   7.629  0.2201 -0.3199 -0.1685
  754loPI   C4A11730   6.981   0.780   7.893 -0.4599  0.0657  0.1487
  754loPI   C5A11731   6.539   0.789   7.760 -0.0771 -0.1009  0.2464
  754loPI   C6A11732   6.143   0.588   7.546  0.1588 -0.1675 -0.2243
  754loPI   C1B11733   7.595   0.335   6.745 -0.1012  0.1322 -0.1504
  754loPI   C2B11734   7.678   0.180   7.104 -0.0749 -0.0986 -0.0050
  754loPI   C3B11735   7.780  -0.019   7.473  0.1885 -0.1247  0.0930
  754loPI   C4B11736   7.706  -0.075   7.901 -0.1056 -0.1314 -0.2293
  755loPI    C111737   9.848  14.056   5.306  0.0542  0.1870  0.1945
  755loPI    C211738   9.726  13.810   5.015  0.0377  0.1444  0.2374
  755loPI    C311739   9.767  14.201   4.942 -0.1613  0.1651  0.2323
  755loPI   PO411740   9.755  13.985   5.586  0.0346  0.1915 -0.1190
  755loPI   GL111741   9.953  14.026   6.022 -0.2579 -0.0105  0.0838
  755loPI   GL211742   9.629  14.176   6.047 -0.0490  0.0913 -0.1142
  755loPI   C1A11743  10.089  14.050   6.497  0.3320 -0.0026 -0.2010
  755loPI   C2A11744  10.107  13.996   6.931  0.2994  0.0317 -0.3338
  755loPI   C3A11745  10.159  13.989   7.384  0.3297  0.0382 -0.0489
  755loPI   C4A11746  10.123  13.991   7.808 -0.3225  0.2674 -0.0585
  755loPI   C5A11747   9.941  14.151   8.093 -0.0293  0.0727 -0.1447
  755loPI   C6A11748   9.532  14.092   8.154 -0.2249 -0.0504 -0.2060
  755loPI   C1B11749   9.544  14.239   6.452  0.0890 -0.6826 -0.3223
  755loPI   C2B11750   9.598  14.371   6.779 -0.1399 -0.0858  0.0595
  755loPI   C3B11751   9.712  14.295   7.231 -0.0713  0.2487 -0.3562
  755loPI   C4B11752   9.649  14.184   7.656  0.1954 -0.0541  0.3104
  756loPI    C111753   9.684   6.566   5.527 -0.0133  0.0150  0.0560
  756loPI    C211754   9.310   6.688   5.456 -0.0032  0.0796  0.1123
  756loPI    C311755   9.486   6.428   5.209 -0.0758  0.0697  0.0708
  756loPI   PO411756   9.748   6.554   5.765 -0.3096 -0.2137  0.0265
  756loPI   GL111757   9.749   6.588   6.239  0.1400 -0.2892 -0.1771
  756loPI   GL211758   9.613   6.398   6.434  0.2304 -0.2487 -0.2260
  756loPI   C1A11759   9.836   6.867   6.588 -0.5166 -0.1216 -0.1107
  756loPI   C2A11760   9.932   6.952   7.043  0.4683  0.2627 -0.2371
  756loPI   C3A11761   9.653   7.057   7.418  0.1017  0.0248  0.0935
  756loPI   C4A11762   9.594   6.955   7.844  0.1077 -0.0532 -0.0489
  756loPI   C5A11763   9.764   7.057   8.157 -0.0571  0.1621 -0.0665
  756loPI   C6A11764   9.907   7.335   8.566 -0.0487  0.2037 -0.3642
  756loPI   C1B11765   9.793   6.293   6.883  0.0411  0.0574 -0.1432
  756loPI   C2B11766   9.939   6.413   7.238  0.1762 -0.2791  0.0495
  756loPI   C3B11767   9.858   6.660   7.508  0.1470  0.0884  0.2058
  756loPI   C4B11768  10.072   6.912   7.751 -0.1147  0.0339  0.0738
  757loPI    C111769  10.177  17.475   5.475 -0.0214  0.2288 -0.0276
  757loPI    C211770   9.982  17.408   5.132  0.0864 -0.0962 -0.0294
  757loPI    C311771  10.382  17.413   5.137  0.0847 -0.0571  0.0864
  757loPI   PO411772  10.022  17.259   5.619 -0.2195 -0.0938 -0.3880
  757loPI   GL111773  10.083  17.064   6.078 -0.3831 -0.1245 -0.1330
  757loPI   GL211774   9.963  17.257   6.148  0.2140 -0.1128 -0.3926
  757loPI   C1A11775  10.388  16.983   6.301  0.1363  0.0279  0.0887
  757loPI   C2A11776  10.467  16.994   6.734  0.0884  0.0027 -0.3064
  757loPI   C3A11777  10.540  16.881   7.205  0.2395  0.0694  0.0188
  757loPI   C4A11778  10.590  16.905   7.643  0.4027 -0.1098  0.0571
  757loPI   C5A11779  10.447  16.768   8.074 -0.3227 -0.2218  0.0170
  757loPI   C6A11780  10.256  16.931   8.378  0.1416  0.1982  0.3047
  757loPI   C1B11781   9.985  17.216   6.601 -0.0183  0.1607  0.1628
  757loPI   C2B11782  10.035  17.230   6.920 -0.2695 -0.0289 -0.0378
  757loPI   C3B11783  10.183  17.078   7.383 -0.0052 -0.2044 -0.3088
  757loPI   C4B11784  10.064  17.003   7.787 -0.1507  0.0543  0.2188
  758loPI    C111785   0.935  17.545   5.282  0.3160  0.1589 -0.2368
  758loPI    C211786   0.725  17.593   4.945 -0.1361  0.1581  0.0366
  758loPI    C311787   1.120  17.530   4.927 -0.1974 -0.1336 -0.5035
  758loPI   PO411788   0.780  17.399   5.465  0.0026  0.0957  0.0226
  758loPI   GL111789   0.688  17.131   5.823  0.3669  0.0328  0.0622
  758loPI   GL211790   0.545  16.900   5.922 -0.0704 -0.1557  0.1232
  758loPI   C1A11791   0.722  17.225   6.243  0.2034 -0.0641 -0.0237
  758loPI   C2A11792   0.821  17.203   6.684 -0.1175  0.0056  0.0113
  758loPI   C3A11793   0.693  17.123   7.148 -0.1129 -0.2160  0.0287
  758loPI   C4A11794   0.621  17.174   7.541 -0.2417  0.0871 -0.2095
  758loPI   C5A11795   0.690  17.163   7.878  0.0540  0.1110 -0.0032
  758loPI   C6A11796   1.015  17.036   8.141  0.1218  0.0288  0.0433
  758loPI   C1B11797   0.307  16.939   6.322 -0.3284  0.0915  0.0200
  758loPI   C2B11798   0.360  16.877   6.848 -0.1050 -0.1938  0.0695
  758loPI   C3B11799   0.232  16.852   7.213 -0.0333  0.0767  0.2978
  758loPI   C4B11800   0.213  16.938   7.599  0.2006  0.0469 -0.2525
  759loPI    C111801   1.607   5.250   5.361 -0.0340 -0.2357  0.0027
  759loPI    C211802   1.516   4.872   5.269 -0.1412 -0.1594 -0.2120
  759loPI    C311803   1.634   5.125   4.982  0.2168 -0.1073 -0.0241
  759loPI   PO411804   1.445   5.339   5.544  0.0454 -0.0134 -0.2373
  759loPI   GL111805   1.325   5.494   5.908 -0.1283 -0.0477 -0.1315
  759loPI   GL211806   1.604   5.188   6.069  0.3408 -0.1581 -0.0931
  759loPI   C1A11807   1.089   5.646   6.173  0.1531 -0.2454  0.2231
  759loPI   C2A11808   0.823   5.782   6.474 -0.1287  0.1276  0.0761
  759loPI   C3A11809   0.895   5.774   6.926 -0.0491 -0.0403  0.0122
  759loPI   C4A11810   0.900   5.755   7.373  0.0541 -0.2191 -0.3712
  759loPI   C5A11811   0.826   5.874   7.837  0.1705  0.0914  0.0725
  759loPI   C6A11812   0.607   6.188   8.084 -0.1941  0.1765 -0.1087
  759loPI   C1B11813   1.437   5.398   6.355  0.2404 -0.1644  0.1099
  759loPI   C2B11814   1.294   5.459   6.766 -0.0590  0.1690  0.1193
  759loPI   C3B11815   1.331   5.572   7.168  0.0049 -0.0063 -0.3864
  759loPI   C4B11816   1.423   5.586   7.568 -0.1697 -0.0009  0.2335
  760loPI    C111817  11.500  13.670   5.185 -0.1188 -0.1011  0.0514
  760loPI    C211818  11.304  13.407   4.956 -0.1613  0.0162 -0.0485
  760loPI    C311819  11.474  13.729   4.790 -0.1803  0.0953  0.0833
  760loPI   PO411820  11.353  13.699   5.391  0.0060  0.2250 -0.1858
  760loPI   GL111821  11.319  13.676   5.791 -0.0194  0.1140 -0.3983
  760loPI   GL211822  11.453  13.751   5.972 -0.1296 -0.0875  0.0296
  760loPI   C1A11823  11.358  13.297   6.079 -0.0052  0.3840  0.1882
  760loPI   C2A11824  11.463  13.260   6.602 -0.2271 -0.0999  0.2437
  760loPI   C3A11825  11.449  13.278   6.943 -0.0208  0.0219 -0.1222
  760loPI   C4A11826  11.458  13.338   7.381  0.1728  0.0782 -0.1431
  760loPI   C5A11827  11.556  13.316   7.847 -0.1723 -0.0376 -0.2170
  760loPI   C6A11828  11.927  13.561   8.077  0.1300  0.4569 -0.0329
  760loPI   C1B11829  11.409  13.762   6.433  0.0832  0.1181  0.1643
  760loPI   C2B11830  11.456  13.839   6.846  0.0545  0.1881 -0.0475
  760loPI   C3B11831  11.490  13.794   7.241  0.0187 -0.1863 -0.0140
  760loPI   C4B11832  11.547  13.785   7.649 -0.1936 -0.0403 -0.2996
  761loPI    C111833  14.253  13.929   5.273  0.1249 -0.0646  0.1523
  761loPI    C211834  14.096  13.926   4.905  0.3056 -0.2359  0.0747
  761loPI    C311835  14.467  13.790   4.965  0.3224 -0.0947  0.3014
  761loPI   PO411836  14.031  13.829   5.428  0.0500 -0.1505 -0.2853
  761loPI   GL111837  13.889  13.715   5.835  0.1866  0.2724 -0.1864
  761loPI   GL211838  14.150  13.830   6.109  0.1001  0.0528 -0.0188
  761loPI   C1A11839  13.700  13.627   6.198 -0.0556  0.1514 -0.5052
  761loPI   C2A11840  13.685  13.693   6.612 -0.1046 -0.1218  0.1735
  761loPI   C3A11841  13.772  13.659   7.118 -0.0663  0.0735  0.3484
  761loPI   C4A11842  13.767  13.504   7.586  0.1188 -0.2137  0.2441
  761loPI   C5A11843  13.960  13.291   7.882  0.2257 -0.1790 -0.0272
  761loPI   C6A11844  13.961  13.062   8.235 -0.0100  0.2812 -0.1805
  761loPI   C1B11845  14.122  14.021   6.447 -0.1191  0.1660 -0.0870
  761loPI   C2B11846  14.140  13.911   6.884 -0.4110 -0.0325  0.2406
  761loPI   C3B11847  14.184  13.858   7.264 -0.2441 -0.2357 -0.1432
  761loPI   C4B11848  14.224  13.751   7.723  0.1317 -0.1525  0.0693
  762loPI    C111849  17.596   7.166   5.068 -0.0039  0.2393  0.1058
  762loPI    C211850  17.525   6.850   5.303 -0.0249  0.1545 -0.0134
  762loPI    C311851  17.424   6.838   4.916  0.3129  0.1661 -0.1054
  762loPI   PO411852  17.459   7.337   5.124 -0.0975 -0.2557  0.0749
  762loPI   GL111853  17.250   7.402   5.557 -0.0244 -0.1810 -0.1149
  762loPI   GL211854  17.622   7.236   5.656  0.2795 -0.1549 -0.0015
  762loPI   C1A11855  17.370   7.478   5.984  0.1447 -0.0401  0.2643
  762loPI   C2A11856  17.362   7.487   6.341  0.0204 -0.1618 -0.0153
  762loPI   C3A11857  17.358   7.582   6.759 -0.0977  0.1657  0.0387
  762loPI   C4A11858  17.318   7.573   7.190 -0.0647  0.1574 -0.2628
  762loPI   C5A11859  17.513   7.578   7.724  0.2156 -0.0494  0.1934
  762loPI   C6A11860  17.875   7.684   7.893  0.0524 -0.2204 -0.0446
  762loPI   C1B11861  17.794   7.253   6.072  0.2663 -0.1740  0.0009
  762loPI   C2B11862  17.810   7.213   6.522 -0.3727 -0.2881  0.2023
  762loPI   C3B11863  17.779   7.361   6.976 -0.2264 -0.0986 -0.1589
  762loPI   C4B11864  17.851   7.341   7.491 -0.0756 -0.1210 -0.3102
  763loPI    C111865  12.992  16.304   5.437  0.0235  0.0151 -0.1392
  763loPI    C211866  13.220  16.238   5.115  0.1227 -0.0659 -0.0536
  763loPI    C311867  12.926  15.983   5.207  0.1655 -0.1028 -0.0184
  763loPI   PO411868  13.083  16.422   5.637  0.0494  0.1163 -0.3201
  763loPI   GL111869  13.149  16.311   6.056 -0.1117 -0.3968 -0.0760
  763loPI   GL211870  12.850  16.216   6.205  0.1772  0.2416  0.1726
  763loPI   C1A11871  13.201  16.436   6.522  0.0941  0.0496 -0.0122
  763loPI   C2A11872  13.243  16.462   6.969 -0.0166 -0.1184 -0.1406
  763loPI   C3A11873  13.178  16.416   7.372  0.1687  0.1449 -0.0020
  763loPI   C4A11874  13.212  16.414   7.789  0.2387 -0.0148  0.2157
  763loPI   C5A11875  13.404  16.412   8.192  0.2734 -0.1452  0.0353
  763loPI   C6A11876  13.572  16.397   8.668 -0.1567  0.3610  0.2379
  763loPI   C1B11877  12.723  16.180   6.541 -0.0231 -0.1084  0.0030
  763loPI   C2B11878  12.749  16.180   7.031 -0.1619 -0.0988 -0.0727
  763loPI   C3B11879  12.751  16.206   7.526 -0.0415 -0.3650  0.2156
  763loPI   C4B11880  12.820  16.153   7.954 -0.0179  0.0346  0.1259
  764loPI    C111881  15.603   1.420   5.253  0.2041 -0.0072  0.0223
  764loPI    C211882  15.473   1.533   4.892  0.2709  0.0575  0.0184
  764loPI    C311883  15.494   1.145   4.984  0.1953  0.0428 -0.0254
  764loPI   PO411884  15.386   1.638   5.500  0.0309 -0.0192  0.2476
  764loPI   GL111885  15.445   1.792   5.957 -0.2444  0.1646  0.1319
  764loPI   GL211886  15.731   1.852   6.075 -0.0115 -0.1899  0.2368
  764loPI   C1A11887  15.284   1.597   6.361  0.0454 -0.1037 -0.0433
  764loPI   C2A11888  15.265   1.462   6.842  0.2055  0.0645  0.4046
  764loPI   C3A11889  15.330   1.456   7.230 -0.1201 -0.0258 -0.1054
  764loPI   C4A11890  15.384   1.400   7.567  0.3826 -0.1985  0.2151
  764loPI   C5A11891  15.337   1.472   8.073 -0.0130 -0.3351  0.3375
  764loPI   C6A11892  15.290   1.404   8.544 -0.1922  0.2579 -0.3202
  764loPI   C1B11893  15.749   1.884   6.482 -0.2972 -0.0592  0.0573
  764loPI   C2B11894  15.724   1.724   6.881  0.0702 -0.1366 -0.0077
  764loPI   C3B11895  15.828   1.740   7.213  0.0896  0.3017  0.3596
  764loPI   C4B11896  15.770   1.626   7.641 -0.2210 -0.0245  0.0577
  765loPI    C111897   8.967   9.891   5.700  0.1187 -0.0991  0.4086
  765loPI    C211898   9.232   9.614   5.586  0.0067 -0.0826  0.0990
  765loPI    C311899   9.066   9.856   5.314 -0.1822  0.0358  0.3161
  765loPI   PO411900   9.103   9.991   5.899  0.1729  0.1604  0.4708
  765loPI   GL111901   9.214  10.018   6.276 -0.0053  0.1601 -0.2662
  765loPI   GL211902   9.167  10.292   6.274  0.0518 -0.4063 -0.0704
  765loPI   C1A11903   9.233   9.946   6.748 -0.2514  0.0496 -0.0187
  765loPI   C2A11904   9.239   9.855   7.230  0.0634 -0.3650  0.0608
  765loPI   C3A11905   9.283   9.789   7.696  0.1784 -0.1376  0.0292
  765loPI   C4A11906   9.485   9.701   8.188  0.1189  0.2389  0.3198
  765loPI   C5A11907   9.819   9.830   8.432  0.1773  0.3491 -0.0252
  765loPI   C6A11908   9.694   9.735   8.855  0.2034 -0.2350 -0.2866
  765loPI   C1B11909   9.261  10.480   6.674  0.1982  0.1258 -0.2120
  765loPI   C2B11910   9.269  10.416   7.115 -0.4199  0.0411  0.2809
  765loPI   C3B11911   9.264  10.263   7.551  0.2343 -0.0775 -0.1002
  765loPI   C4B11912   9.382  10.264   7.990 -0.0953  0.1808 -0.2431
  766loPI    C111913   6.216  11.667   5.496  0.1248 -0.0952 -0.1389
  766loPI    C211914   6.543  11.717   5.270  0.0934 -0.2521 -0.2209
  766loPI    C311915   6.210  11.563   5.110 -0.1236  0.1946 -0.2165
  766loPI   PO411916   6.310  11.642   5.694 -0.0009  0.0258  0.3499
  766loPI   GL111917   6.086  11.749   6.091  0.1255  0.0363  0.1780
  766loPI   GL211918   6.432  11.833   6.093 -0.1201  0.0944  0.1550
  766loPI   C1A11919   6.050  11.588   6.490  0.0194  0.0768  0.1681
  766loPI   C2A11920   6.126  11.567   6.860  0.0392  0.2323 -0.1190
  766loPI   C3A11921   6.061  11.595   7.240 -0.1634 -0.2453 -0.0690
  766loPI   C4A11922   6.193  11.587   7.733  0.1396  0.2022 -0.0790
  766loPI   C5A11923   6.325  11.596   8.088 -0.1566  0.2010  0.0504
  766loPI   C6A11924   6.321  11.600   8.529 -0.3060  0.3289  0.0726
  766loPI   C1B11925   6.569  11.832   6.495  0.0216  0.1862 -0.2075
  766loPI   C2B11926   6.627  11.850   6.919 -0.0892 -0.1236  0.0198
  766loPI   C3B11927   6.669  11.822   7.347 -0.2760 -0.2186 -0.0630
  766loPI   C4B11928   6.656  11.923   7.814 -0.3109  0.3015 -0.2124
  767loPI    C111929   9.706   7.070   5.671  0.0141 -0.1542 -0.0185
  767loPI    C211930   9.742   7.375   5.414 -0.0295  0.0984  0.2689
  767loPI    C311931   9.794   6.999   5.287 -0.0810  0.2159 -0.1131
  767loPI   PO411932   9.475   7.153   5.820  0.0123  0.1993  0.1713
  767loPI   GL111933   9.258   7.286   6.208 -0.0400  0.2042  0.3936
  767loPI   GL211934   9.393   7.014   6.321 -0.0393  0.1023 -0.0348
  767loPI   C1A11935   9.432   7.568   6.494  0.0788 -0.0776  0.0420
  767loPI   C2A11936   9.678   7.584   6.909 -0.0251 -0.1103 -0.1653
  767loPI   C3A11937   9.651   7.560   7.356  0.1466 -0.1134  0.0394
  767loPI   C4A11938   9.723   7.462   7.787 -0.0385  0.2134 -0.0765
  767loPI   C5A11939   9.727   7.638   8.079 -0.1474 -0.0766  0.0499
  767loPI   C6A11940   9.888   7.883   8.404 -0.1415  0.0549  0.2306
  767loPI   C1B11941   9.451   7.116   6.745  0.1499 -0.0045 -0.0041
  767loPI   C2B11942   9.300   7.302   7.117  0.2132  0.2143 -0.1015
  767loPI   C3B11943   9.148   7.282   7.609 -0.1059 -0.2445 -0.1841
  767loPI   C4B11944   9.164   7.483   7.976  0.0206 -0.4782 -0.0781
  768loPI    C111945   6.816  11.538   5.812  0.1836  0.0504  0.0556
  768loPI    C211946   6.876  11.390   5.445 -0.2244 -0.0421  0.0209
  768loPI    C311947   6.607  11.220   5.687 -0.0071  0.0606  0.3403
  768loPI   PO411948   6.812  11.832   5.727  0.1759  0.1151  0.2732
  768loPI   GL111949   7.169  11.993   6.031 -0.4831 -0.2935 -0.1139
  768loPI   GL211950   6.854  12.062   6.163  0.0447 -0.0471  0.4018
  768loPI   C1A11951   7.464  11.800   6.344  0.3424  0.1032  0.1188
  768loPI   C2A11952   7.386  11.812   6.837  0.2962 -0.0667 -0.1387
  768loPI   C3A11953   7.548  11.809   7.263  0.0618 -0.3911 -0.1030
  768loPI   C4A11954   7.567  11.884   7.724  0.1842  0.0350 -0.1518
  768loPI   C5A11955   7.671  11.880   8.207  0.0975 -0.0159 -0.0346
  768loPI   C6A11956   7.848  11.646   8.585  0.0208 -0.1310 -0.0012
  768loPI   C1B11957   7.004  12.088   6.621 -0.1865 -0.1319  0.2781
  768loPI   C2B11958   7.040  12.102   7.057 -0.2004  0.3011  0.0345
  768loPI   C3B11959   7.063  12.065   7.546 -0.1264 -0.0344  0.1555
  768loPI   C4B11960   7.100  12.138   8.001 -0.1675 -0.0453 -0.2758
  769loPI    C111961   0.609  11.762   5.350  0.0406  0.0499 -0.1629
  769loPI    C211962   0.316  12.014   5.248 -0.0727 -0.2407 -0.5838
  769loPI    C311963   0.592  11.910   4.978  0.2949 -0.1423 -0.2537
  769loPI   PO411964   0.541  11.727   5.658 -0.2395 -0.0653 -0.3490
  769loPI   GL111965   0.535  11.884   6.077  0.1661 -0.0220  0.0926
  769loPI   GL211966   0.304  11.726   6.199 -0.0124 -0.3538  0.0546
  769loPI   C1A11967   0.663  11.939   6.526  0.0745  0.0127 -0.1171
  769loPI   C2A11968   0.818  12.014   6.955 -0.0142  0.3003 -0.1167
  769loPI   C3A11969   0.824  11.978   7.372 -0.0435  0.3696  0.2429
  769loPI   C4A11970   0.757  11.922   7.846 -0.2009  0.3234 -0.1870
  769loPI   C5A11971   0.477  11.939   8.222  0.0216  0.3783  0.1130
  769loPI   C6A11972   0.230  11.659   8.412 -0.1334 -0.0857  0.2187
  769loPI   C1B11973   0.282  11.614   6.622 -0.5012  0.0896 -0.0364
  769loPI   C2B11974   0.306  11.709   7.038 -0.1562  0.1430 -0.2042
  769loPI   C3B11975   0.366  11.718   7.411  0.1067  0.1097  0.0383
  769loPI   C4B11976   0.411  11.533   7.874 -0.3650 -0.0019  0.2727
  770loPI    C111977  11.365   2.560   5.565  0.0153  0.0988  0.1525
  770loPI    C211978  11.064   2.301   5.614 -0.0204  0.1175  0.0354
  770loPI    C311979  11.395   2.188   5.421 -0.0528  0.1712 -0.0521
  770loPI   PO411980  11.456   2.639   5.824 -0.0039 -0.0274 -0.2956
  770loPI   GL111981  11.612   2.770   6.174  0.0466  0.1807  0.0545
  770loPI   GL211982  11.671   2.441   6.195 -0.2406 -0.3005  0.0169
  770loPI   C1A11983  11.605   3.042   6.600 -0.1555  0.3704  0.1411
  770loPI   C2A11984  11.684   3.009   7.159  0.2708 -0.3687  0.0548
  770loPI   C3A11985  11.709   3.039   7.601  0.2542 -0.1878  0.3915
  770loPI   C4A11986  11.494   3.102   8.019  0.1294  0.0560 -0.2081
  770loPI   C5A11987  11.350   3.567   8.133 -0.1257 -0.2607  0.0146
  770loPI   C6A11988  10.941   3.665   8.377  0.0169 -0.1143  0.0695
  770loPI   C1B11989  11.659   2.458   6.556 -0.0182 -0.0029  0.2280
  770loPI   C2B11990  11.704   2.434   7.043 -0.0573 -0.1218 -0.0558
  770loPI   C3B11991  11.808   2.382   7.498 -0.0067  0.1045  0.0887
  770loPI   C4B11992  11.906   2.315   7.947 -0.2139 -0.0396  0.2274
  771loPI    C111993   8.684   0.266   5.754 -0.1857  0.0464  0.0099
  771loPI    C211994   8.879   0.290   5.406 -0.0935 -0.1811  0.0443
  771loPI    C311995   9.051   0.110   5.719 -0.1797  0.0134  0.2056
  771loPI   PO411996   8.533   0.572   5.832  0.2397 -0.0620 -0.1611
  771loPI   GL111997   8.323   0.585   6.253 -0.0959  0.2139 -0.0087
  771loPI   GL211998   8.599   0.353   6.261  0.0484  0.1454 -0.3041
  771loPI   C1A11999   8.457   0.638   6.679 -0.0232  0.1116  0.0282
  771loPI   C2A12000   8.528   0.746   7.118  0.2362 -0.1073  0.0884
  771loPI   C3A12001   8.659   0.505   7.429 -0.1051  0.0262  0.0818
  771loPI   C4A12002   8.624   0.386   7.803 -0.0154 -0.0890  0.0197
  771loPI   C5A12003   8.789   0.263   8.252 -0.0220  0.2128  0.2501
  771loPI   C6A12004   8.726   0.227   8.675 -0.3148 -0.0281 -0.0881
  771loPI   C1B12005   8.584   0.141   6.645 -0.0583 -0.1696 -0.1113
  771loPI   C2B12006   8.646  -0.033   7.122 -0.0091 -0.1725  0.0971
  771loPI   C3B12007   8.698  -0.038   7.489 -0.0605  0.2135  0.0317
  771loPI   C4B12008   8.624  -0.131   7.945 -0.2215 -0.0552  0.1762
  772loPI    C112009   8.834   9.394   5.708 -0.0344  0.0158 -0.0325
  772loPI    C212010   8.475   9.255   5.597 -0.1701  0.2061  0.1614
  772loPI    C312011   8.677   9.504   5.357 -0.0787 -0.0528 -0.0345
  772loPI   PO412012   8.903   9.250   5.828 -0.0182  0.1793 -0.1263
  772loPI   GL112013   9.059   9.007   6.229  0.1779 -0.0905 -0.0295
  772loPI   GL212014   8.899   9.195   6.371 -0.0586 -0.0800 -0.0276
  772loPI   C1A12015   9.244   8.910   6.638 -0.2457 -0.1882  0.1652
  772loPI   C2A12016   9.304   8.856   7.068 -0.0458 -0.2539 -0.1336
  772loPI   C3A12017   9.205   8.834   7.450  0.3032 -0.1351 -0.2690
  772loPI   C4A12018   9.400   8.793   7.765 -0.3324 -0.1022 -0.3598
  772loPI   C5A12019   9.402   8.489   7.988 -0.0754  0.1738 -0.0042
  772loPI   C6A12020   9.040   8.339   8.256 -0.2075 -0.5551 -0.2051
  772loPI   C1B12021   8.846   9.105   6.880 -0.2798  0.1428 -0.0673
  772loPI   C2B12022   8.801   9.041   7.271 -0.2571 -0.0011 -0.0276
  772loPI   C3B12023   8.842   9.124   7.718  0.1187 -0.4455 -0.1552
  772loPI   C4B12024   8.912   9.358   8.071 -0.1563  0.0772 -0.2343
  773loPI    C112025  14.524  16.988   5.593  0.0974  0.0638  0.1357
  773loPI    C212026  14.298  16.701   5.431  0.0045  0.1287  0.1497
  773loPI    C312027  14.696  16.679   5.407 -0.0046  0.0471  0.0684
  773loPI   PO412028  14.409  16.969   5.853 -0.0938 -0.1452 -0.0805
  773loPI   GL112029  14.134  17.067   6.151  0.1374 -0.1822  0.0644
  773loPI   GL212030  14.140  17.395   6.094 -0.2648  0.0236 -0.1541
  773loPI   C1A12031  14.045  17.097   6.605 -0.1221  0.3443 -0.0937
  773loPI   C2A12032  14.097  16.996   7.060  0.3053 -0.3997 -0.0452
  773loPI   C3A12033  14.097  16.946   7.515  0.0974 -0.1580 -0.2658
  773loPI   C4A12034  14.091  16.927   7.959  0.0419 -0.2639 -0.1501
  773loPI   C5A12035  14.058  17.262   8.302 -0.1484 -0.1780  0.2975
  773loPI   C6A12036  13.652  17.510   8.480 -0.1843  0.0946 -0.0116
  773loPI   C1B12037  14.064  17.558   6.520 -0.0403 -0.3176  0.1787
  773loPI   C2B12038  13.998  17.498   6.905  0.1965 -0.0071  0.1230
  773loPI   C3B12039  14.094  17.444   7.366  0.1463 -0.2286 -0.2218
  773loPI   C4B12040  14.104  17.441   7.815  0.0931  0.0418 -0.0630
  774loPI    C112041  16.926   9.077   4.949 -0.2504  0.0182  0.1198
  774loPI    C212042  17.116   9.406   4.821 -0.2650  0.0566  0.1959
  774loPI    C312043  16.840   9.230   4.590  0.1454 -0.2323 -0.0888
  774loPI   PO412044  16.881   9.061   5.201  0.1210 -0.2034  0.0430
  774loPI   GL112045  16.668   9.155   5.591  0.2201 -0.3406 -0.0607
  774loPI   GL212046  16.486   9.055   5.711 -0.3424 -0.0982 -0.2214
  774loPI   C1A12047  16.863   9.281   6.037 -0.3741  0.0415  0.2592
  774loPI   C2A12048  16.979   9.316   6.491  0.0679 -0.2108  0.3074
  774loPI   C3A12049  16.941   9.393   6.865  0.0260  0.0360  0.0660
  774loPI   C4A12050  16.876   9.410   7.278  0.2497  0.3504  0.1636
  774loPI   C5A12051  16.979   9.241   7.647 -0.3234 -0.1600 -0.0511
  774loPI   C6A12052  16.716   8.898   7.910 -0.0369  0.2940  0.0085
  774loPI   C1B12053  16.419   9.067   6.171  0.1012  0.0785 -0.0284
  774loPI   C2B12054  16.528   9.051   6.594 -0.0789  0.2797  0.1688
  774loPI   C3B12055  16.498   9.112   7.056  0.3428 -0.0786 -0.3634
  774loPI   C4B12056  16.503   9.039   7.470 -0.2028 -0.2076  0.1175
  775loPI    C112057   6.120  10.793   5.375  0.2789  0.0343  0.0408
  775loPI    C212058   6.121  11.183   5.464  0.0172  0.0869 -0.1738
  775loPI    C312059   5.983  11.059   5.110 -0.1370 -0.2212 -0.0104
  775loPI   PO412060   6.114  10.665   5.614 -0.0950 -0.1344  0.1070
  775loPI   GL112061   6.087  10.928   6.010 -0.0212 -0.3289  0.1930
  775loPI   GL212062   6.144  11.248   5.975  0.2451  0.0587 -0.2628
  775loPI   C1A12063   6.061  11.053   6.421  0.2315 -0.1973 -0.4692
  775loPI   C2A12064   6.049  11.014   6.839 -0.0624 -0.1588 -0.1663
  775loPI   C3A12065   6.100  11.002   7.257 -0.1962  0.0474  0.0552
  775loPI   C4A12066   6.130  11.114   7.745  0.0830  0.2406 -0.1197
  775loPI   C5A12067   6.102  11.000   8.193  0.0151  0.0678  0.0129
  775loPI   C6A12068   5.835  10.663   8.387  0.0111 -0.1894 -0.1123
  775loPI   C1B12069   6.526  11.399   6.217  0.0009  0.1491 -0.1343
  775loPI   C2B12070   6.569  11.337   6.655  0.2851 -0.1532  0.1188
  775loPI   C3B12071   6.506  11.248   7.070 -0.0504  0.0121 -0.2350
  775loPI   C4B12072   6.645  11.402   7.489 -0.0242  0.0506  0.1169
  776loPI    C112073  12.764  15.129   5.208 -0.1095  0.1952  0.3354
  776loPI    C212074  12.800  15.511   5.095  0.1057  0.0402 -0.1444
  776loPI    C312075  12.543  15.270   4.906 -0.0892 -0.0361  0.2100
  776loPI   PO412076  12.796  15.198   5.503 -0.1525  0.1795 -0.2665
  776loPI   GL112077  13.077  15.289   5.927  0.1722  0.2973  0.0899
  776loPI   GL212078  12.824  15.419   5.969  0.1910  0.1583 -0.0246
  776loPI   C1A12079  13.083  15.466   6.426  0.1929  0.1416  0.1702
  776loPI   C2A12080  13.166  15.437   6.895 -0.2137  0.0069 -0.0317
  776loPI   C3A12081  13.168  15.455   7.312  0.0296  0.0001 -0.0105
  776loPI   C4A12082  13.194  15.397   7.749 -0.0431 -0.0399  0.0663
  776loPI   C5A12083  13.118  15.376   8.185  0.5432 -0.2112 -0.0293
  776loPI   C6A12084  13.019  15.232   8.640 -0.0166 -0.0481 -0.2500
  776loPI   C1B12085  12.706  15.739   6.320  0.1146  0.0852  0.0783
  776loPI   C2B12086  12.772  15.671   6.764  0.1181 -0.2011  0.1618
  776loPI   C3B12087  12.726  15.592   7.206 -0.1675  0.1803 -0.0818
  776loPI   C4B12088  12.788  15.733   7.646 -0.1850  0.2062 -0.2975
  777loPI    C112089  16.830  15.011   5.453 -0.0666  0.0045 -0.1253
  777loPI    C212090  16.966  14.808   5.136  0.0433  0.0957 -0.1373
  777loPI    C312091  17.077  15.188   5.193 -0.0271  0.1000 -0.0238
  777loPI   PO412092  16.749  14.818   5.659 -0.2715 -0.0174 -0.2989
  777loPI   GL112093  17.048  15.055   6.017  0.2641 -0.0050  0.0448
  777loPI   GL212094  17.205  14.902   6.101 -0.1488  0.0785  0.0782
  777loPI   C1A12095  16.786  15.015   6.474 -0.2291 -0.1795 -0.0024
  777loPI   C2A12096  16.827  15.124   6.899 -0.3331  0.3135 -0.1357
  777loPI   C3A12097  16.787  15.027   7.264  0.0099 -0.1822  0.2957
  777loPI   C4A12098  16.765  15.012   7.703 -0.1825  0.2547  0.3191
  777loPI   C5A12099  16.693  14.857   8.136 -0.3470  0.0313 -0.0152
  777loPI   C6A12100  16.761  14.659   8.537 -0.1546  0.2081 -0.1598
  777loPI   C1B12101  17.308  14.803   6.540  0.3491 -0.0491  0.0658
  777loPI   C2B12102  17.182  14.812   6.975 -0.0192 -0.0560 -0.5100
  777loPI   C3B12103  17.178  14.846   7.459  0.1586 -0.0996 -0.1231
  777loPI   C4B12104  17.135  14.681   7.886  0.1765 -0.2419 -0.2466
  778loPI    C112105   6.203  16.638   5.787  0.1072 -0.0024  0.0444
  778loPI    C212106   6.323  16.346   5.541  0.0395 -0.0991  0.1257
  778loPI    C312107   6.131  16.664   5.394  0.0521 -0.1283  0.0459
  778loPI   PO412108   6.134  16.520   5.989  0.4409 -0.1236  0.3312
  778loPI   GL112109   6.314  16.430   6.375  0.0928  0.0371 -0.1717
  778loPI   GL212110   6.372  16.695   6.464 -0.0102 -0.1896  0.2384
  778loPI   C1A12111   6.413  16.062   6.600  0.1386 -0.1216 -0.0631
  778loPI   C2A12112   6.423  15.958   7.025  0.0539 -0.1924  0.0384
  778loPI   C3A12113   6.561  15.979   7.464  0.0478  0.0137  0.3123
  778loPI   C4A12114   6.506  15.999   7.826  0.1108  0.1819 -0.0382
  778loPI   C5A12115   6.576  15.873   8.248 -0.2782  0.0013  0.0087
  778loPI   C6A12116   6.683  15.997   8.643  0.2346  0.0765  0.2424
  778loPI   C1B12117   6.374  16.544   6.886  0.1717 -0.2326  0.3556
  778loPI   C2B12118   6.386  16.573   7.377  0.1751  0.0971 -0.4978
  778loPI   C3B12119   6.464  16.497   7.841 -0.3977  0.3192 -0.0767
  778loPI   C4B12120   6.579  16.484   8.298  0.0408  0.1842 -0.4090
  779loPI    C112121   0.833   5.819   5.767 -0.1900  0.1065 -0.1034
  779loPI    C212122   0.935   5.500   5.548  0.0413 -0.1071  0.3032
  779loPI    C312123   0.615   5.485   5.787  0.1013 -0.0647  0.3865
  779loPI   PO412124   0.860   6.016   5.636 -0.0134  0.2576 -0.1527
  779loPI   GL112125   0.825   6.401   5.752  0.0938  0.1211  0.1829
  779loPI   GL212126   0.497   6.324   5.797 -0.2122 -0.1235  0.1337
  779loPI   C1A12127   0.855   6.221   6.220  0.1050 -0.1769  0.0397
  779loPI   C2A12128   0.870   6.273   6.625 -0.2303  0.1669 -0.1079
  779loPI   C3A12129   0.895   6.301   7.062 -0.1885 -0.3721 -0.2919
  779loPI   C4A12130   0.917   6.333   7.466 -0.0733 -0.0031 -0.4542
  779loPI   C5A12131   0.960   6.444   7.911 -0.2064 -0.1662  0.0327
  779loPI   C6A12132   1.032   6.628   8.250  0.1342 -0.0526  0.0056
  779loPI   C1B12133   0.346   6.476   6.150 -0.1192 -0.1083 -0.1678
  779loPI   C2B12134   0.387   6.480   6.635 -0.2081 -0.1052 -0.0230
  779loPI   C3B12135   0.375   6.490   7.104 -0.2468 -0.3304  0.1615
  779loPI   C4B12136   0.437   6.575   7.478 -0.4922  0.0618 -0.0460
  780loPI    C112137   8.692   5.443   6.181  0.0104  0.1525  0.3314
  780loPI    C212138   8.314   5.375   6.070  0.0800 -0.0939  0.2382
  780loPI    C312139   8.593   5.448   5.793  0.1139  0.0233  0.3027
  780loPI   PO412140   8.789   5.464   6.403  0.1460 -0.0263 -0.2206
  780loPI   GL112141   8.873   5.578   6.776  0.0333 -0.3450  0.1298
  780loPI   GL212142   8.917   5.872   6.881  0.1414 -0.0542 -0.1370
  780loPI   C1A12143   8.745   5.285   7.060  0.3311 -0.0932  0.1033
  780loPI   C2A12144   8.312   5.107   7.199  0.4414 -0.0166 -0.1349
  780loPI   C3A12145   8.185   5.033   7.594 -0.1268  0.2323 -0.0168
  780loPI   C4A12146   8.092   4.860   8.022  0.1550  0.4512 -0.0643
  780loPI   C5A12147   8.222   4.889   8.500  0.0620  0.1626 -0.0100
  780loPI   C6A12148   8.217   4.734   8.888  0.0429  0.0197  0.0174
  780loPI   C1B12149   8.913   5.703   7.284 -0.1079  0.2279  0.0422
  780loPI   C2B12150   8.794   5.389   7.537 -0.4172  0.1169  0.1627
  780loPI   C3B12151   9.027   5.227   7.971  0.1095 -0.0333 -0.1395
  780loPI   C4B12152   9.213   4.935   8.239 -0.1091 -0.0281  0.2212
  781loPI    C112153  13.570   8.267   5.199 -0.1704  0.1827  0.0704
  781loPI    C212154  13.193   8.293   5.070 -0.1390 -0.0684 -0.0808
  781loPI    C312155  13.484   8.486   4.876 -0.1688  0.0089 -0.0493
  781loPI   PO412156  13.522   8.198   5.517 -0.4459  0.0387  0.1308
  781loPI   GL112157  13.234   8.130   5.890  0.0821  0.0145 -0.1021
  781loPI   GL212158  12.943   8.139   5.964  0.3300 -0.0994 -0.1148
  781loPI   C1A12159  13.272   8.263   6.280 -0.0046  0.1433  0.0701
  781loPI   C2A12160  13.308   8.236   6.766 -0.3340 -0.0741 -0.0552
  781loPI   C3A12161  13.364   8.259   7.288  0.1464  0.0646 -0.3801
  781loPI   C4A12162  13.428   8.182   7.712  0.2523 -0.0981 -0.0710
  781loPI   C5A12163  13.394   8.427   8.124  0.2191  0.2790 -0.2706
  781loPI   C6A12164  13.558   8.750   8.380  0.5846  0.2936 -0.0154
  781loPI   C1B12165  12.775   7.912   6.366  0.0820  0.0864  0.2071
  781loPI   C2B12166  12.871   7.867   6.760 -0.2199  0.0161 -0.0717
  781loPI   C3B12167  12.890   7.996   7.124 -0.0615  0.1016  0.1809
  781loPI   C4B12168  13.001   7.892   7.453 -0.1798  0.0911  0.1657
  782loPI    C112169  10.825  16.699   5.364 -0.0997  0.1087  0.0841
  782loPI    C212170  10.662  16.634   5.005  0.1871 -0.2362  0.0106
  782loPI    C312171  10.730  17.008   5.129 -0.1242 -0.1071 -0.1951
  782loPI   PO412172  10.772  16.597   5.522  0.0395  0.2845 -0.0165
  782loPI   GL112173  10.843  16.435   5.923  0.0979  0.0090 -0.3739
  782loPI   GL212174  10.853  16.169   6.110  0.1302  0.1867 -0.0907
  782loPI   C1A12175  10.871  16.615   6.357  0.1025 -0.2410  0.1415
  782loPI   C2A12176  10.925  16.654   6.866  0.1412  0.1966 -0.5534
  782loPI   C3A12177  10.999  16.642   7.301 -0.1209  0.0136 -0.3267
  782loPI   C4A12178  11.009  16.682   7.717 -0.3952 -0.1543  0.1776
  782loPI   C5A12179  10.943  16.698   8.209  0.3502 -0.1135  0.1262
  782loPI   C6A12180  10.621  16.604   8.562 -0.1182 -0.0467  0.0729
  782loPI   C1B12181  10.863  16.157   6.529 -0.0999 -0.0774  0.3771
  782loPI   C2B12182  10.943  16.217   6.981  0.1695 -0.0217  0.0375
  782loPI   C3B12183  10.959  16.158   7.408 -0.0569  0.0236 -0.1024
  782loPI   C4B12184  11.016  16.173   7.887 -0.0448  0.0189  0.1297
  783loPI    C112185   9.479  16.424   5.602  0.2141  0.0895  0.0653
  783loPI    C212186   9.872  16.392   5.669  0.1803 -0.0837  0.1904
  783loPI    C312187   9.728  16.356   5.297  0.3066  0.2395  0.1062
  783loPI   PO412188   9.373  16.512   5.779 -0.5019  0.1533 -0.1052
  783loPI   GL112189   9.557  16.541   6.168 -0.4978 -0.1247  0.0444
  783loPI   GL212190   9.853  16.685   6.160  0.0480  0.2007 -0.0535
  783loPI   C1A12191   9.552  16.553   6.594  0.1543 -0.0037  0.1687
  783loPI   C2A12192   9.612  16.330   6.979 -0.1272  0.1279 -0.1618
  783loPI   C3A12193   9.666  16.315   7.439  0.0531  0.1052 -0.4527
  783loPI   C4A12194   9.707  16.255   7.947 -0.0446  0.0182 -0.1211
  783loPI   C5A12195  10.024  15.959   8.192  0.1932  0.1057 -0.1572
  783loPI   C6A12196  10.207  15.817   8.578  0.0237 -0.0434  0.1489
  783loPI   C1B12197  10.064  16.719   6.588 -0.0467  0.2003 -0.3212
  783loPI   C2B12198  10.046  16.732   7.079  0.1069  0.1359  0.0807
  783loPI   C3B12199  10.097  16.608   7.510 -0.3288  0.0598  0.0682
  783loPI   C4B12200  10.126  16.473   7.913  0.1217 -0.0670  0.4881
  784loPI    C112201   7.125   4.913   5.937  0.3054 -0.3293  0.0288
  784loPI    C212202   6.915   4.948   5.598  0.1251 -0.0770  0.1629
  784loPI    C312203   6.906   4.605   5.805  0.0349 -0.1472  0.0439
  784loPI   PO412204   7.076   5.030   6.093 -0.3034  0.1015 -0.1577
  784loPI   GL112205   7.261   4.953   6.519 -0.0651 -0.0824 -0.0711
  784loPI   GL212206   7.002   5.096   6.626  0.1076  0.2023  0.7584
  784loPI   C1A12207   7.355   4.904   6.977  0.1312 -0.3004 -0.2869
  784loPI   C2A12208   7.293   4.623   7.408 -0.0440 -0.1675 -0.0881
  784loPI   C3A12209   7.194   4.745   7.791  0.1319 -0.1926  0.2034
  784loPI   C4A12210   7.122   4.767   8.259 -0.0118  0.1931 -0.0099
  784loPI   C5A12211   7.134   4.967   8.610  0.0432 -0.0959  0.0198
  784loPI   C6A12212   7.462   4.964   8.913  0.0230 -0.1339  0.2029
  784loPI   C1B12213   6.865   5.198   7.051  0.0166  0.0007  0.2061
  784loPI   C2B12214   7.246   5.146   7.463 -0.0939 -0.0519 -0.0396
  784loPI   C3B12215   7.584   5.174   7.690  0.1811 -0.0183 -0.0060
  784loPI   C4B12216   7.779   5.297   7.966 -0.0846 -0.1909 -0.1974
  785loPI    C112217   5.683   9.711   5.502 -0.3438  0.0378 -0.2323
  785loPI    C212218   5.690  10.049   5.288  0.0535  0.0108 -0.2691
  785loPI    C312219   5.913   9.736   5.175  0.1569 -0.0543  0.1008
  785loPI   PO412220   5.555   9.809   5.748  0.2074  0.1604 -0.0451
  785loPI   GL112221   5.392   9.801   6.123 -0.0150 -0.1947 -0.0169
  785loPI   GL212222   5.008   9.875   6.158 -0.0957 -0.2163  0.0558
  785loPI   C1A12223   5.615   9.703   6.467 -0.2614 -0.0673  0.0466
  785loPI   C2A12224   5.656   9.587   6.898 -0.0144 -0.0889 -0.2196
  785loPI   C3A12225   5.643   9.619   7.275  0.0443 -0.0605  0.0862
  785loPI   C4A12226   5.721   9.831   7.670  0.0583  0.0885  0.2004
  785loPI   C5A12227   5.605   9.981   8.081 -0.0826  0.0744 -0.1203
  785loPI   C6A12228   5.166  10.066   8.249  0.0640 -0.0844 -0.2416
  785loPI   C1B12229   5.202  10.035   6.557 -0.2227 -0.2082 -0.0218
  785loPI   C2B12230   5.300   9.990   6.899  0.2223 -0.0985  0.1160
  785loPI   C3B12231   5.316  10.010   7.340 -0.2636 -0.1618 -0.1076
  785loPI   C4B12232   5.156   9.958   7.712  0.0096  0.1782  0.3507
  786loPI    C112233  13.075   4.953   5.162 -0.0125 -0.0567  0.1414
  786loPI    C212234  13.268   5.296   5.091 -0.0308 -0.0243  0.2464
  786loPI    C312235  13.032   5.138   4.810  0.0993 -0.0317  0.1406
  786loPI   PO412236  13.099   4.923   5.536 -0.0611 -0.0866  0.1913
  786loPI   GL112237  13.181   5.105   6.015  0.0537  0.5503 -0.0986
  786loPI   GL212238  13.023   5.322   6.152 -0.2528  0.2659 -0.1972
  786loPI   C1A12239  13.377   5.066   6.471  0.1171  0.0434  0.0110
  786loPI   C2A12240  13.403   5.105   6.889 -0.3493 -0.0095  0.2154
  786loPI   C3A12241  13.552   5.053   7.332 -0.2177 -0.4580 -0.0401
  786loPI   C4A12242  13.536   5.115   7.763 -0.1921 -0.1254 -0.0782
  786loPI   C5A12243  13.831   4.977   8.099  0.1250 -0.3605  0.3991
  786loPI   C6A12244  13.922   4.706   8.450 -0.1580  0.0162  0.1970
  786loPI   C1B12245  12.990   5.397   6.589  0.2845  0.2154  0.1005
  786loPI   C2B12246  13.001   5.472   7.019  0.0849  0.1971 -0.2304
  786loPI   C3B12247  13.018   5.367   7.436 -0.1094  0.3316  0.2712
  786loPI   C4B12248  13.061   5.287   7.809 -0.1640 -0.2159 -0.2094
  787loPI    C112249  16.556   2.165   5.511 -0.0817  0.2559  0.0304
  787loPI    C212250  16.921   2.264   5.381  0.0010  0.0860  0.1300
  787loPI    C312251  16.684   2.033   5.156  0.0680 -0.0445  0.1923
  787loPI   PO412252  16.600   2.096   5.808 -0.4093  0.0934  0.1467
  787loPI   GL112253  16.497   1.809   6.201  0.4543 -0.0837 -0.0259
  787loPI   GL212254  16.227   2.033   6.320  0.0341  0.1805  0.1445
  787loPI   C1A12255  16.680   1.861   6.538 -0.0354 -0.0548 -0.1926
  787loPI   C2A12256  16.689   1.793   6.995 -0.0869 -0.0587  0.0448
  787loPI   C3A12257  16.670   1.781   7.382  0.0245  0.2001  0.1630
  787loPI   C4A12258  16.608   1.768   7.724 -0.3050 -0.2136 -0.1275
  787loPI   C5A12259  16.493   1.984   8.117 -0.5599 -0.0791  0.2657
  787loPI   C6A12260  16.051   2.226   8.375 -0.0386 -0.3456  0.3297
  787loPI   C1B12261  16.233   2.027   6.798  0.0698  0.0286  0.1167
  787loPI   C2B12262  16.271   1.970   7.203  0.2071  0.1401 -0.1626
  787loPI   C3B12263  16.227   2.088   7.549  0.0561  0.1476 -0.0693
  787loPI   C4B12264  16.086   1.913   7.790  0.0367  0.3283  0.1814
  788loPI    C112265   3.913  13.001   5.742 -0.2921 -0.0692  0.1240
  788loPI    C212266   3.957  12.655   5.546  0.1151 -0.0435  0.1615
  788loPI    C312267   3.921  12.998   5.342  0.0333 -0.0716  0.1283
  788loPI   PO412268   3.965  12.925   5.938 -0.0302 -0.2364 -0.0811
  788loPI   GL112269   3.956  12.779   6.308  0.0277 -0.1162 -0.0295
  788loPI   GL212270   4.289  12.469   6.408 -0.0136 -0.2114 -0.4199
  788loPI   C1A12271   3.914  12.751   6.667 -0.1989 -0.2711  0.1260
  788loPI   C2A12272   3.879  12.816   7.039 -0.0729 -0.0073  0.1001
  788loPI   C3A12273   3.901  12.804   7.488  0.0092  0.0824 -0.0796
  788loPI   C4A12274   3.911  12.865   7.960  0.0522  0.0262  0.2640
  788loPI   C5A12275   3.845  12.862   8.331 -0.1098  0.1408  0.1581
  788loPI   C6A12276   3.643  12.513   8.604  0.1032 -0.3637  0.1075
  788loPI   C1B12277   4.372  12.584   6.823  0.0845  0.0356  0.1639
  788loPI   C2B12278   4.303  12.569   7.308 -0.0155  0.2085 -0.2293
  788loPI   C3B12279   4.375  12.529   7.742  0.0898  0.0708 -0.1333
  788loPI   C4B12280   4.396  12.603   8.130 -0.2524  0.0098 -0.0245
  789loPI    C112281  12.559  12.985   5.169  0.2138 -0.0142 -0.1715
  789loPI    C212282  12.327  13.147   4.886  0.1839 -0.0697 -0.1790
  789loPI    C312283  12.514  12.800   4.817  0.2085 -0.0633 -0.1452
  789loPI   PO412284  12.728  13.242   5.279  0.2591  0.1544 -0.1891
  789loPI   GL112285  12.656  13.287   5.670  0.2396 -0.1869  0.0268
  789loPI   GL212286  12.782  13.184   5.800  0.0797 -0.0012  0.0104
  789loPI   C1A12287  12.320  13.193   6.056 -0.1420  0.1929  0.1289
  789loPI   C2A12288  12.327  13.254   6.509  0.0566 -0.0639  0.2076
  789loPI   C3A12289  12.286  13.311   7.003 -0.0529 -0.2789 -0.0668
  789loPI   C4A12290  12.429  13.306   7.424  0.0691 -0.2618 -0.2392
  789loPI   C5A12291  12.423  13.337   7.856 -0.2795  0.1528  0.0160
  789loPI   C6A12292  12.455  13.134   8.130 -0.1115 -0.1585  0.1728
  789loPI   C1B12293  12.743  13.102   6.290  0.2115 -0.2242 -0.0624
  789loPI   C2B12294  12.799  13.065   6.683  0.0981  0.1011 -0.2236
  789loPI   C3B12295  12.735  13.049   7.086  0.0052 -0.0511 -0.0757
  789loPI   C4B12296  12.865  13.082   7.516 -0.0910  0.0939 -0.1749
  790loPI    C112297   0.417   0.326   5.409  0.0199  0.0399  0.0011
  790loPI    C212298   0.645   0.044   5.240  0.0834 -0.0076  0.1639
  790loPI    C312299   0.386   0.252   5.018  0.0237 -0.2056  0.0456
  790loPI   PO412300   0.633   0.368   5.636  0.0146  0.1356  0.0468
  790loPI   GL112301   0.864   0.173   6.041 -0.0614 -0.3118  0.1941
  790loPI   GL212302   1.203   0.218   6.009  0.0479 -0.1639  0.0750
  790loPI   C1A12303   0.812   0.324   6.445  0.1084  0.1865 -0.2014
  790loPI   C2A12304   0.797   0.371   6.857  0.0683 -0.3327 -0.1993
  790loPI   C3A12305   0.704   0.359   7.259 -0.0616 -0.0946 -0.0940
  790loPI   C4A12306   0.603   0.332   7.642 -0.3148 -0.1334  0.3286
  790loPI   C5A12307   0.449   0.349   8.103  0.1411  0.3774  0.3004
  790loPI   C6A12308   0.580   0.595   8.493 -0.2051  0.4604 -0.0871
  790loPI   C1B12309   1.321   0.029   6.360  0.0603  0.0077  0.3116
  790loPI   C2B12310   1.276   0.120   6.753  0.2419  0.0450 -0.1506
  790loPI   C3B12311   1.210   0.022   7.120  0.0124  0.0947  0.1319
  790loPI   C4B12312   1.063   0.057   7.463 -0.2034  0.0429  0.1404
  791loPI    C112313  14.361  14.440   5.472  0.2513 -0.1762 -0.0016
  791loPI    C212314  14.410  14.806   5.626 -0.0902 -0.1342  0.0163
  791loPI    C312315  14.563  14.717   5.267 -0.0426  0.0392 -0.0071
  791loPI   PO412316  14.397  14.264   5.659  0.0524 -0.0528  0.0239
  791loPI   GL112317  14.478  14.432   6.014 -0.1995 -0.0532  0.1857
  791loPI   GL212318  14.540  14.194   6.179 -0.1727  0.0866  0.0268
  791loPI   C1A12319  14.513  14.686   6.397  0.2978 -0.0775  0.0124
  791loPI   C2A12320  14.639  14.672   6.819 -0.2412 -0.3091 -0.0507
  791loPI   C3A12321  14.585  14.681   7.276 -0.2196 -0.1907 -0.0854
  791loPI   C4A12322  14.509  14.655   7.758 -0.2237  0.3278 -0.3392
  791loPI   C5A12323  14.339  14.453   8.082  0.0373 -0.0762  0.1017
  791loPI   C6A12324  14.267  13.959   8.220  0.1722 -0.1202 -0.0031
  791loPI   C1B12325  14.599  14.200   6.542 -0.0887  0.0319 -0.3175
  791loPI   C2B12326  14.611  14.190   6.991 -0.0701 -0.0176 -0.0076
  791loPI   C3B12327  14.603  14.107   7.398  0.1510  0.1993  0.0832
  791loPI   C4B12328  14.698  14.109   7.859  0.1764  0.2477 -0.1127
  792loPI    C112329  17.452  11.608   5.430  0.0018 -0.1571  0.0273
  792loPI    C212330  17.779  11.835   5.390 -0.1679  0.1267  0.2197
  792loPI    C312331  17.431  11.956   5.234 -0.2628  0.0041  0.3326
  792loPI   PO412332  17.498  11.425   5.618 -0.1647  0.0431 -0.0018
  792loPI   GL112333  17.123  11.518   5.934 -0.0548  0.1485 -0.1102
  792loPI   GL212334  16.898  11.234   5.993 -0.1569 -0.0547  0.5033
  792loPI   C1A12335  17.298  11.643   6.359 -0.0121 -0.2747  0.1024
  792loPI   C2A12336  17.321  11.642   6.838 -0.0746  0.0822  0.1937
  792loPI   C3A12337  17.389  11.776   7.237  0.4419 -0.1953 -0.1862
  792loPI   C4A12338  17.480  11.677   7.621 -0.0828 -0.0659  0.2633
  792loPI   C5A12339  17.633  11.556   7.986 -0.1349  0.1806 -0.1001
  792loPI   C6A12340  17.947  11.221   8.223  0.1066  0.1327 -0.1678
  792loPI   C1B12341  16.950  11.318   6.486  0.2479  0.0986  0.1987
  792loPI   C2B12342  16.930  11.408   6.922 -0.1750 -0.0779 -0.2418
  792loPI   C3B12343  16.917  11.439   7.335  0.2693 -0.0139  0.4064
  792loPI   C4B12344  16.949  11.502   7.753 -0.2195  0.0712  0.1203
  793loPI    C112345   7.223  14.288   5.791 -0.0855 -0.0843 -0.2602
  793loPI    C212346   7.390  14.611   5.625  0.0322 -0.0184 -0.0176
  793loPI    C312347   7.078  14.434   5.448 -0.1904  0.3737 -0.0285
  793loPI   PO412348   7.362  14.250   5.961 -0.2283 -0.3398  0.0883
  793loPI   GL112349   7.473  14.228   6.301 -0.1623  0.0888  0.0320
  793loPI   GL212350   7.479  13.977   6.357  0.0388  0.0193 -0.2337
  793loPI   C1A12351   7.396  14.464   6.660 -0.0566 -0.1731  0.0479
  793loPI   C2A12352   7.451  14.488   7.091 -0.1764  0.2126  0.1577
  793loPI   C3A12353   7.481  14.358   7.523 -0.0967  0.0829  0.1140
  793loPI   C4A12354   7.376  14.297   7.928  0.1279  0.1309  0.0894
  793loPI   C5A12355   7.176  14.084   8.140 -0.1600  0.1984 -0.0063
  793loPI   C6A12356   7.232  13.931   8.527  0.2014 -0.0775  0.1650
  793loPI   C1B12357   7.401  13.944   6.698  0.0595  0.0815  0.1586
  793loPI   C2B12358   7.484  13.963   7.222 -0.0026  0.1043  0.2381
  793loPI   C3B12359   7.506  13.873   7.555  0.1447  0.1056 -0.0968
  793loPI   C4B12360   7.576  13.797   7.954  0.0433 -0.0439 -0.2248
  794loPI    C112361   5.455  12.532   5.620  0.0016 -0.0240 -0.0673
  794loPI    C212362   5.346  12.165   5.504  0.1040 -0.1426  0.2047
  794loPI    C312363   5.097  12.473   5.452 -0.0916 -0.2965  0.2171
  794loPI   PO412364   5.480  12.502   5.859 -0.2700 -0.0101  0.1068
  794loPI   GL112365   5.442  12.369   6.197  0.0006 -0.0736 -0.0103
  794loPI   GL212366   5.155  12.525   6.385 -0.2997 -0.0127 -0.0660
  794loPI   C1A12367   5.645  12.549   6.570  0.4230 -0.0638 -0.1267
  794loPI   C2A12368   5.640  12.384   6.989  0.1509  0.1388  0.0455
  794loPI   C3A12369   5.670  12.385   7.392  0.2662 -0.4117 -0.0419
  794loPI   C4A12370   5.758  12.426   7.750 -0.1273  0.1351  0.1743
  794loPI   C5A12371   5.742  12.281   8.225 -0.2666 -0.0724 -0.1994
  794loPI   C6A12372   5.586  12.025   8.565  0.1417 -0.0696 -0.1195
  794loPI   C1B12373   5.172  12.619   6.824 -0.0538  0.0511  0.2414
  794loPI   C2B12374   5.190  12.586   7.241  0.0207 -0.0689 -0.0410
  794loPI   C3B12375   5.327  12.627   7.679 -0.1052  0.0845  0.0432
  794loPI   C4B12376   5.302  12.556   8.056 -0.0151 -0.0158 -0.3130
  795loPI    C112377   2.154   1.164   5.356 -0.0838 -0.0077 -0.0329
  795loPI    C212378   1.807   1.356   5.308 -0.1070 -0.0385  0.0114
  795loPI    C312379   2.152   1.555   5.275 -0.1292 -0.0045 -0.0161
  795loPI   PO412380   2.028   0.964   5.582 -0.0480 -0.1575 -0.1602
  795loPI   GL112381   1.958   1.073   6.097  0.1369 -0.0724  0.1390
  795loPI   GL212382   1.764   1.313   6.178  0.0879  0.5126 -0.3485
  795loPI   C1A12383   1.738   0.914   6.483  0.2545  0.1488  0.1999
  795loPI   C2A12384   1.656   0.918   6.861  0.0174 -0.1080  0.1175
  795loPI   C3A12385   1.543   0.846   7.320  0.0208  0.2344  0.0418
  795loPI   C4A12386   1.614   0.875   7.769  0.0535 -0.0266 -0.1678
  795loPI   C5A12387   1.569   0.783   8.165 -0.1622 -0.1043  0.1228
  795loPI   C6A12388   1.328   0.505   8.462 -0.0660  0.2553  0.0962
  795loPI   C1B12389   1.744   1.422   6.675 -0.0139  0.0524  0.0283
  795loPI   C2B12390   1.600   1.384   7.090  0.2118 -0.0743 -0.1259
  795loPI   C3B12391   1.669   1.307   7.457  0.0338  0.1271 -0.0394
  795loPI   C4B12392   1.693   1.322   7.850 -0.0443 -0.1379 -0.0456
  796loPI    C112393  10.070  11.738   5.398 -0.1974  0.0352  0.1073
  796loPI    C212394  10.030  12.065   5.171 -0.1288 -0.0174  0.0189
  796loPI    C312395  10.219  11.743   5.027  0.0131 -0.0122  0.1899
  796loPI   PO412396  10.080  11.772   5.710 -0.1102  0.2515 -0.0780
  796loPI   GL112397  10.139  11.457   5.886  0.1353 -0.2439 -0.3420
  796loPI   GL212398  10.420  11.267   5.935  0.0605 -0.1479 -0.2903
  796loPI   C1A12399  10.092  11.503   6.315  0.1424  0.0698  0.6288
  796loPI   C2A12400  10.134  11.431   6.664  0.1638 -0.1700  0.0365
  796loPI   C3A12401  10.219  11.428   7.023 -0.0304 -0.3364  0.0247
  796loPI   C4A12402  10.175  11.329   7.436 -0.3991 -0.2360  0.2067
  796loPI   C5A12403  10.286  11.306   7.829  0.2110 -0.2295 -0.0790
  796loPI   C6A12404  10.525  11.507   8.059  0.0150 -0.0394  0.0950
  796loPI   C1B12405  10.602  11.286   6.364 -0.2131  0.0785  0.3903
  796loPI   C2B12406  10.647  11.290   6.782 -0.1095  0.0246  0.0490
  796loPI   C3B12407  10.610  11.175   7.249 -0.0320  0.1042  0.0025
  796loPI   C4B12408  10.739  11.117   7.746 -0.2127 -0.0171 -0.1054
  797loPI    C112409   1.124  14.179   5.583  0.2676  0.0822 -0.2501
  797loPI    C212410   0.897  14.509   5.576 -0.0681 -0.1410 -0.1374
  797loPI    C312411   0.916  14.272   5.254 -0.2257 -0.2730 -0.0511
  797loPI   PO412412   1.069  14.094   5.812 -0.1605 -0.0005 -0.0121
  797loPI   GL112413   1.180  14.231   6.213  0.0730 -0.2424 -0.0347
  797loPI   GL212414   0.899  14.471   6.102  0.0009  0.0765  0.3987
  797loPI   C1A12415   1.149  14.273   6.657  0.0548 -0.0858  0.5580
  797loPI   C2A12416   1.165  14.354   7.143 -0.1748  0.2398 -0.0339
  797loPI   C3A12417   1.089  14.355   7.648  0.2626  0.3618 -0.0207
  797loPI   C4A12418   1.143  14.354   8.099 -0.3082  0.2460 -0.0978
  797loPI   C5A12419   1.487  14.157   8.455 -0.1419 -0.3027  0.0257
  797loPI   C6A12420   1.943  14.043   8.649  0.3886 -0.1124 -0.1158
  797loPI   C1B12421   0.717  14.533   6.481 -0.1805 -0.2817 -0.1322
  797loPI   C2B12422   0.679  14.619   6.875  0.4435  0.0131  0.0995
  797loPI   C3B12423   0.671  14.614   7.316 -0.0087  0.2521  0.2322
  797loPI   C4B12424   0.613  14.597   7.754 -0.1527 -0.2510 -0.2545
  798loPI    C112425   9.389  12.305   5.595  0.0201 -0.0062 -0.0988
  798loPI    C212426   9.269  12.584   5.335  0.2732  0.2267  0.0297
  798loPI    C312427   9.558  12.326   5.233 -0.2434 -0.2659 -0.2411
  798loPI   PO412428   9.350  12.411   5.790  0.1809  0.0004  0.1643
  798loPI   GL112429   9.599  12.673   5.962  0.0261 -0.0643 -0.0567
  798loPI   GL212430   9.710  12.437   6.084 -0.3044  0.1604 -0.0077
  798loPI   C1A12431   9.614  12.812   6.328  0.3371  0.1129 -0.2210
  798loPI   C2A12432   9.693  12.800   6.656  0.0557 -0.2670 -0.0686
  798loPI   C3A12433   9.747  12.742   7.109 -0.1399  0.1564  0.1136
  798loPI   C4A12434   9.759  12.709   7.527  0.1048  0.0272 -0.0462
  798loPI   C5A12435   9.646  12.683   7.983  0.0064 -0.1098  0.0837
  798loPI   C6A12436   9.353  12.538   8.311 -0.0172 -0.1256  0.0141
  798loPI   C1B12437   9.606  12.213   6.435  0.0763 -0.1142  0.0439
  798loPI   C2B12438   9.742  12.197   6.836  0.1128  0.1857  0.2449
  798loPI   C3B12439   9.755  12.131   7.274 -0.2316  0.0666 -0.1316
  798loPI   C4B12440   9.751  12.244   7.695 -0.0262 -0.1474 -0.1689
  799loPI    C112441  16.409   5.895   5.347  0.0297  0.0655 -0.0158
  799loPI    C212442  16.351   5.708   4.998  0.0059 -0.0786  0.0645
  799loPI    C312443  16.268   6.098   5.033  0.0920 -0.0433 -0.1148
  799loPI   PO412444  16.610   5.836   5.418 -0.0978 -0.1310  0.2027
  799loPI   GL112445  16.541   6.027   5.845 -0.0936 -0.0942  0.2180
  799loPI   GL212446  16.495   6.283   5.772  0.2862  0.1997 -0.4774
  799loPI   C1A12447  16.488   6.003   6.326 -0.2877 -0.1255  0.1147
  799loPI   C2A12448  16.524   5.930   6.869  0.1409  0.0937  0.1020
  799loPI   C3A12449  16.541   5.985   7.274 -0.0577  0.2864  0.1538
  799loPI   C4A12450  16.515   5.961   7.655  0.1439 -0.1792 -0.1260
  799loPI   C5A12451  16.354   5.731   7.966  0.0116 -0.2392 -0.1669
  799loPI   C6A12452  16.229   5.358   8.010 -0.1240  0.1378  0.1481
  799loPI   C1B12453  16.517   6.485   6.185  0.1838  0.0117  0.1948
  799loPI   C2B12454  16.533   6.455   6.725 -0.0811 -0.1420  0.3228
  799loPI   C3B12455  16.550   6.488   7.084 -0.2263 -0.0579  0.1124
  799loPI   C4B12456  16.506   6.518   7.436 -0.1056 -0.2031 -0.2288
  800loPI    C112457   9.749   8.192   5.482  0.3119  0.1010 -0.1197
  800loPI    C212458   9.750   8.451   5.786 -0.0415  0.0112 -0.0372
  800loPI    C312459   9.501   8.506   5.478 -0.1557 -0.2549  0.0053
  800loPI   PO412460   9.828   7.958   5.600 -0.1361 -0.0095 -0.0066
  800loPI   GL112461   9.822   8.018   6.020 -0.0604 -0.0369  0.3906
  800loPI   GL212462   9.903   8.308   6.218  0.1694 -0.0590 -0.0928
  800loPI   C1A12463  10.083   7.800   6.343  0.0760  0.2319  0.1203
  800loPI   C2A12464  10.174   7.842   6.780 -0.1450 -0.3166 -0.1801
  800loPI   C3A12465  10.170   7.797   7.178  0.2747 -0.0737  0.2407
  800loPI   C4A12466  10.056   7.844   7.612  0.2173  0.0475 -0.0819
  800loPI   C5A12467  10.327   7.776   8.019 -0.2810  0.0322  0.1028
  800loPI   C6A12468  10.339   7.682   8.412 -0.1660 -0.2786 -0.3773
  800loPI   C1B12469  10.174   8.370   6.572 -0.0062  0.1837  0.1318
  800loPI   C2B12470  10.134   8.303   6.959  0.1194 -0.1393  0.0597
  800loPI   C3B12471  10.110   8.331   7.423  0.1264 -0.1957  0.3014
  800loPI   C4B12472  10.214   8.361   7.879  0.1206 -0.3613 -0.1887
  801loPI    C112473  11.987  11.664   5.102  0.0806  0.0306 -0.0715
  801loPI    C212474  12.230  11.353   5.034 -0.3404 -0.3483  0.1079
  801loPI    C312475  11.994  11.490   4.742  0.1034  0.0454 -0.0782
  801loPI   PO412476  12.007  11.686   5.378  0.1333 -0.0255 -0.1786
  801loPI   GL112477  12.010  11.645   5.893 -0.0448  0.0806  0.1163
  801loPI   GL212478  12.286  11.871   6.002 -0.0307  0.0031 -0.1953
  801loPI   C1A12479  11.890  11.520   6.243  0.0798  0.0073 -0.1520
  801loPI   C2A12480  11.888  11.479   6.663 -0.0020  0.1551  0.2221
  801loPI   C3A12481  11.874  11.429   7.008 -0.3879 -0.0360  0.0157
  801loPI   C4A12482  11.904  11.578   7.565 -0.0939 -0.0450 -0.0205
  801loPI   C5A12483  11.933  11.480   7.945 -0.1306 -0.2556  0.0259
  801loPI   C6A12484  12.005  11.143   8.261 -0.1410 -0.2664  0.1184
  801loPI   C1B12485  12.346  11.734   6.366 -0.2947 -0.1803 -0.1538
  801loPI   C2B12486  12.329  11.789   6.735 -0.2252  0.0066 -0.0325
  801loPI   C3B12487  12.418  11.879   7.190  0.0649  0.0232  0.0143
  801loPI   C4B12488  12.410  11.793   7.603 -0.1484 -0.1967  0.1992
  802loPI    C112489  16.940  16.913   5.534  0.2167  0.0936 -0.0261
  802loPI    C212490  16.660  17.181   5.434  0.0529 -0.0156  0.1346
  802loPI    C312491  16.963  17.106   5.184 -0.0096  0.1724  0.0009
  802loPI   PO412492  16.967  16.931   5.789 -0.0617  0.0576 -0.1120
  802loPI   GL112493  16.970  16.719   6.109  0.2414  0.0815 -0.0962
  802loPI   GL212494  16.622  16.810   6.140  0.0080 -0.1675  0.2254
  802loPI   C1A12495  16.830  16.631   6.596 -0.2012  0.0206  0.0093
  802loPI   C2A12496  16.780  16.525   7.054  0.2460  0.0092  0.1873
  802loPI   C3A12497  16.787  16.568   7.440 -0.0029  0.2447 -0.0444
  802loPI   C4A12498  16.683  16.537   7.928  0.2380 -0.2460  0.0459
  802loPI   C5A12499  16.385  16.598   8.147  0.2756  0.1433 -0.0589
  802loPI   C6A12500  16.081  16.668   8.503 -0.0233  0.2510  0.0783
  802loPI   C1B12501  16.324  16.775   6.423 -0.1762 -0.2477 -0.3466
  802loPI   C2B12502  16.446  16.854   6.861  0.2238 -0.0171  0.0551
  802loPI   C3B12503  16.348  16.775   7.288 -0.1807 -0.0581  0.4172
  802loPI   C4B12504  16.378  16.936   7.694  0.0998 -0.3229  0.1559
  803loPI    C112505   5.912  15.099   5.631 -0.0808 -0.0151  0.0445
  803loPI    C212506   5.870  15.437   5.422  0.0350 -0.1060 -0.1288
  803loPI    C312507   5.977  15.100   5.236  0.0304 -0.2134  0.0609
  803loPI   PO412508   5.986  15.089   5.830  0.2682  0.1169  0.1697
  803loPI   GL112509   5.902  15.141   6.209 -0.0239 -0.1426 -0.1574
  803loPI   GL212510   5.601  14.929   6.173 -0.1077  0.1908  0.2697
  803loPI   C1A12511   6.034  15.170   6.614  0.1804  0.0132 -0.0377
  803loPI   C2A12512   5.997  15.196   7.046  0.0714 -0.1285 -0.2536
  803loPI   C3A12513   6.114  15.206   7.358 -0.0474  0.2360 -0.2860
  803loPI   C4A12514   6.177  15.114   7.834  0.0834 -0.0096  0.3480
  803loPI   C5A12515   6.065  14.953   8.291 -0.3220  0.0178 -0.0704
  803loPI   C6A12516   6.287  14.709   8.525 -0.1736 -0.0750  0.1294
  803loPI   C1B12517   5.596  14.865   6.644 -0.1049 -0.0211  0.0069
  803loPI   C2B12518   5.573  14.920   7.055  0.2174 -0.0604 -0.0167
  803loPI   C3B12519   5.688  14.920   7.410 -0.2698 -0.2736  0.0348
  803loPI   C4B12520   5.751  14.851   7.885  0.0174 -0.0766  0.0891
  804loPI    C112521   1.770   4.521   5.565 -0.0617  0.2198 -0.0142
  804loPI    C212522   1.983   4.415   5.243 -0.1405 -0.0332  0.0152
  804loPI    C312523   1.658   4.205   5.346 -0.2680  0.2065  0.1082
  804loPI   PO412524   1.821   4.532   5.737 -0.3004  0.1746  0.3177
  804loPI   GL112525   1.650   4.573   6.129 -0.0639 -0.1159  0.0667
  804loPI   GL212526   1.818   4.795   6.319 -0.1718  0.2551 -0.2522
  804loPI   C1A12527   1.495   4.429   6.539  0.1897 -0.1416  0.1310
  804loPI   C2A12528   1.374   4.481   6.902  0.0267 -0.0162  0.1687
  804loPI   C3A12529   1.330   4.471   7.363 -0.2873  0.0170  0.1104
  804loPI   C4A12530   1.326   4.560   7.819 -0.4280  0.2005  0.3386
  804loPI   C5A12531   1.544   4.854   8.100  0.2179 -0.0841  0.2134
  804loPI   C6A12532   1.802   4.649   8.397 -0.0619 -0.2188 -0.2581
  804loPI   C1B12533   1.552   4.911   6.499 -0.0465  0.1950  0.2557
  804loPI   C2B12534   1.281   4.969   6.836  0.2597  0.1752 -0.0126
  804loPI   C3B12535   1.355   5.101   7.154 -0.1044 -0.0679 -0.2430
  804loPI   C4B12536   1.423   5.030   7.570  0.3053  0.1779 -0.1273
  805loPI    C112537  13.908  14.735   5.360 -0.0839  0.1997  0.0941
  805loPI    C212538  13.652  14.570   5.101 -0.0448  0.3523 -0.0439
  805loPI    C312539  13.970  14.362   5.228 -0.2284  0.1665  0.1191
  805loPI   PO412540  13.841  14.845   5.574  0.1339  0.4344 -0.0154
  805loPI   GL112541  13.950  14.918   5.977  0.0570 -0.0367 -0.3080
  805loPI   GL212542  14.013  14.575   5.969  0.0810  0.2301 -0.0248
  805loPI   C1A12543  14.061  15.003   6.381  0.2993  0.0298  0.1431
  805loPI   C2A12544  14.147  14.951   6.736 -0.2487  0.0259 -0.0474
  805loPI   C3A12545  14.122  14.950   7.077  0.1060  0.0601 -0.0868
  805loPI   C4A12546  14.089  14.854   7.475  0.3719 -0.0884  0.3834
  805loPI   C5A12547  14.017  14.816   7.915  0.2502  0.2939  0.0775
  805loPI   C6A12548  13.877  14.807   8.414  0.2376  0.4774  0.0553
  805loPI   C1B12549  14.011  14.471   6.361 -0.0617  0.0001 -0.2748
  805loPI   C2B12550  14.164  14.434   6.763  0.2277  0.0690 -0.5114
  805loPI   C3B12551  14.158  14.420   7.177  0.0430  0.0956  0.0188
  805loPI   C4B12552  14.216  14.236   7.645 -0.0334  0.0918 -0.1017
  806loPI    C112553   1.559  15.265   5.879 -0.2524 -0.0581  0.2088
  806loPI    C212554   1.711  14.926   6.027  0.0378  0.0246  0.1085
  806loPI    C312555   1.672  14.972   5.632 -0.0671  0.0818  0.1251
  806loPI   PO412556   1.437  15.370   6.062  0.4255 -0.1356  0.1754
  806loPI   GL112557   1.334  15.087   6.382 -0.0126 -0.0357  0.1825
  806loPI   GL212558   1.234  14.852   6.284  0.1396  0.1713  0.1514
  806loPI   C1A12559   1.552  15.003   6.696  0.2967  0.2953  0.2248
  806loPI   C2A12560   1.528  15.135   7.155  0.0556 -0.0404  0.3486
  806loPI   C3A12561   1.524  15.172   7.638 -0.0637 -0.2126  0.0352
  806loPI   C4A12562   1.634  15.122   8.018 -0.2952  0.0826  0.2786
  806loPI   C5A12563   1.954  15.008   8.306  0.0730 -0.0631 -0.0527
  806loPI   C6A12564   2.091  15.237   8.570 -0.3482  0.0091 -0.1011
  806loPI   C1B12565   1.085  14.769   6.627 -0.0154  0.1389  0.0495
  806loPI   C2B12566   1.088  14.860   7.077  0.1010 -0.2023 -0.0844
  806loPI   C3B12567   1.197  14.806   7.475 -0.2634  0.0791 -0.0926
  806loPI   C4B12568   1.113  14.924   7.939 -0.1903 -0.1071 -0.0939
  807loPI    C112569   5.361   6.015   5.886 -0.1920  0.1259  0.1600
  807loPI    C212570   5.281   5.625   5.846 -0.0725  0.0944  0.2248
  807loPI    C312571   5.317   5.856   5.521  0.2809 -0.0355  0.1669
  807loPI   PO412572   5.491   6.071   6.118  0.0197  0.2367  0.1470
  807loPI   GL112573   5.418   6.053   6.450 -0.0937  0.3406  0.1493
  807loPI   GL212574   5.528   6.068   6.695  0.3818  0.2752 -0.1781
  807loPI   C1A12575   5.030   6.089   6.848 -0.2246 -0.0590 -0.0656
  807loPI   C2A12576   4.737   5.861   7.191  0.2430  0.0446 -0.0169
  807loPI   C3A12577   4.544   5.748   7.613 -0.0702 -0.1787  0.4146
  807loPI   C4A12578   4.507   5.791   8.036 -0.2209 -0.0293 -0.0860
  807loPI   C5A12579   4.374   5.828   8.483 -0.2567  0.0324  0.0608
  807loPI   C6A12580   3.993   5.926   8.689 -0.1116  0.3403 -0.0760
  807loPI   C1B12581   5.497   6.183   7.107 -0.1605  0.1176  0.0113
  807loPI   C2B12582   5.244   6.126   7.505  0.0842  0.1730  0.0180
  807loPI   C3B12583   5.054   5.873   7.898  0.0915  0.0188 -0.2279
  807loPI   C4B12584   4.852   5.704   8.342 -0.0822  0.1635 -0.2161
  808loPI    C112585   2.118   9.997   5.689 -0.1208  0.2914 -0.0689
  808loPI    C212586   2.272  10.036   5.322  0.0170 -0.0597 -0.0522
  808loPI    C312587   2.032  10.320   5.469  0.0516  0.1382 -0.3680
  808loPI   PO412588   2.276   9.845   5.889 -0.1212  0.2644  0.2210
  808loPI   GL112589   2.061   9.421   6.027  0.2339 -0.1136 -0.3895
  808loPI   GL212590   2.323   9.265   5.883  0.0321 -0.0840  0.0150
  808loPI   C1A12591   2.125   9.539   6.454  0.0415 -0.2686 -0.0610
  808loPI   C2A12592   2.167   9.584   6.846  0.1526  0.3776 -0.1700
  808loPI   C3A12593   2.136   9.684   7.229 -0.0367  0.2164 -0.0799
  808loPI   C4A12594   2.207   9.757   7.660 -0.2009 -0.3158 -0.1119
  808loPI   C5A12595   2.250   9.796   8.143  0.0149  0.3070 -0.3854
  808loPI   C6A12596   1.873   9.708   8.351 -0.0537 -0.3279  0.0161
  808loPI   C1B12597   2.594   9.383   6.223  0.0867  0.1379  0.1672
  808loPI   C2B12598   2.598   9.268   6.643 -0.3605  0.1162 -0.1204
  808loPI   C3B12599   2.567   9.339   7.111 -0.0065  0.2002 -0.0373
  808loPI   C4B12600   2.681   9.455   7.558 -0.4215 -0.2764 -0.3358
  809loPI    C112601  14.666  11.023   5.240  0.3466  0.1731 -0.1296
  809loPI    C212602  14.417  11.160   4.959 -0.0656 -0.1440  0.0707
  809loPI    C312603  14.596  11.416   5.208 -0.3656  0.0763  0.0657
  809loPI   PO412604  14.545  10.894   5.407 -0.1901 -0.0890  0.0931
  809loPI   GL112605  14.451  10.813   5.720  0.0673 -0.4857  0.1453
  809loPI   GL212606  14.266  11.050   5.860 -0.0688  0.2908 -0.0849
  809loPI   C1A12607  14.318  10.450   6.005  0.0089  0.2286  0.1894
  809loPI   C2A12608  14.305  10.382   6.458  0.0255 -0.3373 -0.2656
  809loPI   C3A12609  14.188  10.224   6.850  0.0056 -0.1625 -0.0083
  809loPI   C4A12610  14.264  10.235   7.352 -0.0183 -0.0632  0.1555
  809loPI   C5A12611  14.191  10.308   7.737 -0.0579  0.1153  0.0634
  809loPI   C6A12612  14.090  10.544   8.053 -0.0839 -0.1739  0.1106
  809loPI   C1B12613  14.246  10.856   6.328 -0.2154 -0.1139  0.0801
  809loPI   C2B12614  14.207  10.797   6.796  0.0927 -0.1052  0.1944
  809loPI   C3B12615  14.183  10.675   7.135  0.1342 -0.0500 -0.0259
  809loPI   C4B12616  14.258  10.726   7.562  0.0540 -0.4484  0.0898
  810loPI    C112617  17.041   6.064   5.132 -0.0191 -0.0292  0.2101
  810loPI    C212618  16.831   5.775   4.952 -0.1242  0.1373  0.0616
  810loPI    C312619  16.754   6.158   4.870  0.3495  0.1999 -0.1208
  810loPI   PO412620  17.056   6.089   5.434  0.2552  0.0312 -0.2230
  810loPI   GL112621  17.012   6.157   5.821 -0.0280 -0.0216 -0.1682
  810loPI   GL212622  16.983   5.825   5.943  0.2111 -0.0232 -0.1091
  810loPI   C1A12623  16.913   6.213   6.213 -0.0293 -0.0651  0.1741
  810loPI   C2A12624  16.967   6.168   6.593 -0.0785  0.0320  0.0097
  810loPI   C3A12625  17.023   6.291   7.009  0.1501 -0.1037  0.1070
  810loPI   C4A12626  17.016   6.225   7.452 -0.0005  0.0574  0.0174
  810loPI   C5A12627  16.912   6.130   7.864 -0.0312 -0.1090  0.4757
  810loPI   C6A12628  16.804   5.878   8.255 -0.3580 -0.2686  0.2472
  810loPI   C1B12629  16.944   5.720   6.418 -0.1040  0.1563 -0.1032
  810loPI   C2B12630  17.004   5.733   6.898  0.3982  0.1900  0.1131
  810loPI   C3B12631  16.950   5.758   7.311 -0.0851 -0.1184 -0.3602
  810loPI   C4B12632  16.949   5.622   7.727 -0.0022 -0.0400  0.0283
  811loPI    C112633  11.918   1.974   5.412 -0.0316  0.3406 -0.3032
  811loPI    C212634  12.241   1.981   5.176  0.0781  0.0668 -0.1669
  811loPI    C312635  12.012   1.654   5.191  0.1603  0.0226  0.2195
  811loPI   PO412636  12.007   1.947   5.658 -0.1461 -0.0727 -0.2963
  811loPI   GL112637  11.888   1.773   6.032 -0.1746  0.1902  0.1753
  811loPI   GL212638  12.124   1.587   6.261  0.0320  0.2358 -0.2242
  811loPI   C1A12639  11.751   1.891   6.465 -0.0704 -0.4698  0.1031
  811loPI   C2A12640  11.699   1.867   6.931  0.0928  0.1859 -0.1780
  811loPI   C3A12641  11.799   1.762   7.363 -0.3428  0.0704  0.0094
  811loPI   C4A12642  11.762   1.700   7.837 -0.1421 -0.2798  0.2680
  811loPI   C5A12643  11.781   1.509   8.273 -0.0238 -0.2820  0.3232
  811loPI   C6A12644  11.921   1.226   8.569  0.1924  0.1167 -0.2403
  811loPI   C1B12645  12.132   1.699   6.723 -0.1905  0.0653 -0.0423
  811loPI   C2B12646  12.225   1.582   7.163 -0.0811 -0.0009 -0.2472
  811loPI   C3B12647  12.253   1.506   7.563 -0.1836 -0.2491 -0.3216
  811loPI   C4B12648  12.170   1.474   8.021  0.1437 -0.1499 -0.0722
  812loPI    C112649  13.051  17.437   5.512 -0.1362  0.0187  0.1106
  812loPI    C212650  12.747  17.381   5.258 -0.0682 -0.0331  0.0400
  812loPI    C312651  13.124  17.343   5.130 -0.0295  0.1246  0.1042
  812loPI   PO412652  12.952  17.331   5.744  0.0391  0.2817  0.2880
  812loPI   GL112653  13.215  17.302   6.104  0.0025  0.3640  0.1176
  812loPI   GL212654  13.207  16.981   6.240  0.0491 -0.1503  0.0701
  812loPI   C1A12655  13.118  17.536   6.553 -0.3673  0.1524  0.0151
  812loPI   C2A12656  13.111  17.449   6.933 -0.0068  0.0173 -0.1005
  812loPI   C3A12657  13.187  17.473   7.255 -0.5726  0.2792  0.4769
  812loPI   C4A12658  13.187  17.483   7.698 -0.3182 -0.0456  0.0835
  812loPI   C5A12659  13.204  17.491   8.123 -0.0241 -0.2928 -0.1975
  812loPI   C6A12660  13.136  17.296   8.578 -0.0447 -0.0187  0.2197
  812loPI   C1B12661  13.153  16.923   6.684  0.0606  0.3342 -0.2664
  812loPI   C2B12662  13.165  16.963   7.095  0.1605  0.2090  0.0227
  812loPI   C3B12663  13.297  16.957   7.582  0.1705 -0.2492  0.0013
  812loPI   C4B12664  13.208  16.850   8.020  0.1010 -0.5577  0.2938
  813loPI    C112665  10.961   9.576   5.435 -0.1517  0.0845 -0.2540
  813loPI    C212666  10.764   9.285   5.244 -0.4403  0.0590  0.0728
  813loPI    C312667  10.565   9.543   5.475 -0.1005  0.0857  0.3456
  813loPI   PO412668  11.141   9.471   5.570 -0.0258 -0.0947 -0.4090
  813loPI   GL112669  11.050   9.540   6.001 -0.0508 -0.0511  0.1802
  813loPI   GL212670  11.307   9.664   6.169  0.2197 -0.0928 -0.0092
  813loPI   C1A12671  11.037   9.393   6.490  0.2146 -0.1275 -0.0767
  813loPI   C2A12672  11.061   9.394   6.900 -0.3534 -0.1376  0.5305
  813loPI   C3A12673  11.092   9.391   7.305  0.2865  0.2233 -0.1949
  813loPI   C4A12674  11.105   9.499   7.731 -0.2992  0.0603 -0.0871
  813loPI   C5A12675  11.021   9.842   8.068 -0.1229 -0.1525  0.0260
  813loPI   C6A12676  10.914   9.862   8.522  0.0071 -0.3940  0.2833
  813loPI   C1B12677  11.473   9.686   6.551 -0.2024  0.0984 -0.0193
  813loPI   C2B12678  11.505   9.648   7.085  0.0816 -0.0586 -0.0685
  813loPI   C3B12679  11.528   9.698   7.517 -0.0111  0.1842 -0.3006
  813loPI   C4B12680  11.514   9.778   7.918  0.1407 -0.0529 -0.2352
  814loPI    C112681   1.154  15.024   5.518  0.0968 -0.1112 -0.2226
  814loPI    C212682   1.318  15.379   5.438  0.1335 -0.0472  0.1207
  814loPI    C312683   0.983  15.267   5.250  0.0711  0.2067  0.0759
  814loPI   PO412684   1.157  14.933   5.733  0.3191 -0.4301 -0.3138
  814loPI   GL112685   0.751  14.959   6.104 -0.2826 -0.5593 -0.0535
  814loPI   GL212686   0.829  15.136   6.256  0.1863 -0.1786  0.0512
  814loPI   C1A12687   0.386  14.903   6.349 -0.4209 -0.1861 -0.0461
  814loPI   C2A12688   0.264  14.743   6.701 -0.0999 -0.1781 -0.0011
  814loPI   C3A12689   0.282  14.937   7.072 -0.2427  0.0674  0.3326
  814loPI   C4A12690   0.186  14.841   7.479 -0.1766  0.0383 -0.0039
  814loPI   C5A12691   0.228  14.871   7.925 -0.1101  0.0475 -0.0370
  814loPI   C6A12692   0.255  14.838   8.350 -0.3842  0.2852  0.0054
  814loPI   C1B12693   0.715  15.085   6.714 -0.2308  0.1755 -0.2545
  814loPI   C2B12694   0.688  15.133   7.180 -0.1916  0.1264  0.2462
  814loPI   C3B12695   0.640  15.102   7.546  0.1902 -0.0109 -0.0309
  814loPI   C4B12696   0.591  15.220   7.968  0.0514 -0.1519 -0.0655
  815loPI    C112697   4.330  11.006   5.427 -0.0608 -0.1075 -0.0943
  815loPI    C212698   4.470  10.703   5.206  0.0959 -0.1626  0.0775
  815loPI    C312699   4.190  10.947   5.058  0.0747 -0.3027 -0.1163
  815loPI   PO412700   4.233  10.902   5.630  0.1203  0.2188  0.0451
  815loPI   GL112701   4.268  10.900   6.159 -0.0042  0.0128  0.1734
  815loPI   GL212702   4.602  10.901   6.227 -0.0895 -0.1959 -0.0364
  815loPI   C1A12703   4.285  11.048   6.608  0.5134 -0.0667 -0.2740
  815loPI   C2A12704   4.379  11.016   7.037 -0.3225 -0.2145 -0.0840
  815loPI   C3A12705   4.342  10.998   7.542  0.1759 -0.1523 -0.0195
  815loPI   C4A12706   4.432  10.963   8.040 -0.1973 -0.0123  0.0869
  815loPI   C5A12707   4.462  11.372   8.283  0.4521 -0.0014  0.1297
  815loPI   C6A12708   4.590  11.700   8.611  0.2382 -0.0558 -0.3136
  815loPI   C1B12709   4.632  10.728   6.560  0.0824  0.2117 -0.4038
  815loPI   C2B12710   4.820  10.804   6.978  0.0692 -0.0293  0.1332
  815loPI   C3B12711   4.837  10.768   7.423  0.0698 -0.0956  0.2635
  815loPI   C4B12712   4.820  10.753   7.760  0.1796  0.1075 -0.2060
  816loPI    C112713  16.432   0.237   5.426 -0.1432 -0.0844 -0.1247
  816loPI    C212714  16.739   0.236   5.170 -0.0516 -0.1027 -0.0154
  816loPI    C312715  16.405   0.437   5.080 -0.0900 -0.2589 -0.2315
  816loPI   PO412716  16.527   0.257   5.658 -0.0990 -0.2428 -0.3020
  816loPI   GL112717  16.753   0.200   6.103  0.1507 -0.0755  0.2667
  816loPI   GL212718  16.865  -0.092   6.075 -0.1347 -0.1896 -0.2957
  816loPI   C1A12719  16.787   0.305   6.525  0.0326  0.0778  0.0328
  816loPI   C2A12720  16.762   0.276   7.052 -0.0906  0.3300  0.0176
  816loPI   C3A12721  16.729   0.226   7.500  0.1899 -0.1078  0.3120
  816loPI   C4A12722  16.763   0.215   7.841 -0.1323  0.2625 -0.3968
  816loPI   C5A12723  16.653   0.056   8.186  0.0764  0.1292  0.1741
  816loPI   C6A12724  16.375   0.187   8.450 -0.0080  0.0556 -0.1142
  816loPI   C1B12725  16.899  -0.264   6.524  0.2360 -0.0881 -0.0046
  816loPI   C2B12726  16.781  -0.306   6.916 -0.0752  0.1368 -0.2042
  816loPI   C3B12727  16.787  -0.277   7.389  0.2057  0.0486  0.0228
  816loPI   C4B12728  16.675  -0.230   7.735 -0.0266  0.0669 -0.3650
  817loPI    C112729  14.494  17.570   5.531  0.0793 -0.0065  0.1168
  817loPI    C212730  14.664  17.330   5.259 -0.0193 -0.1823  0.2088
  817loPI    C312731  14.278  17.431   5.224  0.0112 -0.0694  0.1929
  817loPI   PO412732  14.502  17.478   5.786 -0.0864  0.0694  0.3998
  817loPI   GL112733  14.798  17.210   6.023  0.1655 -0.1934  0.5162
  817loPI   GL212734  15.115  17.082   6.144  0.0963  0.0292  0.1381
  817loPI   C1A12735  14.483  17.318   6.433  0.1639  0.1651 -0.4564
  817loPI   C2A12736  14.485  17.283   6.878  0.1189  0.1380 -0.1185
  817loPI   C3A12737  14.533  17.169   7.338 -0.0944  0.0514  0.2189
  817loPI   C4A12738  14.565  17.140   7.794  0.1797 -0.2338  0.1481
  817loPI   C5A12739  14.834  17.172   8.117 -0.2046 -0.1221  0.1451
  817loPI   C6A12740  14.960  16.839   8.325 -0.0152  0.0109  0.2167
  817loPI   C1B12741  14.893  17.062   6.470 -0.1186 -0.0773 -0.0680
  817loPI   C2B12742  14.927  17.079   7.033  0.1072 -0.2036  0.0791
  817loPI   C3B12743  15.033  17.008   7.402  0.0002 -0.3958 -0.0113
  817loPI   C4B12744  15.052  16.885   7.749  0.0354  0.1793  0.1751
  818loPI    C112745  17.872   3.718   5.740 -0.1880  0.0775  0.0562
  818loPI    C212746  17.710   3.690   5.376  0.0273  0.0805 -0.0409
  818loPI    C312747  17.925   4.013   5.475 -0.1947  0.1698  0.1569
  818loPI   PO412748  17.941   3.393   5.895  0.0125  0.0551 -0.2628
  818loPI   GL112749  18.029   3.102   6.201 -0.2302 -0.1219  0.0504
  818loPI   GL212750  18.045   2.750   6.048 -0.0878  0.3224 -0.1116
  818loPI   C1A12751  17.875   3.229   6.523 -0.1514 -0.5050 -0.0328
  818loPI   C2A12752  17.984   3.250   6.883 -0.1306 -0.3260 -0.1329
  818loPI   C3A12753  17.977   3.096   7.229 -0.0987 -0.2122 -0.1267
  818loPI   C4A12754  18.001   3.006   7.673  0.0687  0.2271  0.0081
  818loPI   C5A12755  18.062   2.883   8.157  0.1880  0.0607  0.0175
  818loPI   C6A12756  18.060   2.867   8.564  0.1279 -0.0791  0.1914
  818loPI   C1B12757  18.036   2.697   6.444  0.0777  0.1657 -0.0694
  818loPI   C2B12758  17.947   2.682   6.894  0.1350  0.1163 -0.0165
  818loPI   C3B12759  17.942   2.583   7.329  0.0562  0.0243  0.1210
  818loPI   C4B12760  17.964   2.532   7.698 -0.1441  0.1941  0.4516
  819loPI    C112761   9.149   3.422   5.861  0.0926  0.2090 -0.1825
  819loPI    C212762   9.108   3.166   5.557 -0.0501 -0.0196  0.0247
  819loPI    C312763   9.323   3.500   5.510  0.0531 -0.1251 -0.2802
  819loPI   PO412764   9.273   3.299   6.126  0.3534  0.0661 -0.1653
  819loPI   GL112765   9.598   3.250   6.398  0.1350  0.1880 -0.3506
  819loPI   GL212766   9.488   3.574   6.542  0.2930 -0.0025 -0.0076
  819loPI   C1A12767   9.776   3.306   6.877  0.2450 -0.1717  0.0765
  819loPI   C2A12768   9.869   3.350   7.350 -0.0425 -0.0932 -0.0598
  819loPI   C3A12769   9.733   3.684   7.633  0.0186 -0.0107 -0.1676
  819loPI   C4A12770   9.851   4.014   8.048 -0.1382  0.2450  0.3407
  819loPI   C5A12771   9.879   4.367   8.269  0.0933  0.2282 -0.1681
  819loPI   C6A12772   9.666   4.802   8.472 -0.2669  0.2808 -0.1766
  819loPI   C1B12773   9.342   3.667   6.906  0.0616 -0.3017  0.0653
  819loPI   C2B12774   9.673   3.746   7.124  0.2584 -0.0788 -0.0163
  819loPI   C3B12775   9.817   4.151   7.430 -0.4030 -0.1104 -0.2790
  819loPI   C4B12776   9.899   4.449   7.643 -0.4496  0.1626 -0.3714
  820loPI    C112777   7.583   9.367   5.384  0.1671 -0.1471  0.0193
  820loPI    C212778   7.777   9.607   5.129 -0.2295  0.1564 -0.0076
  820loPI    C312779   7.678   9.235   5.019  0.1479  0.0682 -0.0650
  820loPI   PO412780   7.384   9.499   5.476  0.2240 -0.0062 -0.1063
  820loPI   GL112781   7.478   9.473   5.944  0.0758 -0.0637  0.3095
  820loPI   GL212782   7.180   9.434   5.936  0.0553  0.0040 -0.1540
  820loPI   C1A12783   7.635   9.452   6.378 -0.2084  0.1205  0.2533
  820loPI   C2A12784   7.795   9.500   6.748  0.1760 -0.0223  0.0529
  820loPI   C3A12785   7.911   9.490   7.243  0.3206 -0.0124  0.0113
  820loPI   C4A12786   7.884   9.554   7.592 -0.3237  0.1486 -0.3835
  820loPI   C5A12787   7.939   9.563   8.008  0.1357  0.0118  0.1219
  820loPI   C6A12788   8.037   9.307   8.449 -0.3186 -0.0899  0.0135
  820loPI   C1B12789   7.136   9.444   6.332 -0.1325 -0.1860 -0.0898
  820loPI   C2B12790   7.064   9.326   6.684  0.0903  0.0224 -0.1204
  820loPI   C3B12791   7.078   9.448   7.116 -0.0303 -0.0047 -0.1528
  820loPI   C4B12792   7.121   9.533   7.557 -0.1887  0.0797 -0.1373
  821loPI    C112793  15.724  16.339   5.531 -0.0291 -0.0005 -0.1320
  821loPI    C212794  16.029  16.523   5.350 -0.1218  0.1255 -0.1610
  821loPI    C312795  15.950  16.140   5.267  0.0863  0.0639 -0.0822
  821loPI   PO412796  15.660  16.494   5.730  0.2473  0.0620 -0.2622
  821loPI   GL112797  15.718  16.452   6.122 -0.3518 -0.2388 -0.3703
  821loPI   GL212798  15.689  16.122   6.034 -0.0143  0.0428  0.2890
  821loPI   C1A12799  15.942  16.488   6.464 -0.1509  0.0827 -0.1064
  821loPI   C2A12800  15.998  16.606   6.917 -0.0447  0.4043  0.0296
  821loPI   C3A12801  15.931  16.465   7.330  0.0135 -0.1888 -0.0426
  821loPI   C4A12802  15.967  16.587   7.819 -0.2241 -0.1509  0.0314
  821loPI   C5A12803  15.861  16.380   8.120  0.0318  0.2536 -0.0673
  821loPI   C6A12804  15.722  16.251   8.499  0.0717  0.0230 -0.0111
  821loPI   C1B12805  15.517  16.158   6.423  0.1505 -0.1519  0.0805
  821loPI   C2B12806  15.515  16.325   6.766  0.1068  0.2967 -0.1315
  821loPI   C3B12807  15.482  16.286   7.203 -0.1072  0.3237  0.0564
  821loPI   C4B12808  15.437  16.135   7.647 -0.2258 -0.0823  0.0844
  822loPI    C112809  10.328   3.506   5.538 -0.0995 -0.0933  0.0130
  822loPI    C212810  10.323   3.286   5.204  0.0044 -0.1209  0.0294
  822loPI    C312811  10.484   3.652   5.201  0.1240 -0.1726  0.0805
  822loPI   PO412812  10.086   3.521   5.733  0.0991 -0.1109 -0.3444
  822loPI   GL112813   9.968   3.202   6.057 -0.1165 -0.2394  0.1050
  822loPI   GL212814  10.006   3.570   6.270  0.1028  0.0002 -0.0636
  822loPI   C1A12815  10.085   3.147   6.486  0.4695 -0.1686 -0.5046
  822loPI   C2A12816  10.239   3.131   6.919 -0.1189  0.4056  0.0844
  822loPI   C3A12817  10.318   3.080   7.207  0.1495 -0.0511 -0.1186
  822loPI   C4A12818  10.361   3.160   7.702  0.1007  0.0018  0.1621
  822loPI   C5A12819  10.514   2.909   8.036 -0.1932 -0.1412  0.3722
  822loPI   C6A12820  10.496   2.638   8.317  0.0527 -0.0877  0.0014
  822loPI   C1B12821  10.104   3.631   6.615  0.1410  0.2061  0.1845
  822loPI   C2B12822  10.181   3.706   7.065 -0.0688 -0.0515 -0.0323
  822loPI   C3B12823  10.233   3.674   7.504 -0.3158  0.1806 -0.2065
  822loPI   C4B12824  10.201   3.655   7.899 -0.0041 -0.1751  0.3527
  823loPI    C112825   4.905   4.793   6.147 -0.0577 -0.1183 -0.0502
  823loPI    C212826   5.235   4.730   6.364  0.1069 -0.2511 -0.3328
  823loPI    C312827   5.088   4.437   6.135 -0.0600 -0.1114 -0.4064
  823loPI   PO412828   4.762   4.900   6.332 -0.1853 -0.1968 -0.1818
  823loPI   GL112829   4.813   5.042   6.760  0.2092  0.1923 -0.1266
  823loPI   GL212830   5.212   5.155   6.758  0.0021  0.4109 -0.0968
  823loPI   C1A12831   4.544   4.754   6.905  0.2488  0.0581  0.1072
  823loPI   C2A12832   4.247   4.543   7.170  0.2540  0.1299 -0.3761
  823loPI   C3A12833   4.278   4.727   7.631 -0.3336  0.0188 -0.0791
  823loPI   C4A12834   4.382   4.689   8.083 -0.0170 -0.1272  0.1728
  823loPI   C5A12835   4.173   4.366   8.445  0.0052 -0.2652  0.2175
  823loPI   C6A12836   4.239   3.993   8.707 -0.0473 -0.2401 -0.1271
  823loPI   C1B12837   5.172   5.157   7.189  0.1234  0.2171 -0.0425
  823loPI   C2B12838   5.120   4.918   7.586  0.0835  0.0768 -0.0918
  823loPI   C3B12839   4.822   4.935   7.958 -0.3468  0.2049 -0.1419
  823loPI   C4B12840   5.045   4.621   8.249 -0.0691  0.0703  0.1711
  824loPI    C112841   3.874   3.188   6.521 -0.2743  0.1168  0.1655
  824loPI    C212842   4.034   3.073   6.869 -0.1298  0.1505  0.1112
  824loPI    C312843   3.958   3.460   6.802 -0.1573  0.1440  0.1048
  824loPI   PO412844   3.720   3.000   6.443 -0.1350 -0.2893  0.1342
  824loPI   GL112845   3.544   2.675   6.742 -0.0174  0.1672 -0.1170
  824loPI   GL212846   3.249   2.710   6.705  0.0808  0.4241  0.3655
  824loPI   C1A12847   3.702   2.738   7.094  0.0920 -0.0149 -0.1667
  824loPI   C2A12848   4.089   2.725   7.307  0.3599  0.0620  0.0077
  824loPI   C3A12849   4.227   2.928   7.678  0.1404  0.3032  0.1219
  824loPI   C4A12850   4.123   3.261   7.919 -0.1479  0.2012  0.0933
  824loPI   C5A12851   4.148   3.430   8.274 -0.1208 -0.3586 -0.1814
  824loPI   C6A12852   4.484   3.525   8.555 -0.0578  0.1684  0.2509
  824loPI   C1B12853   3.168   2.692   7.132  0.0511  0.1422  0.1111
  824loPI   C2B12854   3.249   2.989   7.377  0.2920 -0.1461 -0.2416
  824loPI   C3B12855   3.190   3.160   7.819 -0.0185 -0.2985 -0.0644
  824loPI   C4B12856   3.096   3.260   8.280  0.1561  0.0204  0.0547
  825loPI    C112857  13.037  12.286   5.333  0.1058  0.1288 -0.0273
  825loPI    C212858  12.722  12.473   5.173 -0.0821 -0.1974 -0.0465
  825loPI    C312859  13.001  12.312   4.936 -0.0163 -0.1036 -0.0332
  825loPI   PO412860  12.979  12.225   5.623 -0.0847 -0.2744  0.1675
  825loPI   GL112861  12.800  12.321   6.103 -0.0702 -0.1338 -0.1081
  825loPI   GL212862  12.851  12.000   6.135  0.1488 -0.0878 -0.1625
  825loPI   C1A12863  12.833  12.627   6.450  0.0086  0.0786 -0.1885
  825loPI   C2A12864  12.796  12.593   6.881 -0.1289  0.1908 -0.3092
  825loPI   C3A12865  12.764  12.562   7.236  0.0355  0.2768 -0.0869
  825loPI   C4A12866  12.814  12.585   7.679  0.1585 -0.1813  0.1487
  825loPI   C5A12867  12.862  12.869   7.972 -0.2516  0.0012 -0.0307
  825loPI   C6A12868  12.925  13.241   7.964 -0.0789  0.0248  0.0308
  825loPI   C1B12869  12.900  12.069   6.525 -0.3988 -0.1487 -0.2248
  825loPI   C2B12870  12.938  12.043   6.968 -0.2924  0.1838 -0.2725
  825loPI   C3B12871  12.830  12.101   7.368  0.0359 -0.1685 -0.1964
  825loPI   C4B12872  12.827  12.066   7.763  0.0828 -0.1316  0.0622
  826loPI    C112873  17.256   1.770   5.474 -0.0007  0.1747 -0.1014
  826loPI    C212874  17.379   1.487   5.220 -0.0697 -0.1360  0.2037
  826loPI    C312875  17.088   1.739   5.112 -0.1655 -0.3264  0.0094
  826loPI   PO412876  17.301   1.620   5.710  0.2883 -0.3784  0.1848
  826loPI   GL112877  17.437   1.627   6.087 -0.0090 -0.1016  0.1591
  826loPI   GL212878  17.697   1.518   6.153 -0.1083 -0.0752  0.1137
  826loPI   C1A12879  17.606   1.847   6.452 -0.0537  0.0335 -0.0301
  826loPI   C2A12880  17.652   1.797   6.836 -0.3705  0.0869  0.0643
  826loPI   C3A12881  17.551   1.855   7.208 -0.0645  0.1782 -0.3943
  826loPI   C4A12882  17.481   1.827   7.651  0.0233 -0.1717 -0.0180
  826loPI   C5A12883  17.466   1.830   8.040 -0.1456 -0.0512 -0.0403
  826loPI   C6A12884  17.868   1.924   8.209 -0.1566  0.0947  0.2903
  826loPI   C1B12885  17.585   1.343   6.522  0.0123 -0.2891 -0.1022
  826loPI   C2B12886  17.593   1.239   6.983 -0.1595 -0.1814  0.2643
  826loPI   C3B12887  17.479   1.374   7.394 -0.1610  0.1837  0.1626
  826loPI   C4B12888  17.365   1.305   7.866 -0.1152 -0.2449 -0.0986
  827loPI    C112889  12.472   4.328   5.604 -0.2406  0.0285  0.2110
  827loPI    C212890  12.184   4.494   5.382 -0.0524  0.1130  0.0271
  827loPI    C312891  12.225   4.097   5.391 -0.1284  0.1042 -0.0045
  827loPI   PO412892  12.397   4.346   5.808  0.2806 -0.2139  0.0394
  827loPI   GL112893  12.246   4.375   6.119 -0.0832  0.0610 -0.2136
  827loPI   GL212894  11.889   4.142   6.166  0.1734 -0.1368 -0.3032
  827loPI   C1A12895  12.409   4.629   6.482  0.1208  0.1774  0.2664
  827loPI   C2A12896  12.602   4.608   6.931  0.0585  0.1570 -0.1335
  827loPI   C3A12897  12.500   4.509   7.382  0.1491 -0.0232 -0.1090
  827loPI   C4A12898  12.504   4.602   7.736  0.2611  0.0075 -0.2520
  827loPI   C5A12899  12.513   4.730   8.137 -0.3665  0.2162  0.0791
  827loPI   C6A12900  12.536   4.330   8.383  0.0779 -0.0498 -0.1111
  827loPI   C1B12901  12.034   4.307   6.617  0.1120 -0.1836  0.0069
  827loPI   C2B12902  12.009   4.294   7.101 -0.1919 -0.0805  0.2602
  827loPI   C3B12903  12.125   4.241   7.614  0.3724 -0.0665  0.0190
  827loPI   C4B12904  12.190   4.255   8.049 -0.2282 -0.2742  0.2846
  828loPI    C112905   8.705  13.948   5.717 -0.0711  0.1455 -0.0910
  828loPI    C212906   8.942  13.723   5.486 -0.1238 -0.0710  0.0636
  828loPI    C312907   8.788  14.063   5.342  0.1685  0.0022 -0.0841
  828loPI   PO412908   8.779  13.940   5.922 -0.0940  0.3202  0.1305
  828loPI   GL112909   9.019  13.748   6.147  0.1836 -0.1832 -0.2023
  828loPI   GL212910   8.677  13.676   6.368 -0.1831  0.1896  0.1882
  828loPI   C1A12911   9.136  13.549   6.571 -0.0735 -0.0665 -0.0097
  828loPI   C2A12912   9.232  13.553   6.953 -0.2415 -0.3096  0.2470
  828loPI   C3A12913   9.247  13.407   7.348  0.1662  0.0905 -0.0372
  828loPI   C4A12914   9.240  13.421   7.718 -0.2978 -0.1166  0.2251
  828loPI   C5A12915   9.479  13.572   8.053  0.0172  0.0744  0.2955
  828loPI   C6A12916   9.509  13.403   8.497  0.2113  0.2718  0.0689
  828loPI   C1B12917   8.740  13.645   6.834 -0.1373 -0.0836 -0.1702
  828loPI   C2B12918   8.782  13.670   7.213 -0.1456  0.1917 -0.1309
  828loPI   C3B12919   8.848  13.680   7.677  0.0148  0.1359 -0.4356
  828loPI   C4B12920   8.872  13.610   8.064 -0.0059 -0.0672 -0.0876
  829loPI    C112921   7.013   3.844   6.113 -0.0398  0.0604  0.0244
  829loPI    C212922   7.072   4.100   6.414  0.0230 -0.0128  0.0746
  829loPI    C312923   6.794   4.177   6.138 -0.0757  0.0254  0.1841
  829loPI   PO412924   6.995   3.613   6.250 -0.1609  0.4825  0.3532
  829loPI   GL112925   7.059   3.619   6.657  0.1614  0.1119 -0.2472
  829loPI   GL212926   7.010   3.871   6.863  0.0081 -0.4319  0.3427
  829loPI   C1A12927   6.942   3.456   7.144  0.2413  0.1709  0.2801
  829loPI   C2A12928   6.685   3.432   7.506  0.0584 -0.0892 -0.1551
  829loPI   C3A12929   6.592   3.375   7.952 -0.1488  0.1232 -0.1525
  829loPI   C4A12930   6.628   3.186   8.349  0.1544  0.0649 -0.0885
  829loPI   C5A12931   6.744   3.045   8.758  0.0688 -0.1446  0.0424
  829loPI   C6A12932   6.869   3.202   9.254  0.0471 -0.1774  0.1293
  829loPI   C1B12933   7.270   3.959   7.273  0.1699 -0.1115  0.0693
  829loPI   C2B12934   7.219   4.155   7.608  0.1003 -0.1024 -0.3873
  829loPI   C3B12935   6.989   4.325   7.845 -0.1722  0.0696  0.0384
  829loPI   C4B12936   6.630   4.592   7.991 -0.2245 -0.0064 -0.1385
  830loPI    C112937  16.073  11.557   5.249  0.2595 -0.2667  0.0437
  830loPI    C212938  16.254  11.735   4.940 -0.1366  0.0220 -0.0302
  830loPI    C312939  16.142  11.352   4.913  0.0617 -0.0293 -0.1460
  830loPI   PO412940  16.149  11.520   5.448 -0.2763  0.1405 -0.4191
  830loPI   GL112941  16.045  11.309   5.735  0.1542  0.1856 -0.0666
  830loPI   GL212942  15.733  11.096   5.857 -0.0442 -0.0916 -0.4432
  830loPI   C1A12943  16.062  11.327   6.183 -0.1879 -0.0772 -0.0668
  830loPI   C2A12944  15.973  11.315   6.650  0.3264  0.1266 -0.0666
  830loPI   C3A12945  15.954  11.387   7.057 -0.1878  0.3763 -0.0061
  830loPI   C4A12946  15.956  11.350   7.516  0.2509  0.2263 -0.1674
  830loPI   C5A12947  16.017  11.366   8.005  0.1934 -0.0747 -0.1320
  830loPI   C6A12948  15.967  11.661   8.417  0.0859 -0.3027 -0.1041
  830loPI   C1B12949  15.590  11.100   6.325 -0.0723 -0.1769  0.0179
  830loPI   C2B12950  15.505  11.146   6.769 -0.2650 -0.0429 -0.2456
  830loPI   C3B12951  15.532  11.114   7.209  0.0757 -0.1840 -0.1899
  830loPI   C4B12952  15.585  11.049   7.644  0.1463  0.4402  0.1316
  831loPI    C112953   9.668   0.994   5.389 -0.2050 -0.1876 -0.0292
  831loPI    C212954   9.565   0.832   5.038 -0.2217 -0.0992 -0.0655
  831loPI    C312955   9.698   1.209   5.052 -0.1566 -0.1250  0.0149
  831loPI   PO412956   9.748   0.764   5.552 -0.2760  0.2441  0.2036
  831loPI   GL112957   9.881   0.711   5.951 -0.1155  0.1404  0.0841
  831loPI   GL212958   9.981   0.409   5.915  0.1140  0.0640  0.0077
  831loPI   C1A12959   9.869   0.872   6.308 -0.4966  0.0234 -0.1864
  831loPI   C2A12960   9.954   0.781   6.704  0.2912  0.2116 -0.1204
  831loPI   C3A12961   9.947   0.680   7.129  0.1339 -0.0635  0.3732
  831loPI   C4A12962   9.987   0.779   7.551  0.0205  0.1454 -0.0824
  831loPI   C5A12963  10.033   0.767   7.998  0.0734  0.0520 -0.1700
  831loPI   C6A12964  10.280   0.777   8.397  0.2167 -0.1939  0.1197
  831loPI   C1B12965   9.896   0.341   6.321 -0.0868  0.0366  0.3281
  831loPI   C2B12966   9.958   0.292   6.715 -0.3691 -0.0621  0.3837
  831loPI   C3B12967  10.035   0.228   7.179 -0.2038  0.0858  0.4562
  831loPI   C4B12968  10.006   0.218   7.563  0.1696 -0.1328  0.1046
  832loPI    C112969  10.519  12.004   5.348 -0.0489  0.0445 -0.0220
  832loPI    C212970  10.582  11.627   5.465 -0.1071  0.0379 -0.0119
  832loPI    C312971  10.774  11.772   5.146 -0.2960 -0.0894 -0.1865
  832loPI   PO412972  10.402  12.125   5.559  0.1083 -0.0106 -0.0326
  832loPI   GL112973  10.327  12.163   5.983 -0.1774 -0.2436 -0.2464
  832loPI   GL212974  10.018  12.081   6.075  0.0092 -0.2764 -0.1278
  832loPI   C1A12975  10.531  12.255   6.389  0.0271  0.2245  0.0419
  832loPI   C2A12976  10.463  12.235   6.770 -0.2507 -0.0675 -0.0450
  832loPI   C3A12977  10.592  12.259   7.196 -0.1228 -0.2984 -0.4366
  832loPI   C4A12978  10.592  12.294   7.573 -0.0745 -0.3811  0.1377
  832loPI   C5A12979  10.555  12.233   7.890  0.1818  0.1336 -0.0196
  832loPI   C6A12980  10.674  11.954   8.163 -0.1542  0.0607  0.0677
  832loPI   C1B12981  10.072  11.961   6.524  0.0192  0.4754  0.0569
  832loPI   C2B12982  10.152  11.919   7.002  0.0551 -0.2323 -0.2790
  832loPI   C3B12983  10.211  11.915   7.504  0.1775  0.1177 -0.0375
  832loPI   C4B12984  10.151  11.945   7.930 -0.1136 -0.2093  0.0489
  833loPI    C112985   9.442   2.555   5.664 -0.0718 -0.0379  0.2061
  833loPI    C212986   9.088   2.640   5.496 -0.0369 -0.4797 -0.1074
  833loPI    C312987   9.425   2.679   5.284  0.1092 -0.0702  0.1868
  833loPI   PO412988   9.259   2.387   5.901  0.3885  0.0699  0.0061
  833loPI   GL112989   9.202   2.162   6.227 -0.0251  0.0134  0.0001
  833loPI   GL212990   9.092   1.908   6.110 -0.2009  0.2170 -0.4029
  833loPI   C1A12991   9.335   2.210   6.693  0.3130 -0.0417  0.0263
  833loPI   C2A12992   9.512   2.061   7.141 -0.0915 -0.1003 -0.1288
  833loPI   C3A12993   9.563   2.014   7.544 -0.0010 -0.1859 -0.1749
  833loPI   C4A12994   9.657   2.154   7.921  0.1609 -0.2559 -0.2532
  833loPI   C5A12995   9.699   2.329   8.314  0.3068  0.0959  0.1131
  833loPI   C6A12996   9.616   2.441   8.747 -0.0218  0.1858  0.3078
  833loPI   C1B12997   9.346   1.724   6.552 -0.1528 -0.0086 -0.1548
  833loPI   C2B12998   9.311   1.582   7.006  0.0054 -0.1572  0.0763
  833loPI   C3B12999   9.597   1.514   7.485 -0.0026  0.0112 -0.0326
  833loPI   C4B13000   9.867   1.242   7.786 -0.2499  0.0675  0.4597
  834loPI    C113001   4.415   1.778   5.876 -0.2708  0.1384  0.0591
  834loPI    C213002   4.333   1.541   5.565 -0.2692 -0.0946  0.2330
  834loPI    C313003   4.035   1.705   5.774 -0.2693  0.1473  0.0469
  834loPI   PO413004   4.585   1.611   5.984 -0.0034 -0.0428  0.4241
  834loPI   GL113005   4.620   1.445   6.325  0.0737 -0.0506 -0.3016
  834loPI   GL213006   4.385   1.586   6.626  0.1378 -0.0038 -0.4015
  834loPI   C1A13007   4.738   1.270   6.720  0.0978 -0.1931 -0.0323
  834loPI   C2A13008   4.913   1.027   7.141  0.1647 -0.1597 -0.1983
  834loPI   C3A13009   4.780   0.731   7.536 -0.1617 -0.1087 -0.0922
  834loPI   C4A13010   4.809   0.920   7.846  0.0427 -0.1235 -0.2442
  834loPI   C5A13011   4.977   0.980   8.202 -0.2032  0.0662 -0.0677
  834loPI   C6A13012   5.253   1.000   8.614  0.2248 -0.1041  0.1541
  834loPI   C1B13013   4.153   1.821   6.946  0.1733  0.0650  0.4546
  834loPI   C2B13014   4.181   2.106   7.303  0.0929 -0.3514  0.1534
  834loPI   C3B13015   3.782   2.336   7.373  0.0026  0.2447  0.1843
  834loPI   C4B13016   3.346   2.459   7.582 -0.0020 -0.2106 -0.0748
  835loPI    C113017   1.094   9.669   5.265  0.0944 -0.1575  0.0133
  835loPI    C213018   0.890   9.331   5.203  0.1468 -0.1651 -0.1205
  835loPI    C313019   0.895   9.615   4.922  0.3994 -0.2058 -0.1595
  835loPI   PO413020   1.118   9.633   5.607 -0.0301  0.1183 -0.1180
  835loPI   GL113021   1.190   9.820   6.016 -0.1300  0.0267  0.0362
  835loPI   GL213022   1.261  10.211   6.060  0.1851 -0.2189  0.3411
  835loPI   C1A13023   1.198   9.619   6.423  0.0869  0.1046  0.0435
  835loPI   C2A13024   1.224   9.634   6.886 -0.1149 -0.3701  0.0464
  835loPI   C3A13025   1.264   9.660   7.343  0.0302 -0.0001  0.0928
  835loPI   C4A13026   1.414   9.740   7.724 -0.1994  0.0974  0.1021
  835loPI   C5A13027   1.372   9.510   8.165  0.0308 -0.0345 -0.3607
  835loPI   C6A13028   1.348   9.658   8.569  0.0598  0.0654 -0.2437
  835loPI   C1B13029   1.189  10.139   6.553 -0.1840  0.1313 -0.0677
  835loPI   C2B13030   1.271  10.147   6.984 -0.1872  0.0220 -0.2675
  835loPI   C3B13031   1.242  10.145   7.344 -0.3596 -0.1696  0.0884
  835loPI   C4B13032   1.261  10.250   7.774 -0.1111  0.0489  0.2562
  836loPI    C113033   8.440  16.918   5.484  0.3619 -0.0076  0.0629
  836loPI    C213034   8.061  16.838   5.387  0.2721  0.2138  0.2235
  836loPI    C313035   8.345  16.829   5.106  0.1343  0.1335  0.0851
  836loPI   PO413036   8.473  16.719   5.791  0.0544 -0.1289 -0.0451
  836loPI   GL113037   8.375  16.469   6.089 -0.2508 -0.0327 -0.0724
  836loPI   GL213038   8.613  16.469   6.306 -0.1172  0.0640  0.0967
  836loPI   C1A13039   8.214  16.673   6.478 -0.0379  0.0172  0.0814
  836loPI   C2A13040   8.177  16.677   7.005  0.0295  0.1123  0.0191
  836loPI   C3A13041   8.335  16.602   7.377 -0.4366  0.2277 -0.0559
  836loPI   C4A13042   8.274  16.543   7.833  0.0187 -0.1160  0.0459
  836loPI   C5A13043   8.255  16.550   8.293  0.0054 -0.1005 -0.0159
  836loPI   C6A13044   8.281  16.451   8.715  0.1224  0.0165 -0.0053
  836loPI   C1B13045   8.740  16.499   6.800 -0.0952  0.4139  0.0356
  836loPI   C2B13046   8.752  16.267   7.239  0.1621  0.0520  0.1481
  836loPI   C3B13047   8.716  16.288   7.688  0.0480 -0.0249 -0.2664
  836loPI   C4B13048   8.714  16.246   8.152  0.0140 -0.1451 -0.2317
  837loPI    C113049   5.806  16.992   5.785 -0.0921  0.1845  0.0561
  837loPI    C213050   5.575  17.000   5.459  0.0396 -0.1896 -0.0517
  837loPI    C313051   5.957  17.116   5.436 -0.0069 -0.0188  0.0192
  837loPI   PO413052   5.727  16.941   5.896  0.0069 -0.0182 -0.3570
  837loPI   GL113053   5.795  16.760   6.248  0.2782  0.3777  0.0209
  837loPI   GL213054   5.534  16.941   6.432 -0.1426  0.1483  0.1438
  837loPI   C1A13055   5.904  16.715   6.689 -0.1910  0.0014 -0.4128
  837loPI   C2A13056   5.961  16.765   7.137 -0.0389  0.0193 -0.0499
  837loPI   C3A13057   5.980  16.759   7.595  0.1363 -0.0209 -0.3686
  837loPI   C4A13058   6.045  16.661   7.971 -0.2577 -0.0545 -0.2868
  837loPI   C5A13059   6.077  16.629   8.460 -0.0578 -0.0993  0.1531
  837loPI   C6A13060   6.301  16.868   8.781  0.1798  0.0187 -0.1586
  837loPI   C1B13061   5.446  17.005   6.817  0.0776 -0.1859  0.2895
  837loPI   C2B13062   5.523  16.922   7.289  0.1283 -0.0239  0.1452
  837loPI   C3B13063   5.510  16.869   7.704 -0.1326 -0.2602  0.5899
  837loPI   C4B13064   5.548  16.864   8.136 -0.1293 -0.2024  0.0666
  838loPI    C113065  11.086  17.126   5.482 -0.1887  0.3370  0.0422
  838loPI    C213066  10.957  17.474   5.332 -0.3030  0.1422 -0.3238
  838loPI    C313067  11.152  17.215   5.098  0.0614  0.0904  0.0249
  838loPI   PO413068  11.153  17.267   5.775  0.1342  0.0654 -0.0806
  838loPI   GL113069  11.378  17.213   6.210 -0.0810  0.1594  0.0567
  838loPI   GL213070  11.230  16.975   6.178  0.2894 -0.2315 -0.0952
  838loPI   C1A13071  11.291  17.483   6.607 -0.1548 -0.4294 -0.0763
  838loPI   C2A13072  11.383  17.467   6.998  0.1443  0.2239 -0.0020
  838loPI   C3A13073  11.370  17.442   7.446  0.1286 -0.0137  0.2692
  838loPI   C4A13074  11.385  17.437   7.869  0.2638  0.2017  0.4584
  838loPI   C5A13075  11.433  17.431   8.263  0.1346 -0.0113 -0.1548
  838loPI   C6A13076  11.802  17.331   8.533  0.0257 -0.0433 -0.1772
  838loPI   C1B13077  11.273  16.928   6.628  0.3458 -0.0779  0.2297
  838loPI   C2B13078  11.401  16.959   7.073 -0.1456 -0.0877  0.2106
  838loPI   C3B13079  11.446  16.921   7.456  0.3515  0.0674  0.1463
  838loPI   C4B13080  11.487  16.967   7.936 -0.2135 -0.2851 -0.0227
  839loPI    C113081   5.130  16.744   5.605  0.0556  0.1956 -0.0587
  839loPI    C213082   5.291  16.615   5.262  0.0711  0.1400 -0.0306
  839loPI    C313083   4.956  16.447   5.401  0.1942  0.0010  0.1024
  839loPI   PO413084   5.277  16.733   5.768 -0.0083  0.2479  0.0917
  839loPI   GL113085   5.272  16.628   6.180  0.1569  0.2828  0.2936
  839loPI   GL213086   4.950  16.786   6.170  0.1987  0.1920 -0.0572
  839loPI   C1A13087   5.395  16.447   6.597  0.0501 -0.0934  0.1010
  839loPI   C2A13088   5.512  16.484   7.058 -0.1155  0.0792  0.2677
  839loPI   C3A13089   5.517  16.384   7.390 -0.2083 -0.0988 -0.1159
  839loPI   C4A13090   5.514  16.339   7.803 -0.0307 -0.0650  0.1605
  839loPI   C5A13091   5.546  16.288   8.197 -0.0896 -0.1042  0.1867
  839loPI   C6A13092   5.828  16.142   8.446 -0.1385  0.0123  0.1120
  839loPI   C1B13093   5.020  16.726   6.660 -0.3444  0.0597 -0.1955
  839loPI   C2B13094   4.963  16.711   7.117  0.0437  0.0945  0.1533
  839loPI   C3B13095   5.084  16.705   7.527 -0.1631  0.2636  0.0812
  839loPI   C4B13096   5.123  16.685   7.975 -0.3147  0.2006 -0.1628
  840loPI    C113097   6.460  15.870   5.786  0.1653  0.0334  0.0517
  840loPI    C213098   6.209  15.826   5.478  0.0829 -0.1687  0.1456
  840loPI    C313099   6.599  15.753   5.429  0.1152  0.0773  0.0176
  840loPI   PO413100   6.281  15.995   6.017 -0.2843  0.0503  0.2992
  840loPI   GL113101   5.894  15.963   6.225  0.0189 -0.3016  0.3188
  840loPI   GL213102   5.812  16.247   6.290 -0.0356  0.1158 -0.0266
  840loPI   C1A13103   5.946  15.700   6.600  0.2791 -0.0256  0.0632
  840loPI   C2A13104   5.894  15.758   7.015  0.1883  0.1710  0.0633
  840loPI   C3A13105   6.058  15.691   7.422  0.0481  0.2210 -0.1474
  840loPI   C4A13106   6.133  15.695   7.891 -0.0649  0.4022 -0.2946
  840loPI   C5A13107   6.021  15.656   8.253  0.4035  0.0690  0.0897
  840loPI   C6A13108   6.065  15.437   8.459 -0.1668 -0.1310 -0.4075
  840loPI   C1B13109   5.927  16.220   6.746  0.2314 -0.1884  0.0690
  840loPI   C2B13110   6.000  16.212   7.181 -0.0132  0.2768 -0.0307
  840loPI   C3B13111   5.978  16.230   7.651 -0.0539  0.2279 -0.2121
  840loPI   C4B13112   6.163  16.200   8.075 -0.2397 -0.1352  0.1218
  841loPI    C113113  10.750  15.496   5.476  0.0701 -0.0910  0.0987
  841loPI    C213114  10.857  15.804   5.243  0.1701 -0.1526  0.0626
  841loPI    C313115  10.470  15.725   5.306  0.1426 -0.1427 -0.0929
  841loPI   PO413116  10.923  15.518   5.705 -0.0268 -0.2829  0.0349
  841loPI   GL113117  10.982  15.234   6.001  0.0839  0.0964 -0.2351
  841loPI   GL213118  10.959  14.947   5.984 -0.1282 -0.5021 -0.2774
  841loPI   C1A13119  10.946  15.111   6.473 -0.0887  0.2970 -0.3648
  841loPI   C2A13120  11.030  15.209   6.790 -0.0414 -0.0770 -0.1801
  841loPI   C3A13121  10.984  15.149   7.228  0.2674 -0.0430 -0.2011
  841loPI   C4A13122  11.043  15.034   7.681 -0.1438  0.1278  0.0546
  841loPI   C5A13123  11.098  14.575   7.760 -0.1109  0.1455 -0.0197
  841loPI   C6A13124  10.990  14.185   8.022  0.0780 -0.0282 -0.1924
  841loPI   C1B13125  10.899  14.686   6.201 -0.0714 -0.1039  0.0306
  841loPI   C2B13126  10.881  14.650   6.610 -0.1226 -0.0428  0.1536
  841loPI   C3B13127  10.936  14.695   6.924  0.0373 -0.1071 -0.1652
  841loPI   C4B13128  10.970  14.656   7.298  0.0907  0.3549 -0.2132
  842loPI    C113129   1.897   9.140   5.396 -0.1149 -0.1454  0.0353
  842loPI    C213130   2.280   9.145   5.284 -0.1037 -0.1299  0.0739
  842loPI    C313131   2.052   8.826   5.204 -0.1161 -0.0880 -0.0601
  842loPI   PO413132   1.886   9.172   5.573  0.1854 -0.1207  0.2702
  842loPI   GL113133   1.913   8.995   5.968  0.3457 -0.0162 -0.1665
  842loPI   GL213134   1.666   8.820   6.076 -0.0892 -0.0371  0.3440
  842loPI   C1A13135   2.102   9.064   6.393  0.2079  0.0788  0.0896
  842loPI   C2A13136   2.069   9.046   6.766  0.1788 -0.1094  0.1383
  842loPI   C3A13137   2.101   9.158   7.149 -0.2659  0.0627  0.1112
  842loPI   C4A13138   2.204   9.237   7.558  0.2548  0.1252  0.0467
  842loPI   C5A13139   2.252   9.180   7.940  0.0332 -0.3509  0.1235
  842loPI   C6A13140   2.245   9.294   8.327 -0.1323 -0.0223  0.1246
  842loPI   C1B13141   1.558   8.833   6.485  0.0436 -0.1773 -0.1352
  842loPI   C2B13142   1.677   8.811   6.960 -0.0257 -0.1423 -0.0291
  842loPI   C3B13143   1.738   8.821   7.454  0.0573  0.1097  0.3152
  842loPI   C4B13144   1.707   8.809   7.894 -0.0949 -0.0414  0.0391
  843loPI    C113145   9.940   2.126   5.353  0.0027 -0.3747 -0.1055
  843loPI    C213146   9.693   2.283   5.081  0.1318 -0.0553 -0.0427
  843loPI    C313147  10.074   2.206   4.985  0.2122  0.1779  0.0792
  843loPI   PO413148   9.717   2.138   5.525 -0.0381  0.1256 -0.0741
  843loPI   GL113149   9.736   2.231   5.923 -0.1073  0.2597  0.1196
  843loPI   GL213150   9.615   1.961   6.083 -0.1493 -0.1828  0.1629
  843loPI   C1A13151   9.700   2.344   6.360 -0.2752  0.1449 -0.2573
  843loPI   C2A13152   9.892   2.311   6.749  0.0477 -0.2424 -0.1542
  843loPI   C3A13153  10.069   2.329   7.140 -0.0179 -0.2642  0.2187
  843loPI   C4A13154   9.979   2.312   7.590 -0.4686  0.1824 -0.0686
  843loPI   C5A13155  10.135   2.337   7.938  0.6716  0.0404 -0.0913
  843loPI   C6A13156  10.517   2.284   7.926  0.2468  0.1144 -0.1277
  843loPI   C1B13157   9.853   1.865   6.465  0.0596  0.1044  0.1717
  843loPI   C2B13158   9.995   1.878   6.891  0.0199 -0.1652  0.0117
  843loPI   C3B13159   9.998   1.824   7.302  0.1532 -0.2778 -0.0510
  843loPI   C4B13160  10.079   1.796   7.690  0.0835 -0.3022  0.4810
  844loPI    C113161  11.541   5.806   5.297 -0.1192 -0.0163  0.1574
  844loPI    C213162  11.163   5.708   5.212 -0.0742 -0.1689  0.1293
  844loPI    C313163  11.463   5.542   5.006  0.0098 -0.0782  0.1781
  844loPI   PO413164  11.558   5.768   5.541  0.3390  0.2325 -0.1269
  844loPI   GL113165  11.568   5.481   5.932 -0.0081  0.0580 -0.0453
  844loPI   GL213166  11.406   5.335   5.957 -0.4284 -0.3746  0.2833
  844loPI   C1A13167  11.657   5.661   6.357  0.1372 -0.0171  0.0193
  844loPI   C2A13168  11.541   5.607   6.799  0.0830 -0.1003 -0.0150
  844loPI   C3A13169  11.591   5.662   7.211 -0.1729  0.1426 -0.0841
  844loPI   C4A13170  11.666   5.580   7.551  0.1170  0.0919 -0.3325
  844loPI   C5A13171  11.730   5.406   7.988 -0.1949  0.0648  0.2018
  844loPI   C6A13172  11.701   4.922   8.246 -0.1141 -0.1511 -0.1044
  844loPI   C1B13173  11.494   5.183   6.430 -0.4554  0.1157 -0.0676
  844loPI   C2B13174  11.522   5.043   6.795 -0.0692  0.3827  0.1926
  844loPI   C3B13175  11.633   5.015   7.124  0.3888 -0.2574 -0.4386
  844loPI   C4B13176  11.637   5.010   7.600  0.2753 -0.2650  0.0165
  845loPI    C113177   1.860   5.873   5.302 -0.0416 -0.0762 -0.2405
  845loPI    C213178   1.796   6.015   4.933 -0.1165  0.0989 -0.1614
  845loPI    C313179   1.592   5.697   5.063 -0.3991  0.2924 -0.1232
  845loPI   PO413180   1.823   6.012   5.542  0.0896  0.1285  0.1504
  845loPI   GL113181   1.560   5.947   5.991  0.1659  0.1707 -0.1880
  845loPI   GL213182   1.308   6.039   6.028 -0.1872  0.0709 -0.0385
  845loPI   C1A13183   1.667   6.119   6.317 -0.0994  0.0465  0.1736
  845loPI   C2A13184   1.805   6.352   6.659 -0.0770  0.0882 -0.1302
  845loPI   C3A13185   1.855   6.305   7.106  0.0785 -0.1197  0.1851
  845loPI   C4A13186   1.897   6.396   7.537 -0.0873 -0.4830  0.0319
  845loPI   C5A13187   1.711   6.386   7.955 -0.0420  0.1306 -0.1547
  845loPI   C6A13188   1.870   6.165   8.152  0.1914  0.4365  0.0373
  845loPI   C1B13189   1.253   5.949   6.538 -0.0145  0.0843 -0.0758
  845loPI   C2B13190   1.371   6.056   6.946  0.1516  0.0256  0.2490
  845loPI   C3B13191   1.378   6.096   7.372  0.0866 -0.0354 -0.0106
  845loPI   C4B13192   1.301   6.029   7.799 -0.0979  0.2161  0.0079
  846loPI    C113193   2.787   3.674   6.224 -0.2099  0.0196 -0.1411
  846loPI    C213194   2.685   3.315   6.081  0.0566 -0.0838 -0.0774
  846loPI    C313195   2.861   3.583   5.842 -0.2149  0.0373 -0.1464
  846loPI   PO413196   2.955   3.700   6.403 -0.2352  0.2632  0.2058
  846loPI   GL113197   3.181   3.948   6.643  0.2376  0.0610  0.1683
  846loPI   GL213198   3.174   3.675   6.882 -0.0004  0.1454  0.0071
  846loPI   C1A13199   3.285   4.205   7.114  0.0791  0.3778 -0.3727
  846loPI   C2A13200   3.349   4.053   7.501 -0.2480  0.1820  0.2512
  846loPI   C3A13201   3.487   3.805   7.918 -0.1545  0.2638  0.0748
  846loPI   C4A13202   3.632   3.508   8.186 -0.0391  0.1997  0.1450
  846loPI   C5A13203   3.584   3.143   8.186  0.2885  0.2425 -0.1683
  846loPI   C6A13204   3.866   2.809   8.182  0.2769  0.1941 -0.1551
  846loPI   C1B13205   3.227   3.472   7.188  0.0184 -0.1070  0.2992
  846loPI   C2B13206   3.328   3.496   7.535  0.1837 -0.2547  0.2435
  846loPI   C3B13207   3.620   3.331   7.694 -0.1323 -0.0258 -0.0104
  846loPI   C4B13208   3.698   2.872   7.616  0.1469  0.3764  0.0983
  847loPI    C113209   4.972   4.177   6.649 -0.4188 -0.2240  0.0106
  847loPI    C213210   4.725   4.129   6.337 -0.2181 -0.0453 -0.1791
  847loPI    C313211   4.695   4.454   6.569 -0.1714 -0.0302 -0.1941
  847loPI   PO413212   5.261   4.170   6.585 -0.0010 -0.1439  0.0354
  847loPI   GL113213   5.508   4.139   6.967  0.1644  0.0774 -0.1176
  847loPI   GL213214   5.656   4.409   7.078 -0.0425 -0.0207  0.1001
  847loPI   C1A13215   5.605   3.978   7.371  0.1464 -0.1605  0.1271
  847loPI   C2A13216   5.828   3.816   7.612  0.0286 -0.1463  0.1718
  847loPI   C3A13217   5.852   3.544   7.903  0.0831  0.1526 -0.1096
  847loPI   C4A13218   6.115   3.162   8.063  0.0032  0.1454  0.0786
  847loPI   C5A13219   6.109   3.150   8.422  0.2657  0.2350  0.0495
  847loPI   C6A13220   6.208   3.018   8.822  0.0907 -0.0065  0.3103
  847loPI   C1B13221   6.036   4.617   7.284  0.0098 -0.0904  0.3584
  847loPI   C2B13222   6.277   4.730   7.684  0.1987  0.1415  0.1476
  847loPI   C3B13223   6.172   4.846   8.000 -0.0770  0.0098 -0.2387
  847loPI   C4B13224   6.241   4.939   8.454  0.0216 -0.0658 -0.1791
  848loPI    C113225  16.398   9.303   5.084  0.2120 -0.0151 -0.2310
  848loPI    C213226  16.677   9.587   5.041  0.1804  0.0092 -0.2754
  848loPI    C313227  16.429   9.502   4.738  0.0303  0.1032 -0.1802
  848loPI   PO413228  16.216   9.309   5.344  0.0075 -0.0196  0.1586
  848loPI   GL113229  16.035   9.241   5.747  0.0977  0.1409  0.0248
  848loPI   GL213230  15.760   9.198   5.846 -0.0742  0.0237  0.0466
  848loPI   C1A13231  16.421   9.528   5.967 -0.1045 -0.0513 -0.4467
  848loPI   C2A13232  16.526   9.584   6.480  0.2900 -0.0954 -0.0720
  848loPI   C3A13233  16.483   9.656   6.902 -0.2155  0.0482 -0.2314
  848loPI   C4A13234  16.448   9.684   7.290 -0.2743  0.0757  0.3693
  848loPI   C5A13235  16.597   9.527   7.713 -0.0565  0.1010 -0.3293
  848loPI   C6A13236  16.531   9.506   8.133  0.0337 -0.0334  0.0092
  848loPI   C1B13237  15.897   9.290   6.313 -0.0627 -0.1619  0.0885
  848loPI   C2B13238  16.115   9.329   6.727 -0.1825 -0.0951 -0.0158
  848loPI   C3B13239  16.036   9.347   7.150 -0.1745 -0.2064 -0.0551
  848loPI   C4B13240  15.955   9.297   7.550 -0.2984 -0.0394  0.1440
  849loPI    C113241  16.142   8.237   4.924  0.1942 -0.0215  0.1033
  849loPI    C213242  16.142   8.632   4.862  0.4118 -0.0500 -0.0935
  849loPI    C313243  15.891   8.398   4.658  0.2592 -0.0114  0.0477
  849loPI   PO413244  16.195   8.251   5.204  0.1134  0.1972  0.1750
  849loPI   GL113245  16.271   7.892   5.463 -0.1346 -0.0075 -0.0450
  849loPI   GL213246  15.931   7.941   5.628 -0.0675  0.0394  0.2478
  849loPI   C1A13247  16.428   8.027   5.894  0.4111  0.0646 -0.0904
  849loPI   C2A13248  16.444   7.998   6.186  0.1488 -0.3813 -0.0249
  849loPI   C3A13249  16.427   8.065   6.599  0.0834 -0.0253 -0.0781
  849loPI   C4A13250  16.418   8.021   6.977 -0.0876 -0.5166  0.1524
  849loPI   C5A13251  16.356   8.011   7.460 -0.0793  0.3307  0.0143
  849loPI   C6A13252  16.395   7.798   7.856 -0.0902  0.1132  0.0042
  849loPI   C1B13253  15.929   7.826   6.074  0.1395 -0.0159 -0.0867
  849loPI   C2B13254  15.983   7.811   6.549 -0.2355 -0.1935  0.2849
  849loPI   C3B13255  16.007   7.795   7.087  0.1006  0.2472 -0.0247
  849loPI   C4B13256  15.966   7.687   7.484  0.2364 -0.0512  0.3150
  850loPI    C113257  12.540  17.048   5.554  0.0301  0.0217  0.1206
  850loPI    C213258  12.612  16.655   5.533  0.0849  0.0313  0.1303
  850loPI    C313259  12.433  16.841   5.228  0.2276  0.0333  0.0468
  850loPI   PO413260  12.380  17.017   5.823 -0.0251 -0.0127 -0.1775
  850loPI   GL113261  12.492  17.092   6.134  0.0701 -0.0179  0.1859
  850loPI   GL213262  12.768  17.336   6.320  0.0975  0.0067 -0.2744
  850loPI   C1A13263  12.257  16.961   6.492 -0.1760 -0.2761 -0.0130
  850loPI   C2A13264  12.253  17.009   6.931  0.2623  0.2394 -0.0115
  850loPI   C3A13265  12.313  16.987   7.296  0.3683 -0.2871  0.0239
  850loPI   C4A13266  12.254  16.960   7.704 -0.0142  0.1704 -0.0083
  850loPI   C5A13267  12.403  16.975   8.109  0.1017 -0.2888  0.3285
  850loPI   C6A13268  12.202  17.037   8.461  0.1652  0.2664 -0.0100
  850loPI   C1B13269  12.683  17.133   6.649 -0.2497 -0.0251 -0.0922
  850loPI   C2B13270  12.717  17.196   7.122 -0.5014 -0.0764 -0.1300
  850loPI   C3B13271  12.782  17.206   7.575 -0.0147 -0.0701 -0.0983
  850loPI   C4B13272  12.854  17.154   7.922 -0.2136  0.2223 -0.0840
  851loPI    C113273  12.529   3.602   5.398  0.1224 -0.0020 -0.0039
  851loPI    C213274  12.853   3.554   5.168  0.0609 -0.0570 -0.0795
  851loPI    C313275  12.637   3.889   5.142  0.0143 -0.0924 -0.1525
  851loPI   PO413276  12.629   3.597   5.707  0.0161  0.2816  0.0201
  851loPI   GL113277  12.668   3.881   6.003  0.0341 -0.0728 -0.1647
  851loPI   GL213278  12.991   3.704   6.034  0.4409  0.0881  0.1840
  851loPI   C1A13279  12.426   4.011   6.433 -0.2380  0.1524  0.3008
  851loPI   C2A13280  12.446   4.165   6.815 -0.0372 -0.0666 -0.0517
  851loPI   C3A13281  12.594   4.038   7.245  0.1257 -0.1612 -0.1557
  851loPI   C4A13282  12.567   4.007   7.690 -0.1018 -0.2529 -0.0345
  851loPI   C5A13283  12.605   3.908   8.128  0.0204 -0.0981 -0.0002
  851loPI   C6A13284  12.863   3.881   8.396  0.2039 -0.1048 -0.3277
  851loPI   C1B13285  12.884   3.768   6.503 -0.0617 -0.1682 -0.1522
  851loPI   C2B13286  12.870   3.838   6.885  0.1505 -0.3769 -0.1778
  851loPI   C3B13287  12.982   3.742   7.351 -0.2017  0.0836  0.1356
  851loPI   C4B13288  13.064   3.910   7.786 -0.3672 -0.0033  0.1015
  852loPI    C113289   1.628   2.819   5.805  0.2656  0.0516 -0.1827
  852loPI    C213290   1.379   2.960   5.525  0.0357 -0.1386 -0.0781
  852loPI    C313291   1.649   2.679   5.431  0.2649  0.1204 -0.2087
  852loPI   PO413292   1.506   2.780   5.981 -0.0064 -0.2273 -0.0820
  852loPI   GL113293   1.460   2.985   6.313  0.0740  0.1643  0.0423
  852loPI   GL213294   1.726   3.176   6.361  0.0995 -0.0269 -0.0229
  852loPI   C1A13295   1.423   2.824   6.719 -0.1053  0.0726 -0.0071
  852loPI   C2A13296   1.310   2.860   7.070  0.2653 -0.1032  0.0350
  852loPI   C3A13297   1.360   2.762   7.508 -0.1079 -0.2459  0.1740
  852loPI   C4A13298   1.449   2.773   7.984 -0.0426 -0.3312  0.0422
  852loPI   C5A13299   1.571   3.172   8.228  0.2267  0.2683  0.0268
  852loPI   C6A13300   1.985   3.291   8.330 -0.1006 -0.1314  0.1785
  852loPI   C1B13301   1.874   3.178   6.778 -0.1798  0.2114 -0.1915
  852loPI   C2B13302   1.761   3.124   7.205  0.0069  0.2668 -0.0854
  852loPI   C3B13303   2.001   3.203   7.623 -0.0619  0.0282 -0.0638
  852loPI   C4B13304   2.157   2.920   7.869 -0.0078  0.0168 -0.3012
  853loPI    C113305  14.641  15.332   5.432 -0.1880 -0.1188 -0.0788
  853loPI    C213306  14.952  15.083   5.465  0.0008  0.1014 -0.1674
  853loPI    C313307  14.811  15.180   5.104 -0.0243  0.1815 -0.1363
  853loPI   PO413308  14.582  15.292   5.701  0.0451 -0.0897 -0.0254
  853loPI   GL113309  14.393  15.143   5.998 -0.0080  0.2475  0.1722
  853loPI   GL213310  14.639  14.918   6.036  0.2434 -0.0080  0.0183
  853loPI   C1A13311  14.518  15.200   6.455  0.1786 -0.1876 -0.0062
  853loPI   C2A13312  14.585  15.227   6.885 -0.1079  0.1163 -0.3173
  853loPI   C3A13313  14.464  15.184   7.322 -0.0183  0.2083 -0.1766
  853loPI   C4A13314  14.381  15.175   7.747  0.1423  0.1561  0.0698
  853loPI   C5A13315  14.433  14.981   8.119  0.0727 -0.3234 -0.0631
  853loPI   C6A13316  14.770  14.701   8.199  0.1066  0.1400  0.1218
  853loPI   C1B13317  14.996  14.928   6.390 -0.1637 -0.1612 -0.0289
  853loPI   C2B13318  15.083  14.976   6.804 -0.1039  0.2175  0.0502
  853loPI   C3B13319  14.939  14.978   7.259 -0.2249  0.2560 -0.2170
  853loPI   C4B13320  14.968  14.883   7.733  0.1329  0.0332  0.1307
  854loPI    C113321   8.732   0.757   5.332  0.0228  0.0559  0.2242
  854loPI    C213322   8.991   0.683   5.036 -0.0069 -0.0214  0.2176
  854loPI    C313323   8.755   1.005   5.019  0.1896  0.1283  0.2922
  854loPI   PO413324   8.866   0.852   5.571  0.3104  0.1737 -0.0048
  854loPI   GL113325   9.085   0.680   5.830 -0.0283  0.1069 -0.1717
  854loPI   GL213326   9.316   0.957   5.831  0.2208 -0.0692 -0.0235
  854loPI   C1A13327   9.134   0.332   6.140 -0.0232 -0.1886 -0.1237
  854loPI   C2A13328   9.430   0.235   6.418 -0.2090  0.1022  0.2570
  854loPI   C3A13329   9.454   0.044   6.870  0.3056  0.2450 -0.0293
  854loPI   C4A13330   9.537  -0.020   7.346  0.0011  0.3264  0.0779
  854loPI   C5A13331   9.552  -0.073   7.780 -0.2747  0.0826  0.0820
  854loPI   C6A13332   9.746  -0.134   8.142 -0.0128 -0.2525  0.0591
  854loPI   C1B13333   9.400   0.723   6.318  0.2493 -0.1215 -0.0041
  854loPI   C2B13334   9.478   0.651   6.786  0.0765 -0.3535  0.0873
  854loPI   C3B13335   9.519   0.463   7.162 -0.2002 -0.4880  0.0357
  854loPI   C4B13336   9.556   0.426   7.645  0.0254 -0.1350  0.1337
  855loPI    C113337   1.178   8.939   5.548  0.1635 -0.1110  0.2053
  855loPI    C213338   0.882   9.140   5.728  0.0884  0.1110 -0.1567
  855loPI    C313339   0.829   8.758   5.620 -0.1022  0.1768 -0.3020
  855loPI   PO413340   1.434   9.044   5.718  0.2267 -0.1340  0.0892
  855loPI   GL113341   1.271   9.256   6.033  0.0551  0.1230 -0.2164
  855loPI   GL213342   1.499   9.260   6.197  0.0648 -0.0653  0.1821
  855loPI   C1A13343   1.159   9.084   6.496 -0.3538  0.2872  0.0721
  855loPI   C2A13344   1.259   9.136   6.872  0.1225  0.2384 -0.1501
  855loPI   C3A13345   1.331   9.165   7.279  0.0217  0.1001  0.1418
  855loPI   C4A13346   1.288   9.108   7.718 -0.2358 -0.0606 -0.0776
  855loPI   C5A13347   0.955   9.380   7.957  0.1290 -0.1467 -0.0308
  855loPI   C6A13348   0.829   9.522   8.346  0.1777  0.0882 -0.2749
  855loPI   C1B13349   1.618   9.369   6.542 -0.2687 -0.2022 -0.4642
  855loPI   C2B13350   1.686   9.376   6.990  0.0426  0.1731  0.1193
  855loPI   C3B13351   1.722   9.390   7.441  0.2053 -0.0386  0.1653
  855loPI   C4B13352   1.754   9.350   7.842  0.3105  0.2555  0.0610
  856loPI    C113353   0.496   6.939   4.997 -0.2065 -0.0362 -0.1595
  856loPI    C213354   0.859   7.105   5.018 -0.1884 -0.0947 -0.0007
  856loPI    C313355   0.706   7.006   4.663 -0.1315  0.1104 -0.0842
  856loPI   PO413356   0.470   6.757   5.182  0.0929 -0.2011  0.0518
  856loPI   GL113357   0.437   6.834   5.667  0.2688  0.2495 -0.0496
  856loPI   GL213358   0.176   6.911   5.817 -0.0187 -0.2524  0.0323
  856loPI   C1A13359   0.736   6.802   5.946 -0.0521  0.3689  0.1419
  856loPI   C2A13360   0.797   6.712   6.356  0.2765  0.3058  0.1877
  856loPI   C3A13361   0.848   6.772   6.772  0.3560 -0.1423 -0.2118
  856loPI   C4A13362   0.848   6.819   7.186  0.1112 -0.0949 -0.1795
  856loPI   C5A13363   0.828   6.838   7.601  0.3509  0.2079  0.0498
  856loPI   C6A13364   0.582   7.088   7.823  0.0307  0.0751  0.0215
  856loPI   C1B13365   0.321   7.011   6.148 -0.1484 -0.0736 -0.0527
  856loPI   C2B13366   0.373   7.000   6.539 -0.0612 -0.0226  0.1923
  856loPI   C3B13367   0.408   7.064   6.958 -0.1523  0.0971  0.0024
  856loPI   C4B13368   0.344   7.049   7.394  0.1638 -0.0074  0.3871
  857loPI    C113369  15.753   7.214   4.918  0.1040 -0.0943  0.0602
  857loPI    C213370  15.470   7.474   5.029  0.0009 -0.1656 -0.0324
  857loPI    C313371  15.781   7.598   4.810  0.0152 -0.0971  0.0261
  857loPI   PO413372  15.679   7.034   5.193 -0.0232  0.2046  0.0565
  857loPI   GL113373  15.593   6.772   5.563 -0.0822  0.0112 -0.0149
  857loPI   GL213374  15.663   6.458   5.643  0.1194 -0.0289 -0.3143
  857loPI   C1A13375  15.506   7.001   5.881 -0.0628 -0.0580  0.4273
  857loPI   C2A13376  15.616   7.021   6.222  0.0368  0.0275 -0.0059
  857loPI   C3A13377  15.637   7.065   6.693  0.2794  0.3264  0.0773
  857loPI   C4A13378  15.637   6.916   7.020  0.0427  0.3231 -0.0074
  857loPI   C5A13379  15.572   6.895   7.444 -0.1264 -0.1233  0.2168
  857loPI   C6A13380  15.280   6.618   7.639 -0.2232 -0.0869  0.0112
  857loPI   C1B13381  15.572   6.486   6.032  0.2626 -0.2041  0.2251
  857loPI   C2B13382  15.635   6.521   6.520  0.3483  0.1287  0.0100
  857loPI   C3B13383  15.700   6.384   6.892  0.0555 -0.0638 -0.1334
  857loPI   C4B13384  15.561   6.451   7.280 -0.1272  0.0656 -0.2224
  858loPI    C113385   2.510   2.018   5.589  0.1457 -0.3781  0.1055
  858loPI    C213386   2.337   2.056   5.230  0.2260  0.3591  0.1298
  858loPI    C313387   2.616   1.776   5.289 -0.1674 -0.1244 -0.2195
  858loPI   PO413388   2.345   1.894   5.779 -0.1150  0.0210  0.1954
  858loPI   GL113389   2.146   2.062   6.155 -0.0258  0.1733  0.2221
  858loPI   GL213390   2.090   1.744   6.233 -0.1222  0.2285  0.2827
  858loPI   C1A13391   1.959   2.217   6.559  0.1357  0.2394  0.1433
  858loPI   C2A13392   1.939   2.158   6.993 -0.0152 -0.0690  0.0162
  858loPI   C3A13393   1.885   2.140   7.473 -0.2062 -0.1343 -0.0555
  858loPI   C4A13394   1.916   1.956   7.921  0.2156  0.1613  0.0890
  858loPI   C5A13395   1.864   1.726   8.310 -0.0106  0.0586  0.4164
  858loPI   C6A13396   1.696   1.487   8.716 -0.1038  0.4085  0.1669
  858loPI   C1B13397   2.113   1.737   6.658  0.0754 -0.1381 -0.0103
  858loPI   C2B13398   2.012   1.676   7.164 -0.1779 -0.1624  0.0681
  858loPI   C3B13399   2.012   1.634   7.616  0.0100  0.1500 -0.1361
  858loPI   C4B13400   2.174   1.482   8.031 -0.0005  0.0215 -0.0241
  859loPI    C113401  12.851   2.753   5.559  0.0132 -0.0042 -0.0476
  859loPI    C213402  12.796   3.138   5.465 -0.1393  0.0204  0.1350
  859loPI    C313403  12.580   2.855   5.283 -0.0904  0.0278  0.0650
  859loPI   PO413404  12.837   2.680   5.824 -0.0924  0.0628 -0.3525
  859loPI   GL113405  13.044   2.712   6.183 -0.0065 -0.1674  0.2716
  859loPI   GL213406  13.338   2.480   6.362  0.2631 -0.0733  0.1368
  859loPI   C1A13407  12.997   2.737   6.615  0.0675 -0.1466 -0.1203
  859loPI   C2A13408  12.979   2.721   7.064  0.0665 -0.2224  0.2605
  859loPI   C3A13409  13.040   2.681   7.402 -0.0369  0.1638 -0.2822
  859loPI   C4A13410  13.150   2.645   7.828 -0.1584  0.0704  0.2883
  859loPI   C5A13411  13.023   2.936   8.195  0.2203  0.0852  0.1535
  859loPI   C6A13412  12.817   2.994   8.547  0.1596 -0.1089 -0.0893
  859loPI   C1B13413  13.412   2.576   6.724  0.0328 -0.0649 -0.0059
  859loPI   C2B13414  13.432   2.486   7.086 -0.0703  0.1891 -0.2674
  859loPI   C3B13415  13.566   2.500   7.541  0.3267  0.0123  0.0168
  859loPI   C4B13416  13.509   2.323   7.904 -0.3124 -0.0679  0.2417
  860loPI    C113417   4.167  11.900   5.460 -0.2408  0.1437  0.2938
  860loPI    C213418   3.897  12.178   5.361 -0.0242  0.2228 -0.0935
  860loPI    C313419   3.903  11.827   5.169 -0.1678  0.0241  0.2568
  860loPI   PO413420   4.151  11.919   5.720  0.0568 -0.0698  0.1247
  860loPI   GL113421   3.971  11.821   6.023  0.1760 -0.0614 -0.2997
  860loPI   GL213422   4.234  11.999   6.215 -0.3430  0.1678 -0.0590
  860loPI   C1A13423   3.862  11.702   6.444 -0.2557 -0.1915 -0.3298
  860loPI   C2A13424   3.989  11.773   6.950 -0.2083  0.0027 -0.2077
  860loPI   C3A13425   3.889  11.740   7.355  0.0189  0.0778 -0.0199
  860loPI   C4A13426   3.830  11.714   7.879  0.1239 -0.0605 -0.1369
  860loPI   C5A13427   4.025  11.664   8.250 -0.1632  0.2918 -0.1416
  860loPI   C6A13428   4.153  11.893   8.510  0.2604  0.3300 -0.0147
  860loPI   C1B13429   4.336  12.052   6.677  0.1471  0.0622 -0.1965
  860loPI   C2B13430   4.307  12.098   7.157  0.1281  0.0497  0.2530
  860loPI   C3B13431   4.275  12.043   7.623  0.1138  0.0079  0.1213
  860loPI   C4B13432   4.401  12.063   8.036  0.0098  0.0905  0.2029
  861loPI    C113433   8.089  16.251   5.744  0.2477  0.1293  0.0388
  861loPI    C213434   8.131  16.025   5.417 -0.0206 -0.2568  0.2622
  861loPI    C313435   7.911  16.359   5.403  0.1675 -0.1403 -0.0070
  861loPI   PO413436   8.066  16.009   5.948 -0.0889  0.1054  0.1461
  861loPI   GL113437   8.145  15.911   6.372 -0.2897  0.2519  0.0014
  861loPI   GL213438   7.859  15.867   6.480  0.2879  0.1421 -0.1871
  861loPI   C1A13439   8.176  16.117   6.683  0.3199 -0.2091  0.0428
  861loPI   C2A13440   8.238  16.195   7.107  0.1502  0.0579  0.2846
  861loPI   C3A13441   8.325  16.046   7.426 -0.1585 -0.2378 -0.0745
  861loPI   C4A13442   8.327  15.966   7.885  0.2047 -0.1295 -0.0243
  861loPI   C5A13443   8.344  15.992   8.397  0.1744  0.1883  0.0804
  861loPI   C6A13444   8.029  16.040   8.558  0.2575  0.1225  0.1607
  861loPI   C1B13445   7.862  15.875   6.941  0.0162 -0.2084  0.0841
  861loPI   C2B13446   7.867  15.801   7.360 -0.0635  0.1164  0.1473
  861loPI   C3B13447   7.858  15.768   7.726 -0.0329  0.0894 -0.2197
  861loPI   C4B13448   7.915  15.781   8.152 -0.1699 -0.2392  0.3639
  862loPI    C113449  12.134  15.887   5.395  0.0722 -0.0546  0.0507
  862loPI    C213450  12.427  16.156   5.353  0.1834 -0.1400  0.2629
  862loPI    C313451  12.397  15.851   5.096  0.1577 -0.0195  0.1212
  862loPI   PO413452  12.168  15.754   5.645  0.1290  0.0285  0.4064
  862loPI   GL113453  12.121  15.667   6.011  0.1280  0.0437  0.0199
  862loPI   GL213454  11.797  15.821   6.089  0.1551  0.2075 -0.1512
  862loPI   C1A13455  12.211  15.486   6.310  0.0917  0.0249 -0.1223
  862loPI   C2A13456  12.251  15.342   6.684  0.1780  0.2268 -0.2121
  862loPI   C3A13457  12.308  15.283   7.122 -0.1826 -0.2229  0.3795
  862loPI   C4A13458  12.365  15.437   7.527  0.0596  0.0905  0.3374
  862loPI   C5A13459  12.494  15.486   7.945  0.0151 -0.0310 -0.2585
  862loPI   C6A13460  12.752  15.695   8.156  0.1458  0.2068  0.1623
  862loPI   C1B13461  11.769  15.741   6.475  0.1572 -0.2511  0.3879
  862loPI   C2B13462  11.864  15.597   6.894 -0.1461 -0.2303  0.0308
  862loPI   C3B13463  11.965  15.619   7.371 -0.1329  0.2280 -0.2732
  862loPI   C4B13464  11.909  15.671   7.828  0.0602 -0.1066  0.3969
  863loPI    C113465   2.635  15.333   5.556 -0.1117  0.1473  0.1272
  863loPI    C213466   2.343  15.250   5.295 -0.2169  0.1771  0.2342
  863loPI    C313467   2.609  15.538   5.213  0.1493 -0.2500 -0.1397
  863loPI   PO413468   2.511  15.359   5.793  0.1738 -0.2945  0.0070
  863loPI   GL113469   2.633  15.391   6.089  0.2026 -0.0769 -0.0359
  863loPI   GL213470   2.653  15.009   6.213 -0.0936  0.1484 -0.0036
  863loPI   C1A13471   2.832  15.422   6.424 -0.2986 -0.1388 -0.2389
  863loPI   C2A13472   2.915  15.306   6.813 -0.1483  0.1034  0.1422
  863loPI   C3A13473   2.880  15.350   7.242 -0.0437  0.0483 -0.1826
  863loPI   C4A13474   2.854  15.348   7.636  0.1064  0.1483  0.3918
  863loPI   C5A13475   2.862  15.366   8.070 -0.0313 -0.0093 -0.2201
  863loPI   C6A13476   3.246  15.453   8.353  0.1749 -0.0283  0.4248
  863loPI   C1B13477   2.415  15.128   6.621 -0.1265 -0.1336 -0.2052
  863loPI   C2B13478   2.412  15.083   7.116  0.4461  0.0470  0.0110
  863loPI   C3B13479   2.448  15.066   7.509 -0.0688  0.0289  0.0276
  863loPI   C4B13480   2.465  15.167   7.906 -0.1236  0.4421 -0.1179
  864loPI    C113481  17.854   7.984   4.698 -0.1096 -0.1217 -0.1299
  864loPI    C213482  18.158   7.731   4.638  0.0061 -0.0182  0.0126
  864loPI    C313483  18.035   7.971   4.342  0.0327 -0.0930 -0.0594
  864loPI   PO413484  17.888   8.078   4.862  0.1584 -0.0472 -0.2190
  864loPI   GL113485  17.951   8.042   5.343 -0.1630 -0.2257  0.3014
  864loPI   GL213486  18.204   8.149   5.416  0.0512  0.0264 -0.1529
  864loPI   C1A13487  17.773   8.230   5.697 -0.0086 -0.2307  0.0803
  864loPI   C2A13488  17.841   8.365   6.077  0.0406  0.1603 -0.0365
  864loPI   C3A13489  17.759   8.323   6.481 -0.0197 -0.0009  0.2202
  864loPI   C4A13490  17.753   8.340   6.912  0.5103 -0.0267  0.0753
  864loPI   C5A13491  17.821   8.400   7.321 -0.1836  0.1625 -0.0258
  864loPI   C6A13492  17.872   8.779   7.483  0.2578  0.0199 -0.1542
  864loPI   C1B13493  18.256   8.117   5.895  0.1758  0.2296  0.1558
  864loPI   C2B13494  18.253   8.054   6.298 -0.2343 -0.2618 -0.1063
  864loPI   C3B13495  18.246   8.075   6.687  0.2502 -0.1456 -0.0512
  864loPI   C4B13496  18.306   8.041   7.142 -0.1865  0.2557  0.2510
  865loPI    C113497  12.440   6.773   5.128 -0.3101 -0.1195  0.0408
  865loPI    C213498  12.560   7.154   5.117 -0.1285 -0.1707  0.1936
  865loPI    C313499  12.528   6.945   4.777 -0.2171 -0.0240  0.1103
  865loPI   PO413500  12.618   6.594   5.305  0.2011 -0.0141  0.0638
  865loPI   GL113501  12.586   6.566   5.681 -0.0591 -0.0563 -0.2648
  865loPI   GL213502  12.882   6.633   5.794 -0.0485 -0.0093 -0.1212
  865loPI   C1A13503  12.474   6.721   6.136 -0.1602  0.0763 -0.0449
  865loPI   C2A13504  12.467   6.650   6.564 -0.1524 -0.0000  0.0787
  865loPI   C3A13505  12.524   6.623   6.961 -0.1675  0.0713 -0.1550
  865loPI   C4A13506  12.415   6.681   7.338  0.1345  0.0227  0.0946
  865loPI   C5A13507  12.495   6.615   7.665  0.0196 -0.2098 -0.1741
  865loPI   C6A13508  12.567   6.594   8.074 -0.0167 -0.2055 -0.0186
  865loPI   C1B13509  12.932   6.860   6.135 -0.1862 -0.1370 -0.1368
  865loPI   C2B13510  12.847   6.959   6.598 -0.1934 -0.2789  0.1652
  865loPI   C3B13511  12.975   6.934   7.065 -0.3511  0.1593  0.0405
  865loPI   C4B13512  12.891   6.862   7.428  0.1635 -0.1444  0.0224
  866loPI    C113513   8.073   4.776   6.304 -0.1645 -0.0384 -0.0825
  866loPI    C213514   8.064   4.941   5.940  0.0791  0.1832  0.0082
  866loPI    C313515   8.304   4.629   6.013  0.0565  0.1612 -0.0113
  866loPI   PO413516   7.971   4.986   6.448  0.2813 -0.0015 -0.2237
  866loPI   GL113517   7.908   5.066   6.825 -0.0409 -0.2596 -0.5196
  866loPI   GL213518   7.639   5.286   6.808  0.0157  0.3502  0.1241
  866loPI   C1A13519   7.767   4.864   7.242  0.3501  0.0721 -0.2144
  866loPI   C2A13520   7.826   4.638   7.628  0.0006 -0.0310  0.0866
  866loPI   C3A13521   7.661   4.680   8.009  0.1335 -0.0394  0.1168
  866loPI   C4A13522   7.457   4.420   8.327 -0.3185  0.0223 -0.2091
  866loPI   C5A13523   7.195   4.404   8.728  0.1785 -0.3482  0.4029
  866loPI   C6A13524   7.506   4.336   9.133 -0.0259  0.1915  0.2102
  866loPI   C1B13525   7.893   5.499   7.240  0.0319  0.0584 -0.1309
  866loPI   C2B13526   7.916   5.740   7.649  0.0386  0.0727 -0.1445
  866loPI   C3B13527   8.229   5.912   7.821  0.0130 -0.0779 -0.4288
  866loPI   C4B13528   8.400   6.047   8.126 -0.1673 -0.0776 -0.3164
  867loPI    C113529   0.465   0.896   5.619  0.0226  0.0286  0.0632
  867loPI    C213530   0.229   1.150   5.420  0.0794  0.0592  0.0344
  867loPI    C313531   0.471   0.903   5.219  0.2445  0.1922  0.0670
  867loPI   PO413532   0.557   0.988   5.815  0.0351  0.2718 -0.1162
  867loPI   GL113533   0.585   0.752   6.118 -0.0063 -0.1012 -0.3232
  867loPI   GL213534   0.898   0.773   6.279  0.1986 -0.1069 -0.0150
  867loPI   C1A13535   0.274   0.534   6.377 -0.4786  0.1232 -0.0284
  867loPI   C2A13536   0.331   0.531   6.826 -0.3197 -0.1743 -0.0852
  867loPI   C3A13537   0.169   0.534   7.301  0.2061 -0.0278  0.0048
  867loPI   C4A13538   0.147   0.643   7.782 -0.1924  0.2183 -0.1622
  867loPI   C5A13539   0.339   0.863   8.132 -0.2269 -0.0745 -0.2318
  867loPI   C6A13540   0.581   1.113   8.330  0.2805 -0.2347  0.0918
  867loPI   C1B13541   0.713   0.844   6.697  0.1200 -0.1465  0.0761
  867loPI   C2B13542   0.612   0.902   7.099 -0.0972 -0.0532  0.1532
  867loPI   C3B13543   0.571   0.805   7.497  0.0704  0.1569 -0.0057
  867loPI   C4B13544   0.751   0.821   7.864 -0.2587  0.0732 -0.2738
  868loPI    C113545   1.012   3.311   5.759 -0.2443  0.1033  0.0353
  868loPI    C213546   1.058   2.941   5.904 -0.0186  0.0929 -0.0587
  868loPI    C313547   0.882   2.996   5.549 -0.2228  0.0912  0.0403
  868loPI   PO413548   0.835   3.421   5.936 -0.0406  0.3008  0.0502
  868loPI   GL113549   0.452   3.558   6.229 -0.2904 -0.1392 -0.0549
  868loPI   GL213550   0.209   3.640   6.277  0.1494  0.1670 -0.1916
  868loPI   C1A13551   0.552   3.391   6.589  0.2595  0.1657  0.1046
  868loPI   C2A13552   0.521   3.412   7.112 -0.0020  0.0628 -0.0002
  868loPI   C3A13553   0.463   3.311   7.510  0.0712  0.2390 -0.1908
  868loPI   C4A13554   0.551   3.162   7.943  0.3869  0.2109  0.1298
  868loPI   C5A13555   0.687   2.851   8.391 -0.0525 -0.0526 -0.0139
  868loPI   C6A13556   0.805   2.613   8.780 -0.0236 -0.3917  0.2464
  868loPI   C1B13557   0.136   3.739   6.682  0.1095  0.0700 -0.0755
  868loPI   C2B13558   0.120   3.715   7.119 -0.2085 -0.1036  0.0264
  868loPI   C3B13559   0.044   3.565   7.557 -0.2078 -0.1848  0.1764
  868loPI   C4B13560   0.074   3.375   7.949 -0.0357 -0.1207 -0.2183
  869loPI    C113561  16.856  11.169   5.075 -0.1791 -0.0646 -0.1453
  869loPI    C213562  16.605  11.443   5.225 -0.1856 -0.1986  0.0944
  869loPI    C313563  16.672  11.426   4.831 -0.1371  0.1871  0.0828
  869loPI   PO413564  16.742  10.917   5.230  0.3497  0.3095 -0.1416
  869loPI   GL113565  16.683  10.810   5.702 -0.1426  0.0777  0.0469
  869loPI   GL213566  16.939  10.703   5.893 -0.2284  0.2722  0.2302
  869loPI   C1A13567  16.441  11.104   5.974 -0.1649  0.1056 -0.3188
  869loPI   C2A13568  16.452  11.138   6.391  0.0528 -0.0536 -0.0594
  869loPI   C3A13569  16.429  11.157   6.799 -0.3433 -0.1623 -0.1332
  869loPI   C4A13570  16.443  11.155   7.284 -0.0181  0.0529 -0.2944
  869loPI   C5A13571  16.417  11.121   7.658 -0.1799 -0.0412 -0.3837
  869loPI   C6A13572  16.699  11.020   8.013  0.1218 -0.0767 -0.2790
  869loPI   C1B13573  16.908  10.831   6.269 -0.4579 -0.2215 -0.1378
  869loPI   C2B13574  16.938  10.852   6.678  0.2406 -0.0297  0.2575
  869loPI   C3B13575  16.824  10.910   7.047 -0.5527  0.0231  0.0056
  869loPI   C4B13576  16.868  10.907   7.515  0.0291 -0.2402  0.0651
  870loPI    C113577   3.142   8.685   5.039  0.2510 -0.0904  0.1041
  870loPI    C213578   3.171   8.478   4.697  0.1673  0.0287  0.0239
  870loPI    C313579   3.223   8.875   4.696 -0.0306  0.0559  0.1158
  870loPI   PO413580   3.269   8.621   5.198  0.1056 -0.1060  0.0888
  870loPI   GL113581   3.446   8.546   5.627  0.0943  0.1272 -0.1479
  870loPI   GL213582   3.563   8.821   5.849  0.4354  0.2042  0.0910
  870loPI   C1A13583   3.450   8.271   6.012 -0.2835  0.3168  0.6333
  870loPI   C2A13584   3.449   8.256   6.419 -0.2563  0.0578 -0.0626
  870loPI   C3A13585   3.477   8.262   6.851 -0.1607 -0.1024  0.0314
  870loPI   C4A13586   3.544   8.403   7.276 -0.0555  0.1254  0.0026
  870loPI   C5A13587   3.605   8.442   7.726 -0.0485  0.4455  0.0543
  870loPI   C6A13588   3.717   8.761   7.954  0.0204  0.1114  0.0947
  870loPI   C1B13589   3.364   8.710   6.224  0.1354 -0.1922  0.1435
  870loPI   C2B13590   3.355   8.745   6.682 -0.0414 -0.1130 -0.0635
  870loPI   C3B13591   3.492   8.892   7.094  0.2617  0.0321  0.1488
  870loPI   C4B13592   3.573   8.969   7.527  0.0524 -0.1555 -0.1008
  871loPI    C113593   8.392   8.423   5.443  0.2217 -0.1179  0.2827
  871loPI    C213594   8.391   8.816   5.366 -0.1231 -0.1535  0.0876
  871loPI    C313595   8.644   8.575   5.171 -0.0864 -0.0628  0.0224
  871loPI   PO413596   8.388   8.354   5.712 -0.0868 -0.0105 -0.2663
  871loPI   GL113597   8.489   8.572   6.183  0.2343  0.2048  0.0015
  871loPI   GL213598   8.324   8.327   6.229 -0.0140 -0.1412 -0.2083
  871loPI   C1A13599   8.739   8.737   6.544  0.1376 -0.2403  0.2418
  871loPI   C2A13600   8.879   8.636   6.972 -0.0897 -0.1951  0.1837
  871loPI   C3A13601   8.744   8.473   7.433  0.0458 -0.2623  0.0671
  871loPI   C4A13602   8.941   8.653   7.837 -0.0825  0.4143 -0.0869
  871loPI   C5A13603   9.000   8.879   8.169 -0.4821  0.1155  0.2218
  871loPI   C6A13604   8.895   8.829   8.641  0.2410  0.1834 -0.1763
  871loPI   C1B13605   8.316   8.391   6.642 -0.0014  0.1411 -0.0764
  871loPI   C2B13606   8.343   8.799   6.916 -0.0268  0.0128  0.2140
  871loPI   C3B13607   8.391   8.821   7.340  0.0302 -0.0221 -0.3719
  871loPI   C4B13608   8.409   8.818   7.762 -0.1036 -0.1162  0.0540
  872loPI    C113609  13.581   4.922   5.170 -0.0464  0.2009  0.0872
  872loPI    C213610  13.896   5.136   5.047 -0.0254  0.0981 -0.0405
  872loPI    C313611  13.576   5.097   4.810 -0.0667  0.0648  0.0204
  872loPI   PO413612  13.576   4.985   5.368 -0.0145  0.4505 -0.0564
  872loPI   GL113613  13.549   4.882   5.756 -0.2474 -0.1115  0.1905
  872loPI   GL213614  13.368   4.644   5.894  0.2500 -0.1947  0.0557
  872loPI   C1A13615  13.741   4.837   6.230 -0.1542  0.2625  0.2155
  872loPI   C2A13616  13.912   4.801   6.638  0.4872  0.0286 -0.0866
  872loPI   C3A13617  13.926   4.739   7.140 -0.0042 -0.5519  0.0750
  872loPI   C4A13618  13.952   4.898   7.604  0.0001  0.2843 -0.1931
  872loPI   C5A13619  14.265   5.114   7.835 -0.3043 -0.1414 -0.0685
  872loPI   C6A13620  14.753   5.322   7.893 -0.0534 -0.0766 -0.3182
  872loPI   C1B13621  13.372   4.505   6.263 -0.1802 -0.0506 -0.0306
  872loPI   C2B13622  13.468   4.555   6.718  0.0733 -0.1064  0.1099
  872loPI   C3B13623  13.417   4.574   7.180 -0.0749  0.0238 -0.1138
  872loPI   C4B13624  13.487   4.596   7.587  0.1531 -0.1443  0.1362
  873loPI    C113625   7.401   5.430   6.034 -0.1041  0.2063 -0.2197
  873loPI    C213626   7.794   5.361   6.012 -0.1074  0.0748  0.0806
  873loPI    C313627   7.583   5.425   5.678  0.1357 -0.0350 -0.0972
  873loPI   PO413628   7.374   5.417   6.343  0.0995 -0.0088  0.3133
  873loPI   GL113629   7.356   5.731   6.639 -0.0672  0.2493 -0.1068
  873loPI   GL213630   7.198   5.552   6.778  0.0798  0.1488 -0.1326
  873loPI   C1A13631   7.553   5.859   7.085 -0.2024 -0.3251  0.2100
  873loPI   C2A13632   7.584   6.065   7.477 -0.1623  0.1024  0.1253
  873loPI   C3A13633   7.817   6.170   7.899  0.0692  0.1084 -0.2043
  873loPI   C4A13634   7.941   6.320   8.305  0.0689  0.0855 -0.0435
  873loPI   C5A13635   8.226   6.131   8.585 -0.0748  0.2000  0.0946
  873loPI   C6A13636   8.413   6.472   8.960  0.0654  0.1013  0.1205
  873loPI   C1B13637   7.147   5.664   7.209 -0.1780  0.5701 -0.0710
  873loPI   C2B13638   7.322   5.657   7.705  0.1700 -0.1458 -0.3230
  873loPI   C3B13639   7.463   5.674   8.127  0.2294  0.1555 -0.1913
  873loPI   C4B13640   7.911   5.738   8.216 -0.0245 -0.0817 -0.0917
  874loPI    C113641  12.021  10.331   5.278  0.0627  0.2983  0.1883
  874loPI    C213642  11.981  10.644   5.031  0.1529  0.1861  0.0298
  874loPI    C313643  11.815  10.292   4.938  0.0496  0.1861  0.2089
  874loPI   PO413644  12.109  10.429   5.460  0.1795  0.1289 -0.1254
  874loPI   GL113645  12.156  10.350   5.905 -0.0741  0.4003 -0.1101
  874loPI   GL213646  11.881  10.461   5.955 -0.0980 -0.2232 -0.3472
  874loPI   C1A13647  12.306  10.165   6.214 -0.2855 -0.0096  0.6161
  874loPI   C2A13648  12.450  10.277   6.590  0.2796  0.3563  0.0235
  874loPI   C3A13649  12.401  10.286   7.066 -0.2866 -0.0591  0.2852
  874loPI   C4A13650  12.480  10.239   7.512  0.1129  0.4657 -0.0040
  874loPI   C5A13651  12.471  10.290   8.001 -0.0983  0.0003  0.0794
  874loPI   C6A13652  12.448  10.619   8.412  0.0517  0.1608 -0.3595
  874loPI   C1B13653  11.924  10.453   6.411  0.1797 -0.0170 -0.0522
  874loPI   C2B13654  11.883  10.365   6.779  0.1194  0.0396  0.2567
  874loPI   C3B13655  11.972  10.471   7.204 -0.3040  0.1507 -0.0191
  874loPI   C4B13656  12.019  10.505   7.666 -0.2239  0.2290  0.0865
  875loPI    C113657  10.030   9.200   5.321 -0.0842 -0.3396  0.0895
  875loPI    C213658  10.308   8.994   5.119  0.0196  0.0476 -0.1752
  875loPI    C313659  10.001   9.161   4.924 -0.1737 -0.0227  0.0622
  875loPI   PO413660  10.203   9.181   5.546  0.0277  0.1544 -0.1777
  875loPI   GL113661  10.282   9.364   5.869  0.1188  0.3281  0.2818
  875loPI   GL213662   9.950   9.320   5.959  0.1935  0.0505 -0.0281
  875loPI   C1A13663  10.534   9.639   6.128 -0.0323 -0.0875  0.3413
  875loPI   C2A13664  10.606   9.707   6.504 -0.1769 -0.0689  0.1626
  875loPI   C3A13665  10.595   9.570   6.942 -0.1092 -0.0416 -0.2570
  875loPI   C4A13666  10.645   9.642   7.351 -0.2812 -0.2025 -0.1034
  875loPI   C5A13667  10.624   9.583   7.805 -0.1380  0.2256 -0.0788
  875loPI   C6A13668  10.431   9.817   8.068 -0.0540 -0.5505 -0.2025
  875loPI   C1B13669  10.177   9.346   6.382 -0.2455  0.7622 -0.1829
  875loPI   C2B13670  10.133   9.384   6.819  0.0998 -0.0688  0.0532
  875loPI   C3B13671  10.180   9.327   7.216  0.2588  0.1212  0.1232
  875loPI   C4B13672  10.196   9.314   7.624  0.0017  0.4410  0.2041
  876loPI    C113673   2.320   6.574   5.083 -0.2165 -0.2023 -0.2187
  876loPI    C213674   2.525   6.828   4.852  0.0350  0.0181  0.2341
  876loPI    C313675   2.143   6.745   4.768  0.1149  0.1079 -0.2427
  876loPI   PO413676   2.398   6.611   5.292  0.0116  0.1400  0.1276
  876loPI   GL113677   2.122   6.680   5.599 -0.2393  0.1553  0.1465
  876loPI   GL213678   2.028   7.000   5.815  0.1446 -0.2343 -0.0149
  876loPI   C1A13679   2.156   6.453   5.982  0.0651  0.3200  0.2979
  876loPI   C2A13680   2.188   6.523   6.402 -0.1855  0.0977  0.1529
  876loPI   C3A13681   2.249   6.555   6.803 -0.2866 -0.3023  0.0960
  876loPI   C4A13682   2.285   6.569   7.241 -0.1475 -0.0172  0.0821
  876loPI   C5A13683   2.269   6.663   7.757  0.3459 -0.2627  0.0572
  876loPI   C6A13684   2.245   6.488   8.174  0.1147  0.2588 -0.0806
  876loPI   C1B13685   2.124   6.943   6.132 -0.2308  0.1692 -0.0650
  876loPI   C2B13686   2.166   7.000   6.532 -0.0414 -0.0775  0.2549
  876loPI   C3B13687   2.178   7.040   6.838 -0.0509 -0.0494  0.1615
  876loPI   C4B13688   2.281   7.075   7.307  0.0262 -0.2699  0.0788
  877loPI    C113689  15.920   6.549   5.230 -0.4447  0.2404 -0.0416
  877loPI    C213690  15.750   6.192   5.171  0.2090 -0.0709 -0.1256
  877loPI    C313691  15.878   6.406   4.858  0.1010  0.0962 -0.0565
  877loPI   PO413692  16.124   6.493   5.343  0.2811 -0.0046 -0.0381
  877loPI   GL113693  16.077   6.573   5.828 -0.2571  0.1546  0.0562
  877loPI   GL213694  15.996   6.859   5.982 -0.1783 -0.2030  0.0524
  877loPI   C1A13695  15.993   6.250   6.217  0.0519  0.0884 -0.0146
  877loPI   C2A13696  16.065   6.178   6.625 -0.4609 -0.0388  0.0109
  877loPI   C3A13697  16.112   6.176   7.026 -0.1469  0.1712 -0.0967
  877loPI   C4A13698  16.029   6.234   7.441  0.2236  0.1115  0.0114
  877loPI   C5A13699  15.765   6.395   7.747 -0.1055 -0.1281 -0.1718
  877loPI   C6A13700  15.624   6.592   8.044  0.0181  0.0745 -0.2365
  877loPI   C1B13701  16.065   6.727   6.399 -0.3723 -0.2150 -0.2155
  877loPI   C2B13702  16.095   6.739   6.856  0.0277  0.1877  0.2375
  877loPI   C3B13703  16.071   6.681   7.238 -0.0940 -0.2132 -0.2652
  877loPI   C4B13704  16.015   6.834   7.742  0.0071 -0.1359 -0.0698
  878loPI    C113705  10.974   8.492   5.308 -0.0113  0.0659  0.0119
  878loPI    C213706  10.596   8.456   5.182  0.1470 -0.2490 -0.3952
  878loPI    C313707  10.810   8.780   5.085  0.0083 -0.1063 -0.2295
  878loPI   PO413708  10.920   8.504   5.621  0.1435 -0.0955 -0.0238
  878loPI   GL113709  10.959   8.413   5.999  0.3432 -0.3052  0.0789
  878loPI   GL213710  11.200   8.298   5.994 -0.3217  0.3000 -0.1387
  878loPI   C1A13711  10.985   8.454   6.407  0.3470 -0.1904  0.1415
  878loPI   C2A13712  11.053   8.399   6.803 -0.2979 -0.2151  0.0059
  878loPI   C3A13713  11.159   8.373   7.298  0.1650  0.0886 -0.0605
  878loPI   C4A13714  11.080   8.422   7.745 -0.2623 -0.1800  0.1360
  878loPI   C5A13715  11.370   8.306   8.109  0.0882  0.0246 -0.0976
  878loPI   C6A13716  11.692   8.276   8.341  0.0494 -0.0582  0.0364
  878loPI   C1B13717  11.410   8.131   6.259 -0.0384 -0.2560  0.0343
  878loPI   C2B13718  11.501   8.114   6.695 -0.0522 -0.0013  0.0553
  878loPI   C3B13719  11.640   8.102   7.147 -0.0847  0.1209  0.1109
  878loPI   C4B13720  11.542   8.138   7.679 -0.1384 -0.2876 -0.1228
  879loPI    C113721  13.590   9.520   5.292 -0.1507  0.1838  0.1713
  879loPI    C213722  13.690   9.786   5.010 -0.0406  0.0280  0.0620
  879loPI    C313723  13.476   9.462   4.913  0.0854 -0.0788  0.1376
  879loPI   PO413724  13.530   9.675   5.473  0.0653  0.3315 -0.4529
  879loPI   GL113725  13.413   9.630   5.862 -0.1876 -0.0159 -0.2622
  879loPI   GL213726  13.728   9.520   5.949  0.0371  0.2245  0.2511
  879loPI   C1A13727  13.225   9.809   6.179  0.0084 -0.1667  0.1815
  879loPI   C2A13728  13.266   9.753   6.556  0.2697  0.1189 -0.0090
  879loPI   C3A13729  13.255   9.700   6.932 -0.0718 -0.1951 -0.1566
  879loPI   C4A13730  13.411   9.733   7.424  0.1043  0.0618  0.1386
  879loPI   C5A13731  13.379   9.743   7.865 -0.1722 -0.1974  0.1077
  879loPI   C6A13732  13.289  10.139   8.105  0.1533 -0.2679 -0.0560
  879loPI   C1B13733  13.679   9.519   6.324  0.1106  0.1003  0.4749
  879loPI   C2B13734  13.751   9.538   6.770  0.2302  0.0131 -0.0797
  879loPI   C3B13735  13.721   9.506   7.174  0.2216 -0.1507  0.1659
  879loPI   C4B13736  13.838   9.481   7.606  0.2897 -0.4087 -0.0217
  880loPI    C113737  10.586   5.802   5.943 -0.1505 -0.3520 -0.2953
  880loPI    C213738  10.211   5.814   6.082 -0.0751 -0.0004 -0.1114
  880loPI    C313739  10.283   5.891   5.696 -0.1853 -0.0147 -0.1354
  880loPI   PO413740  10.679   5.541   5.983  0.0058 -0.1197  0.1662
  880loPI   GL113741  10.927   5.435   6.284  0.1512 -0.0395  0.0162
  880loPI   GL213742  11.117   5.774   6.459 -0.0925 -0.0761  0.3406
  880loPI   C1A13743  11.059   5.338   6.731  0.0138 -0.1776 -0.4186
  880loPI   C2A13744  11.253   5.337   7.127  0.0952 -0.1865 -0.0573
  880loPI   C3A13745  11.178   5.292   7.538 -0.1092  0.3864 -0.0871
  880loPI   C4A13746  11.279   5.143   7.938  0.0322 -0.2299  0.1699
  880loPI   C5A13747  11.203   5.060   8.451 -0.2185  0.2985 -0.3372
  880loPI   C6A13748  10.845   4.708   8.530  0.5036 -0.1652  0.3869
  880loPI   C1B13749  11.125   5.831   6.990 -0.2871 -0.2530 -0.1911
  880loPI   C2B13750  11.198   5.897   7.470 -0.3347 -0.0097  0.0684
  880loPI   C3B13751  11.236   5.666   7.844  0.2051  0.1790  0.1570
  880loPI   C4B13752  11.336   5.491   8.296  0.1625  0.0915 -0.1084
  881loPI    C113753  13.246  13.034   5.475  0.0420 -0.0206  0.0397
  881loPI    C213754  12.924  12.799   5.498 -0.0129  0.0502 -0.0002
  881loPI    C313755  13.083  12.886   5.141 -0.1020  0.2200  0.0003
  881loPI   PO413756  13.237  13.126   5.647  0.1961 -0.0379  0.0297
  881loPI   GL113757  13.288  12.933   6.025 -0.2610  0.2326  0.1672
  881loPI   GL213758  13.149  12.723   6.013  0.0326  0.3786 -0.2837
  881loPI   C1A13759  13.287  12.854   6.496  0.4211 -0.3631 -0.1593
  881loPI   C2A13760  13.238  12.893   6.867 -0.0215 -0.1495 -0.0586
  881loPI   C3A13761  13.245  12.838   7.292  0.0309  0.3851  0.0002
  881loPI   C4A13762  13.354  12.756   7.696  0.2195  0.0658 -0.1740
  881loPI   C5A13763  13.613  12.680   8.068  0.0627  0.1551 -0.0081
  881loPI   C6A13764  13.620  12.253   8.365  0.0436 -0.0904  0.2301
  881loPI   C1B13765  13.260  12.409   6.315  0.3308 -0.2154  0.1285
  881loPI   C2B13766  13.327  12.330   6.712  0.1125 -0.0327 -0.1653
  881loPI   C3B13767  13.278  12.353   7.165  0.1481 -0.3699 -0.1096
  881loPI   C4B13768  13.279  12.260   7.627  0.2514  0.1420 -0.1569
  882loPI    C113769  10.582  17.809   5.480 -0.0711 -0.1676  0.1664
  882loPI    C213770  10.309  18.069   5.613 -0.1059 -0.1287  0.0206
  882loPI    C313771  10.246  17.871   5.272  0.1456  0.0437 -0.1291
  882loPI   PO413772  10.811  17.827   5.705  0.2602  0.0533 -0.1201
  882loPI   GL113773  11.048  17.723   6.020  0.1682 -0.1630 -0.2682
  882loPI   GL213774  10.795  17.454   6.023  0.0224  0.1139  0.1250
  882loPI   C1A13775  10.922  17.752   6.469  0.4043 -0.1024 -0.2385
  882loPI   C2A13776  10.944  17.721   6.966 -0.1673  0.1647 -0.4040
  882loPI   C3A13777  10.900  17.651   7.221 -0.0349  0.3145 -0.0698
  882loPI   C4A13778  10.922  17.722   7.708  0.4169  0.1200 -0.1666
  882loPI   C5A13779  10.998  17.654   8.181  0.2571 -0.2218  0.1838
  882loPI   C6A13780  10.876  17.789   8.563  0.0244 -0.0766 -0.0721
  882loPI   C1B13781  10.876  17.170   6.396  0.0178 -0.0460 -0.1323
  882loPI   C2B13782  10.910  17.217   6.850  0.0052  0.3683  0.1419
  882loPI   C3B13783  10.968  17.119   7.269 -0.1719  0.2027  0.1192
  882loPI   C4B13784  10.960  17.188   7.726  0.2626 -0.1289  0.2543
  883loPI    C113785   4.830   0.325   5.723 -0.3362 -0.1718  0.2812
  883loPI    C213786   4.585   0.185   5.440 -0.0790 -0.0012 -0.0332
  883loPI    C313787   4.968   0.261   5.353 -0.0363  0.2102  0.3202
  883loPI   PO413788   4.807   0.183   5.928 -0.2201 -0.0284  0.0211
  883loPI   GL113789   4.762  -0.040   6.276 -0.0760 -0.0634  0.0886
  883loPI   GL213790   5.139  -0.037   6.510  0.1380  0.4536  0.0548
  883loPI   C1A13791   4.780  -0.312   6.607  0.0584  0.0578 -0.0678
  883loPI   C2A13792   4.845  -0.136   6.973 -0.1924 -0.1759 -0.0962
  883loPI   C3A13793   4.905  -0.224   7.422  0.0349 -0.0563  0.1635
  883loPI   C4A13794   4.995  -0.232   7.850 -0.1369 -0.1676  0.0587
  883loPI   C5A13795   4.785  -0.112   8.294  0.0979  0.1030 -0.1697
  883loPI   C6A13796   4.626  -0.341   8.649 -0.2441 -0.3194 -0.0548
  883loPI   C1B13797   5.258   0.155   6.938  0.1424 -0.2103 -0.3275
  883loPI   C2B13798   5.375   0.043   7.388 -0.1610 -0.0407  0.0095
  883loPI   C3B13799   5.484   0.083   7.831  0.3651  0.3563 -0.2574
  883loPI   C4B13800   5.264   0.097   8.212  0.2510  0.0708  0.3174
  884loPI    C113801  16.500   6.979   5.095 -0.1433 -0.2318  0.0775
  884loPI    C213802  16.443   6.613   4.945 -0.0188 -0.2211  0.0032
  884loPI    C313803  16.147   6.881   4.934  0.0113 -0.1964 -0.2913
  884loPI   PO413804  16.628   6.893   5.338 -0.0542  0.5414  0.1218
  884loPI   GL113805  16.527   6.919   5.808 -0.0061 -0.2528 -0.4944
  884loPI   GL213806  16.792   7.134   5.682 -0.1347  0.2531  0.3135
  884loPI   C1A13807  16.535   7.029   6.242 -0.0663 -0.1333  0.2807
  884loPI   C2A13808  16.518   7.029   6.689 -0.0615  0.0185 -0.1700
  884loPI   C3A13809  16.468   7.021   7.072  0.3996  0.2566 -0.2008
  884loPI   C4A13810  16.578   7.004   7.501  0.1295 -0.0807  0.0821
  884loPI   C5A13811  16.623   7.285   7.866 -0.1932 -0.1404 -0.0397
  884loPI   C6A13812  16.607   7.433   8.268  0.1199  0.3954  0.2722
  884loPI   C1B13813  16.961   7.211   6.072 -0.2309  0.2272  0.0100
  884loPI   C2B13814  16.938   7.225   6.634  0.0211 -0.3230  0.1004
  884loPI   C3B13815  16.963   7.275   7.043 -0.1072 -0.1067  0.0370
  884loPI   C4B13816  16.983   7.239   7.510  0.1149 -0.2071  0.0659
  885loPI    C113817   9.934   8.570   5.226 -0.3484 -0.0107 -0.0681
  885loPI    C213818  10.183   8.476   4.927  0.2950  0.1002  0.4114
  885loPI    C313819   9.836   8.281   4.967  0.1310  0.1705 -0.4686
  885loPI   PO413820  10.127   8.628   5.454 -0.0282  0.1769 -0.1323
  885loPI   GL113821  10.158   8.772   5.827  0.0505 -0.0487 -0.0597
  885loPI   GL213822  10.518   8.620   5.913 -0.0447  0.1746 -0.0437
  885loPI   C1A13823  10.092   8.888   6.277 -0.0001  0.0767 -0.0496
  885loPI   C2A13824  10.126   8.892   6.655  0.0102 -0.0397 -0.2838
  885loPI   C3A13825  10.122   8.809   7.024  0.2037 -0.2398 -0.0448
  885loPI   C4A13826  10.285   8.783   7.398 -0.0596  0.1431  0.0758
  885loPI   C5A13827  10.295   8.879   7.835  0.1755 -0.0418 -0.0190
  885loPI   C6A13828  10.469   8.684   8.254  0.0288 -0.0649  0.2623
  885loPI   C1B13829  10.545   8.640   6.338  0.3239  0.0956  0.0020
  885loPI   C2B13830  10.602   8.707   6.718 -0.2345 -0.1382 -0.1668
  885loPI   C3B13831  10.608   8.558   7.123 -0.1418  0.1328 -0.2505
  885loPI   C4B13832  10.651   8.621   7.650 -0.3020 -0.1682  0.2388
  886loPI    C113833   7.079  13.895   5.438  0.1287 -0.0055 -0.0455
  886loPI    C213834   7.172  13.681   5.113  0.0218  0.0143 -0.0897
  886loPI    C313835   7.219  14.078   5.111  0.0560  0.0105 -0.0679
  886loPI   PO413836   7.015  13.716   5.683 -0.0383 -0.0654  0.2249
  886loPI   GL113837   7.031  13.850   6.057  0.3060  0.0645 -0.1443
  886loPI   GL213838   6.971  14.151   6.208  0.0977 -0.0685  0.2291
  886loPI   C1A13839   6.987  13.725   6.479 -0.1097 -0.0560  0.2517
  886loPI   C2A13840   7.077  13.660   7.009  0.0566 -0.0171 -0.3121
  886loPI   C3A13841   7.106  13.624   7.395 -0.3149 -0.1639  0.1213
  886loPI   C4A13842   6.948  13.687   7.942  0.0176  0.3131  0.0106
  886loPI   C5A13843   6.989  13.480   8.310 -0.2574 -0.1519 -0.0611
  886loPI   C6A13844   7.226  13.191   8.606  0.0337 -0.1855  0.0357
  886loPI   C1B13845   6.991  14.234   6.574  0.1179  0.0624  0.2825
  886loPI   C2B13846   7.056  14.209   6.926 -0.0727  0.1210  0.4161
  886loPI   C3B13847   6.979  14.151   7.249 -0.3939 -0.2026 -0.0498
  886loPI   C4B13848   7.039  14.071   7.640  0.4890  0.1476  0.0990
  887loPI    C113849   3.862   3.956   5.637 -0.0768  0.0672  0.1154
  887loPI    C213850   3.515   3.863   5.460 -0.0184  0.2854 -0.1193
  887loPI    C313851   3.846   3.909   5.240  0.1328  0.2098  0.0886
  887loPI   PO413852   3.809   3.839   5.885  0.1441  0.0790 -0.1183
  887loPI   GL113853   3.628   4.068   6.285  0.1493 -0.0082  0.0070
  887loPI   GL213854   3.734   4.061   6.521 -0.0645  0.1876  0.1689
  887loPI   C1A13855   3.439   4.458   6.621 -0.1581  0.0347 -0.2001
  887loPI   C2A13856   3.582   4.652   6.952  0.1316  0.0701 -0.1908
  887loPI   C3A13857   3.809   4.832   7.269 -0.3067  0.0297 -0.0725
  887loPI   C4A13858   3.772   4.690   7.671  0.0019  0.0562  0.2265
  887loPI   C5A13859   3.913   4.660   8.067 -0.0753 -0.0036  0.0157
  887loPI   C6A13860   4.059   5.028   8.326  0.3443  0.0368  0.1510
  887loPI   C1B13861   3.593   3.853   6.977 -0.0016 -0.2120 -0.2848
  887loPI   C2B13862   3.754   3.764   7.431  0.1110  0.1951  0.0867
  887loPI   C3B13863   3.999   3.782   7.763  0.0888  0.1896  0.3068
  887loPI   C4B13864   4.494   3.645   7.818  0.1818 -0.1394 -0.0772
  888loPI    C113865  15.021   2.631   5.637  0.0992  0.0139  0.0639
  888loPI    C213866  15.351   2.620   5.411 -0.0115 -0.1164 -0.0945
  888loPI    C313867  15.046   2.374   5.331 -0.1188 -0.0475  0.0958
  888loPI   PO413868  15.044   2.876   5.698 -0.0431 -0.2659 -0.0404
  888loPI   GL113869  14.839   3.055   6.146  0.0802 -0.1844 -0.1031
  888loPI   GL213870  14.891   3.348   6.133 -0.1038  0.2489  0.0119
  888loPI   C1A13871  14.786   2.881   6.543  0.0504  0.0078  0.1995
  888loPI   C2A13872  14.706   2.766   6.960 -0.2087  0.1648  0.1843
  888loPI   C3A13873  14.838   2.691   7.277  0.0908  0.3253  0.0741
  888loPI   C4A13874  14.973   2.763   7.701 -0.2574  0.2037  0.2382
  888loPI   C5A13875  15.046   2.789   8.126 -0.1868  0.1840 -0.0783
  888loPI   C6A13876  15.160   2.773   8.518 -0.0519  0.0155 -0.1250
  888loPI   C1B13877  14.832   3.410   6.562  0.1045 -0.1806 -0.0716
  888loPI   C2B13878  14.783   3.284   6.950 -0.1251 -0.0361 -0.1266
  888loPI   C3B13879  14.780   3.274   7.307 -0.2280 -0.0912  0.1646
  888loPI   C4B13880  14.758   3.257   7.784 -0.1164 -0.1599 -0.0752
  889loPI    C113881   2.900   7.772   5.176  0.1714 -0.0209 -0.0737
  889loPI    C213882   3.174   7.672   4.902  0.0855  0.1866 -0.2380
  889loPI    C313883   2.805   7.775   4.787  0.0194  0.1786 -0.0363
  889loPI   PO413884   3.032   7.783   5.411 -0.0021 -0.3209 -0.0078
  889loPI   GL113885   3.291   7.641   5.844  0.0159 -0.0592  0.3604
  889loPI   GL213886   3.003   7.376   5.951 -0.3935 -0.1412 -0.0608
  889loPI   C1A13887   3.477   7.780   6.216 -0.4328  0.1461  0.1159
  889loPI   C2A13888   3.548   7.818   6.670  0.0372 -0.1293 -0.1603
  889loPI   C3A13889   3.660   7.842   7.057 -0.1616  0.1924 -0.1059
  889loPI   C4A13890   3.631   7.868   7.436 -0.2061 -0.1840 -0.1060
  889loPI   C5A13891   3.618   7.930   7.806 -0.3930 -0.2690 -0.2019
  889loPI   C6A13892   3.423   7.913   8.260 -0.0264  0.1026 -0.2027
  889loPI   C1B13893   3.034   7.538   6.351  0.1033  0.0495  0.1088
  889loPI   C2B13894   3.123   7.575   6.721 -0.3561  0.1091  0.1036
  889loPI   C3B13895   3.174   7.678   7.095 -0.0552  0.2690 -0.0154
  889loPI   C4B13896   3.145   7.632   7.457  0.1657  0.1765 -0.4533
  890loPI    C113897   8.010  12.882   5.201  0.2508 -0.0145 -0.1391
  890loPI    C213898   7.694  13.121   5.252  0.0770 -0.2685 -0.0042
  890loPI    C313899   7.886  13.116   4.901 -0.1428 -0.2010 -0.1278
  890loPI   PO413900   7.871  12.679   5.484 -0.1283 -0.0784 -0.0301
  890loPI   GL113901   7.823  12.722   5.904 -0.0525 -0.0785 -0.2630
  890loPI   GL213902   7.783  13.127   5.992 -0.1509  0.1931 -0.2031
  890loPI   C1A13903   7.842  12.703   6.278 -0.0503  0.0831 -0.1108
  890loPI   C2A13904   7.933  12.704   6.707  0.3994  0.0995  0.1536
  890loPI   C3A13905   7.904  12.601   7.142 -0.0965  0.1021  0.1690
  890loPI   C4A13906   7.957  12.670   7.597  0.0743 -0.3413  0.2534
  890loPI   C5A13907   7.907  12.617   8.106  0.0418  0.3721 -0.2227
  890loPI   C6A13908   7.950  12.501   8.521 -0.3046 -0.1407  0.2999
  890loPI   C1B13909   7.860  13.172   6.484 -0.1040  0.0040  0.1290
  890loPI   C2B13910   7.950  13.181   6.964 -0.1671 -0.3216  0.0978
  890loPI   C3B13911   8.014  13.209   7.388  0.0060  0.0897  0.3043
  890loPI   C4B13912   7.912  13.118   7.811  0.0588  0.2742  0.4533
  891loPI    C113913  16.034   0.700   5.288  0.0701  0.1553  0.0630
  891loPI    C213914  15.834   1.035   5.377 -0.1793  0.0497 -0.0862
  891loPI    C313915  15.957   0.969   5.002 -0.1348 -0.0280 -0.0584
  891loPI   PO413916  16.192   0.661   5.487  0.1864  0.1487  0.1994
  891loPI   GL113917  16.105   0.469   5.913 -0.1158  0.3178 -0.0371
  891loPI   GL213918  15.885   0.312   5.978  0.1898 -0.3130  0.0551
  891loPI   C1A13919  16.393   0.511   6.265 -0.1970 -0.1538  0.1649
  891loPI   C2A13920  16.348   0.493   6.770 -0.0593 -0.2296  0.0140
  891loPI   C3A13921  16.287   0.361   7.207  0.1308 -0.1713  0.0953
  891loPI   C4A13922  16.160   0.509   7.588 -0.4468  0.2016  0.0132
  891loPI   C5A13923  16.323   0.458   7.942  0.1419  0.1767  0.1820
  891loPI   C6A13924  16.699   0.561   8.214 -0.0719 -0.0445 -0.1722
  891loPI   C1B13925  15.944   0.201   6.323  0.2083  0.2020  0.0891
  891loPI   C2B13926  15.903   0.198   6.785 -0.0278  0.0347  0.0701
  891loPI   C3B13927  15.861   0.109   7.148  0.0043 -0.2340  0.2289
  891loPI   C4B13928  15.817   0.112   7.613 -0.0049 -0.1901 -0.0086
  892loPI    C113929  11.043   1.679   5.313  0.2049 -0.0600  0.0345
  892loPI    C213930  11.021   2.021   5.108 -0.2933 -0.0870  0.0311
  892loPI    C313931  10.794   1.709   5.001  0.1520 -0.4220  0.0372
  892loPI   PO413932  11.049   1.797   5.690  0.0069 -0.1977 -0.2495
  892loPI   GL113933  11.091   1.922   6.093 -0.2293 -0.0049 -0.1271
  892loPI   GL213934  11.389   1.666   6.123 -0.1323 -0.2450 -0.1025
  892loPI   C1A13935  11.279   2.053   6.472  0.1523  0.4180  0.3110
  892loPI   C2A13936  11.327   2.185   6.820  0.1423  0.1155 -0.0138
  892loPI   C3A13937  11.339   2.133   7.279 -0.0246 -0.1580 -0.3096
  892loPI   C4A13938  11.411   2.069   7.760  0.0271 -0.2809  0.1384
  892loPI   C5A13939  11.302   2.196   8.124  0.0062  0.1856 -0.0384
  892loPI   C6A13940  11.650   2.301   8.479  0.0933  0.0106  0.1062
  892loPI   C1B13941  11.342   1.571   6.630  0.1992  0.0217  0.0356
  892loPI   C2B13942  11.244   1.663   7.070 -0.0112  0.1229 -0.0800
  892loPI   C3B13943  11.375   1.555   7.531  0.0168  0.0867 -0.0996
  892loPI   C4B13944  11.343   1.562   8.025 -0.0115 -0.0785 -0.0844
  893loPI    C113945  17.153  16.301   5.605 -0.0942  0.2249 -0.1642
  893loPI    C213946  17.425  16.456   5.356  0.2148 -0.1519 -0.0722
  893loPI    C313947  17.194  16.152   5.236 -0.0178  0.0232 -0.0760
  893loPI   PO413948  17.291  16.149   5.852 -0.0317 -0.2074 -0.0624
  893loPI   GL113949  17.617  16.211   6.044 -0.1379 -0.0582  0.0399
  893loPI   GL213950  17.959  16.318   6.168 -0.0796  0.0344  0.1081
  893loPI   C1A13951  17.297  16.386   6.394  0.1951  0.1445 -0.0799
  893loPI   C2A13952  17.249  16.375   6.810 -0.2625 -0.1448  0.2510
  893loPI   C3A13953  17.158  16.276   7.176 -0.0163 -0.2006 -0.1138
  893loPI   C4A13954  17.134  16.359   7.653 -0.1925  0.1490 -0.3906
  893loPI   C5A13955  17.061  16.369   8.096  0.2541  0.1317 -0.2318
  893loPI   C6A13956  16.777  16.418   8.409 -0.2095  0.4895  0.0867
  893loPI   C1B13957  18.212  16.495   6.578  0.4156 -0.1556  0.0420
  893loPI   C2B13958  18.120  16.371   6.974 -0.0519  0.1531 -0.0761
  893loPI   C3B13959  18.087  16.418   7.471 -0.1537 -0.0402  0.1421
  893loPI   C4B13960  18.078  16.486   7.892 -0.3431  0.0688  0.1213
  894loPI    C113961  13.392   5.820   5.303 -0.0432  0.1112  0.2747
  894loPI    C213962  13.186   6.069   5.067  0.1395 -0.1523 -0.1742
  894loPI    C313963  13.006   5.749   5.227  0.0218  0.0128  0.0274
  894loPI   PO413964  13.407   5.894   5.530  0.2137 -0.3915 -0.0869
  894loPI   GL113965  13.509   5.669   5.928 -0.0464  0.4103 -0.1131
  894loPI   GL213966  13.766   5.371   5.970  0.0829  0.2890 -0.1656
  894loPI   C1A13967  13.437   5.602   6.318  0.0500  0.0950 -0.1795
  894loPI   C2A13968  13.378   5.660   6.730  0.2106  0.2622  0.1158
  894loPI   C3A13969  13.438   5.612   7.180  0.3452 -0.2232  0.2292
  894loPI   C4A13970  13.457   5.656   7.703  0.1699 -0.1018 -0.0294
  894loPI   C5A13971  13.540   5.548   8.053 -0.2771 -0.2591 -0.0357
  894loPI   C6A13972  13.380   5.138   8.238  0.1195 -0.0799  0.1770
  894loPI   C1B13973  13.879   5.409   6.427 -0.0253  0.2176  0.2625
  894loPI   C2B13974  13.823   5.408   6.967 -0.2419  0.0493 -0.3758
  894loPI   C3B13975  13.954   5.375   7.388 -0.3893  0.1354  0.3588
  894loPI   C4B13976  13.910   5.434   7.754 -0.1458  0.0579  0.2036
  895loPI    C113977  13.649  11.553   5.047  0.0029 -0.1397 -0.0268
  895loPI    C213978  14.049  11.531   5.043  0.0085 -0.0432 -0.0265
  895loPI    C313979  13.848  11.605   4.704 -0.0095 -0.0984 -0.0279
  895loPI   PO413980  13.605  11.550   5.335  0.2227 -0.1204  0.2073
  895loPI   GL113981  13.698  11.500   5.706 -0.0941  0.2162  0.1201
  895loPI   GL213982  13.803  11.269   5.868 -0.0257 -0.0141  0.1278
  895loPI   C1A13983  13.783  11.650   6.145 -0.1550  0.3528  0.3808
  895loPI   C2A13984  13.760  11.592   6.501 -0.1008  0.3781 -0.0640
  895loPI   C3A13985  13.707  11.499   6.974  0.4690 -0.2778  0.2710
  895loPI   C4A13986  13.682  11.480   7.406  0.3313 -0.0643  0.1073
  895loPI   C5A13987  13.769  11.378   7.829 -0.0327 -0.0508 -0.2159
  895loPI   C6A13988  13.919  11.335   8.237  0.2986  0.2644 -0.1712
  895loPI   C1B13989  13.706  11.127   6.284  0.0287 -0.0268  0.3568
  895loPI   C2B13990  13.660  11.070   6.688  0.2793  0.2100 -0.0276
  895loPI   C3B13991  13.681  11.041   7.146 -0.0764  0.1432  0.0380
  895loPI   C4B13992  13.776  10.952   7.597  0.1815 -0.0022  0.1381
  896loPI    C113993  15.622   0.668   5.667  0.0310 -0.3173  0.0787
  896loPI    C213994  15.785   0.346   5.495  0.2022 -0.0969 -0.1795
  896loPI    C313995  15.563   0.598   5.278 -0.1017 -0.1465  0.0667
  896loPI   PO413996  15.756   0.792   5.775 -0.0069 -0.2334 -0.0137
  896loPI   GL113997  15.924   0.778   6.243  0.2733  0.1355 -0.1772
  896loPI   GL213998  16.252   0.950   6.286  0.2336 -0.1134  0.0296
  896loPI   C1A13999  15.956   0.698   6.590  0.0117 -0.0206 -0.3016
  896loPI   C2A14000  15.947   0.685   7.062  0.1184  0.1568  0.1114
  896loPI   C3A14001  15.735   0.514   7.380  0.2359 -0.1036  0.0069
  896loPI   C4A14002  15.801   0.474   7.895  0.1566 -0.0422  0.1550
  896loPI   C5A14003  15.619   0.659   8.136 -0.1705  0.1527 -0.1979
  896loPI   C6A14004  15.418   0.939   8.204  0.0359  0.3508 -0.3118
  896loPI   C1B14005  16.211   1.116   6.661  0.0034  0.0712  0.3635
  896loPI   C2B14006  16.309   0.978   7.090 -0.1338  0.1618  0.1996
  896loPI   C3B14007  16.289   0.965   7.479  0.1072  0.2691  0.1603
  896loPI   C4B14008  16.074   0.910   7.880 -0.0602 -0.2114 -0.2691
  897loPI    C114009  13.341  15.977   5.494  0.1703  0.2334 -0.2701
  897loPI    C214010  13.725  15.924   5.394  0.1892 -0.1829 -0.0046
  897loPI    C314011  13.435  15.770   5.165  0.1838 -0.0134 -0.1139
  897loPI   PO414012  13.408  16.000   5.734  0.0431  0.3166 -0.2849
  897loPI   GL114013  13.322  15.819   6.100  0.2146  0.0076 -0.1181
  897loPI   GL214014  13.630  15.922   6.234 -0.0549  0.0862 -0.3489
  897loPI   C1A14015  13.240  15.922   6.531 -0.2169  0.1959 -0.0148
  897loPI   C2A14016  13.196  15.906   6.948 -0.0071  0.3497 -0.1684
  897loPI   C3A14017  13.137  15.939   7.302  0.0188 -0.1368 -0.3035
  897loPI   C4A14018  13.233  15.933   7.755  0.1585 -0.1966 -0.0692
  897loPI   C5A14019  13.276  15.910   8.253  0.0709  0.1170 -0.1149
  897loPI   C6A14020  13.013  15.807   8.598 -0.2898  0.1418  0.3971
  897loPI   C1B14021  13.682  15.800   6.729  0.2057  0.0398 -0.1687
  897loPI   C2B14022  13.629  15.633   7.154 -0.0090  0.0465  0.5458
  897loPI   C3B14023  13.600  15.653   7.543 -0.1632  0.2284  0.1746
  897loPI   C4B14024  13.589  15.627   8.054 -0.1099 -0.1817 -0.4289
  898loPI    C114025   7.490  12.382   5.313  0.0651  0.2853  0.0125
  898loPI    C214026   7.688  12.209   5.011 -0.0593 -0.2955  0.2504
  898loPI    C314027   7.294  12.272   4.982 -0.0157 -0.0485  0.1675
  898loPI   PO414028   7.583  12.252   5.610  0.3363  0.0752 -0.1156
  898loPI   GL114029   7.537  12.317   5.964  0.2087  0.0892 -0.3353
  898loPI   GL214030   7.772  12.189   6.143  0.0965 -0.4048  0.0308
  898loPI   C1A14031   7.412  12.451   6.379  0.1102 -0.1249 -0.0922
  898loPI   C2A14032   7.412  12.372   6.816  0.2603 -0.0095  0.0179
  898loPI   C3A14033   7.440  12.388   7.256 -0.0879  0.1351  0.0793
  898loPI   C4A14034   7.565  12.406   7.743 -0.0251 -0.0794  0.2819
  898loPI   C5A14035   7.529  12.322   8.287 -0.2158 -0.0412  0.3287
  898loPI   C6A14036   7.637  12.124   8.663 -0.0706 -0.1842 -0.2993
  898loPI   C1B14037   7.868  12.249   6.498 -0.1534  0.1727  0.0112
  898loPI   C2B14038   7.835  12.076   6.874  0.1431 -0.1751 -0.3477
  898loPI   C3B14039   7.905  12.142   7.324  0.1387 -0.2077  0.2650
  898loPI   C4B14040   7.976  12.162   7.748 -0.3103  0.0280 -0.2091
  899loPI    C114041  12.314   9.550   5.535 -0.1262 -0.0971 -0.0183
  899loPI    C214042  12.591   9.585   5.249  0.1845  0.1856  0.3066
  899loPI    C314043  12.265   9.817   5.241  0.1239  0.0967  0.1125
  899loPI   PO414044  12.499   9.502   5.792 -0.0900 -0.1751  0.3425
  899loPI   GL114045  12.483   9.707   6.092  0.3371 -0.0859  0.1333
  899loPI   GL214046  12.258   9.588   6.333  0.0399  0.0833  0.0309
  899loPI   C1A14047  12.783   9.581   6.424  0.3840  0.3903 -0.1608
  899loPI   C2A14048  12.814   9.501   6.853  0.0287  0.0074 -0.1076
  899loPI   C3A14049  12.929   9.518   7.287  0.1224 -0.0023  0.2377
  899loPI   C4A14050  12.873   9.457   7.748 -0.0665  0.0229 -0.1447
  899loPI   C5A14051  13.011   9.356   8.047  0.1313 -0.1241  0.3192
  899loPI   C6A14052  13.201   9.676   8.333 -0.1517  0.3167 -0.4144
  899loPI   C1B14053  12.372   9.775   6.735 -0.0863  0.0455  0.1025
  899loPI   C2B14054  12.465   9.749   7.170  0.2073  0.1318 -0.1076
  899loPI   C3B14055  12.434   9.743   7.629 -0.1609 -0.0482  0.1737
  899loPI   C4B14056  12.313   9.472   8.022  0.1082 -0.1990 -0.0439
  900loPI    C114057  17.504   5.911   5.207  0.1013 -0.0149 -0.1177
  900loPI    C214058  17.304   5.654   4.974  0.2383 -0.2223 -0.0100
  900loPI    C314059  17.632   5.837   4.836  0.0688 -0.0042 -0.1311
  900loPI   PO414060  17.564   5.817   5.392  0.3331 -0.1027 -0.2326
  900loPI   GL114061  17.521   5.919   5.750  0.0369  0.1672  0.2037
  900loPI   GL214062  17.862   6.071   5.695 -0.1353  0.3684  0.1790
  900loPI   C1A14063  17.351   5.960   6.195  0.0397 -0.0757  0.1790
  900loPI   C2A14064  17.426   6.031   6.671  0.1066  0.2988 -0.2825
  900loPI   C3A14065  17.394   6.006   7.101  0.2166  0.2713 -0.2768
  900loPI   C4A14066  17.458   5.923   7.540  0.0772  0.1360  0.1823
  900loPI   C5A14067  17.336   5.894   7.987 -0.1276  0.0977 -0.0035
  900loPI   C6A14068  17.165   5.517   8.368  0.1911 -0.0222  0.0608
  900loPI   C1B14069  17.847   6.125   6.098 -0.0725  0.1204  0.2318
  900loPI   C2B14070  17.834   6.308   6.463  0.1040 -0.0914  0.0107
  900loPI   C3B14071  17.831   6.229   6.863 -0.0004  0.0697 -0.0637
  900loPI   C4B14072  17.874   6.191   7.246 -0.0032  0.1274  0.0049
  901loPI    C114073  14.937   3.258   5.305 -0.2964  0.0989  0.0288
  901loPI    C214074  15.079   2.969   5.067  0.1016  0.1893  0.1478
  901loPI    C314075  14.923   3.302   4.908  0.0221  0.0892  0.0142
  901loPI   PO414076  15.112   3.328   5.465 -0.0917 -0.0197  0.0809
  901loPI   GL114077  15.293   3.396   5.875 -0.1711 -0.2838  0.1747
  901loPI   GL214078  15.328   3.071   6.019  0.1253  0.1711 -0.1123
  901loPI   C1A14079  15.255   3.657   6.293  0.3962 -0.0089 -0.0261
  901loPI   C2A14080  15.178   3.707   6.817 -0.1299  0.3788  0.0135
  901loPI   C3A14081  15.231   3.594   7.196  0.2789 -0.2217  0.0231
  901loPI   C4A14082  15.233   3.599   7.614 -0.2432 -0.2800  0.2346
  901loPI   C5A14083  15.412   3.699   7.954 -0.0458 -0.1928  0.0860
  901loPI   C6A14084  15.527   3.630   8.400 -0.1247  0.0346  0.0469
  901loPI   C1B14085  15.312   3.184   6.390 -0.0137 -0.1747  0.0158
  901loPI   C2B14086  15.191   3.127   6.795 -0.1350  0.1076  0.1763
  901loPI   C3B14087  15.220   3.068   7.321 -0.1962 -0.1272  0.0163
  901loPI   C4B14088  15.312   3.096   7.799  0.3934 -0.2011 -0.3546
  902loPI    C114089   6.502   5.470   6.279  0.0346  0.0964  0.0113
  902loPI    C214090   6.709   5.704   6.029 -0.0305 -0.1352 -0.2649
  902loPI    C314091   6.902   5.446   6.268  0.0376  0.1527 -0.0027
  902loPI   PO414092   6.299   5.634   6.428 -0.0211 -0.0644 -0.0376
  902loPI   GL114093   6.253   6.012   6.687  0.2009 -0.0471  0.0722
  902loPI   GL214094   5.979   5.877   6.815 -0.2667 -0.1291  0.0595
  902loPI   C1A14095   6.479   6.057   7.044 -0.0487  0.0457 -0.5020
  902loPI   C2A14096   6.251   6.192   7.417  0.1648  0.0298 -0.3130
  902loPI   C3A14097   6.126   6.445   7.744 -0.0868 -0.2590 -0.1217
  902loPI   C4A14098   6.153   6.672   8.134  0.0228 -0.0782 -0.0357
  902loPI   C5A14099   6.124   6.614   8.587  0.0380  0.0919  0.3069
  902loPI   C6A14100   5.884   6.939   8.905 -0.0388  0.0623  0.3301
  902loPI   C1B14101   5.824   5.835   7.248 -0.0468 -0.2671  0.0544
  902loPI   C2B14102   5.895   5.998   7.709 -0.0124 -0.1559  0.0949
  902loPI   C3B14103   6.015   6.125   8.103  0.4309  0.0987  0.1504
  902loPI   C4B14104   6.268   6.066   8.463  0.2906  0.3580  0.0647
  903loPI    C114105  11.329   0.871   5.380 -0.0042  0.2590  0.0917
  903loPI    C214106  11.615   1.081   5.564  0.0526  0.1336  0.1478
  903loPI    C314107  11.714   0.784   5.316 -0.0295  0.0534  0.2106
  903loPI   PO414108  11.186   0.811   5.574  0.0142 -0.1606  0.2546
  903loPI   GL114109  11.310   0.669   5.945  0.4922 -0.0605 -0.3154
  903loPI   GL214110  11.605   0.611   5.852  0.3080 -0.0058 -0.0234
  903loPI   C1A14111  11.157   0.624   6.311 -0.0414 -0.1326  0.0382
  903loPI   C2A14112  11.329   0.598   6.745 -0.3309 -0.0173  0.0933
  903loPI   C3A14113  11.406   0.586   7.158  0.0363 -0.2559 -0.1639
  903loPI   C4A14114  11.411   0.575   7.562  0.0370 -0.1553 -0.1351
  903loPI   C5A14115  11.526   0.699   7.872 -0.2004 -0.0134  0.0175
  903loPI   C6A14116  11.504   0.479   8.260 -0.0234  0.1235 -0.0837
  903loPI   C1B14117  11.707   0.778   6.281  0.1528  0.0097  0.0515
  903loPI   C2B14118  11.692   0.925   6.661 -0.5823 -0.0912  0.0644
  903loPI   C3B14119  11.833   0.790   7.038  0.4231  0.2150 -0.4484
  903loPI   C4B14120  11.897   0.738   7.475  0.0167  0.4110 -0.0854
  904loPI    C114121   4.247   7.312   5.444  0.0894  0.0213 -0.2761
  904loPI    C214122   4.382   7.612   5.217 -0.0719  0.1902 -0.1521
  904loPI    C314123   4.059   7.405   5.104 -0.0767  0.1910 -0.1398
  904loPI   PO414124   4.285   7.442   5.704  0.0821  0.4570 -0.0638
  904loPI   GL114125   4.438   7.487   6.142  0.0403  0.0391  0.0353
  904loPI   GL214126   4.493   7.182   6.284  0.1896 -0.1123 -0.1698
  904loPI   C1A14127   4.461   7.371   6.747 -0.2072 -0.2575  0.3130
  904loPI   C2A14128   4.563   7.347   7.198  0.0266 -0.1610 -0.1837
  904loPI   C3A14129   4.457   7.178   7.668 -0.1757 -0.2281  0.0992
  904loPI   C4A14130   4.397   7.171   8.088  0.2253  0.0008  0.2032
  904loPI   C5A14131   4.027   7.124   8.466  0.1146  0.1427  0.2022
  904loPI   C6A14132   3.988   6.700   8.712  0.1498  0.3037 -0.0642
  904loPI   C1B14133   4.865   7.025   6.665  0.0563  0.0300 -0.0036
  904loPI   C2B14134   4.970   7.035   7.070 -0.0019  0.3647 -0.0671
  904loPI   C3B14135   5.031   7.047   7.550  0.0355  0.1781 -0.1395
  904loPI   C4B14136   4.895   7.266   7.942 -0.1039  0.1693 -0.2700
  905loPI    C114137  17.100  12.883   5.169 -0.1416 -0.0823  0.0981
  905loPI    C214138  17.223  13.157   4.905  0.1623 -0.3109 -0.0044
  905loPI    C314139  17.021  12.836   4.780 -0.1113 -0.1850  0.1042
  905loPI   PO414140  17.100  12.924   5.429  0.0833  0.1573 -0.0185
  905loPI   GL114141  16.816  13.101   5.867 -0.1125 -0.2564  0.0679
  905loPI   GL214142  16.983  12.823   5.902 -0.1532  0.0497 -0.0682
  905loPI   C1A14143  16.875  13.057   6.361 -0.1593 -0.0524  0.1573
  905loPI   C2A14144  16.862  13.118   6.755  0.2784  0.2162 -0.0455
  905loPI   C3A14145  16.833  12.913   7.109  0.0843  0.3124  0.1620
  905loPI   C4A14146  16.885  13.027   7.608 -0.3377  0.2189 -0.0110
  905loPI   C5A14147  17.055  13.019   8.027  0.0561 -0.2142  0.0571
  905loPI   C6A14148  17.293  13.221   8.206  0.3208  0.0364  0.1975
  905loPI   C1B14149  16.998  12.491   6.268 -0.1791  0.1012  0.2985
  905loPI   C2B14150  16.894  12.329   6.665 -0.1761  0.1059  0.1522
  905loPI   C3B14151  16.885  12.365   7.109 -0.1440 -0.1381  0.0850
  905loPI   C4B14152  16.853  12.458   7.621  0.1824  0.0041 -0.1335
  906loPI    C114153   9.653  11.664   5.087  0.0007 -0.1710 -0.0875
  906loPI    C214154   9.450  11.954   4.901 -0.1611 -0.2491 -0.0348
  906loPI    C314155   9.783  11.806   4.736 -0.2027 -0.1916 -0.1725
  906loPI   PO414156   9.587  11.813   5.410 -0.1893  0.1641 -0.1905
  906loPI   GL114157   9.640  11.799   5.891  0.0024  0.0796  0.1814
  906loPI   GL214158   9.264  11.944   5.932  0.2386 -0.0456 -0.2372
  906loPI   C1A14159   9.666  11.670   6.376  0.0889  0.0458 -0.2789
  906loPI   C2A14160   9.690  11.713   6.811  0.2256  0.1603  0.2183
  906loPI   C3A14161   9.656  11.586   7.294 -0.1040  0.0814 -0.0896
  906loPI   C4A14162   9.813  11.648   7.706 -0.0819  0.2528  0.0079
  906loPI   C5A14163   9.914  11.583   8.158  0.0035  0.4156 -0.2287
  906loPI   C6A14164  10.090  11.315   8.284 -0.0124 -0.1665 -0.0090
  906loPI   C1B14165   9.250  11.943   6.274  0.2529  0.0435 -0.1957
  906loPI   C2B14166   9.248  11.954   6.627 -0.1457  0.1198 -0.2920
  906loPI   C3B14167   9.297  11.899   7.184 -0.2283 -0.2005  0.0970
  906loPI   C4B14168   9.351  11.940   7.617 -0.1305  0.0725 -0.1325
  907loPI    C114169   9.736  17.749   5.426  0.1419  0.1521 -0.1024
  907loPI    C214170   9.440  18.001   5.332 -0.0644 -0.0571 -0.0240
  907loPI    C314171   9.579  17.746   5.058 -0.0063 -0.0092 -0.0392
  907loPI   PO414172   9.863  17.871   5.620  0.1975  0.4367 -0.1228
  907loPI   GL114173  10.075  17.746   6.001  0.2440 -0.1632  0.0305
  907loPI   GL214174  10.334  17.618   5.944 -0.0853  0.0504  0.0525
  907loPI   C1A14175   9.936  17.727   6.396  0.2091  0.2983 -0.1462
  907loPI   C2A14176  10.072  17.729   6.853  0.2725 -0.0735  0.1610
  907loPI   C3A14177  10.021  17.650   7.302 -0.2942 -0.2204  0.3122
  907loPI   C4A14178  10.011  17.556   7.727  0.3070  0.0774  0.3178
  907loPI   C5A14179  10.048  17.442   8.067 -0.0813  0.1670  0.1658
  907loPI   C6A14180   9.960  17.429   8.541  0.0583 -0.1192  0.0226
  907loPI   C1B14181  10.376  17.499   6.338 -0.3413  0.0967 -0.0437
  907loPI   C2B14182  10.529  17.563   6.759 -0.0524 -0.0926  0.0135
  907loPI   C3B14183  10.501  17.395   7.170 -0.2878 -0.1821  0.3330
  907loPI   C4B14184  10.523  17.438   7.613 -0.2257  0.2262  0.1358
  908loPI    C114185   8.349   1.001   5.693 -0.0425 -0.0268 -0.0117
  908loPI    C214186   8.359   1.396   5.629  0.0073 -0.0218  0.0271
  908loPI    C314187   8.325   1.144   5.320 -0.4108  0.0266  0.0286
  908loPI   PO414188   8.292   1.091   6.033 -0.1738  0.2107 -0.0447
  908loPI   GL114189   8.562   1.014   6.357 -0.3077 -0.2550 -0.1443
  908loPI   GL214190   8.810   0.893   6.202  0.2290 -0.3423 -0.0754
  908loPI   C1A14191   8.806   0.961   6.781 -0.0439  0.2427  0.0985
  908loPI   C2A14192   9.097   0.739   7.138  0.0792 -0.0229  0.0476
  908loPI   C3A14193   9.088   0.655   7.669  0.1520  0.1175 -0.2381
  908loPI   C4A14194   8.982   0.690   8.026 -0.0689 -0.2174 -0.1452
  908loPI   C5A14195   8.884   0.757   8.463  0.2006 -0.0632 -0.1613
  908loPI   C6A14196   8.463   0.654   8.658 -0.1450  0.0277  0.0914
  908loPI   C1B14197   8.977   0.555   6.590 -0.2645 -0.0565  0.0767
  908loPI   C2B14198   9.091   0.336   6.923  0.0717 -0.1542 -0.0633
  908loPI   C3B14199   9.147   0.260   7.383  0.0953  0.0783 -0.0399
  908loPI   C4B14200   9.108   0.179   7.757 -0.2531  0.3740  0.1755
  909loPI    C114201   4.873  11.275   5.733  0.3597 -0.0183 -0.0035
  909loPI    C214202   4.808  10.965   5.488  0.1950  0.0344 -0.0279
  909loPI    C314203   4.993  11.293   5.351  0.1690  0.0348 -0.0621
  909loPI   PO414204   4.715  11.219   5.864 -0.1659  0.0718 -0.3177
  909loPI   GL114205   4.684  11.366   6.274 -0.2035  0.1930 -0.0087
  909loPI   GL214206   4.382  11.433   6.237 -0.0768  0.0841  0.0725
  909loPI   C1A14207   4.751  11.281   6.698 -0.0711  0.1525  0.2307
  909loPI   C2A14208   4.837  11.318   7.127 -0.1089  0.2369  0.1508
  909loPI   C3A14209   4.796  11.306   7.613 -0.1051  0.0024  0.0404
  909loPI   C4A14210   4.817  11.329   7.994 -0.0296  0.1037 -0.1883
  909loPI   C5A14211   4.954  11.310   8.536 -0.0725  0.0869 -0.2634
  909loPI   C6A14212   5.323  11.350   8.838 -0.3664  0.0382 -0.1732
  909loPI   C1B14213   4.340  11.530   6.576 -0.1468 -0.0924  0.0118
  909loPI   C2B14214   4.396  11.491   6.997 -0.0834 -0.0172 -0.1416
  909loPI   C3B14215   4.384  11.588   7.426  0.1108 -0.1397 -0.1456
  909loPI   C4B14216   4.296  11.536   7.805  0.3394  0.1301 -0.1575
  910loPI    C114217   4.368   3.847   6.176  0.1698 -0.1720  0.0143
  910loPI    C214218   4.353   3.937   5.787  0.0976 -0.0687  0.0405
  910loPI    C314219   4.700   3.828   5.953  0.1523 -0.0005 -0.0281
  910loPI   PO414220   4.230   4.074   6.236 -0.0970 -0.0977 -0.0760
  910loPI   GL114221   4.292   4.217   6.605 -0.1183  0.3993 -0.1527
  910loPI   GL214222   4.213   3.836   6.682 -0.0257  0.1490  0.3620
  910loPI   C1A14223   4.547   4.189   7.035  0.0375  0.1578  0.0695
  910loPI   C2A14224   4.677   4.015   7.325 -0.1256  0.0971 -0.2028
  910loPI   C3A14225   4.826   4.040   7.800  0.2078 -0.0248  0.3287
  910loPI   C4A14226   4.938   4.104   8.239  0.1807  0.1345 -0.0456
  910loPI   C5A14227   5.168   4.235   8.597  0.2550 -0.1444  0.3223
  910loPI   C6A14228   5.406   4.237   8.895  0.2477  0.2751 -0.1207
  910loPI   C1B14229   4.129   3.862   7.090 -0.1654  0.1858 -0.3115
  910loPI   C2B14230   4.240   4.072   7.455  0.0231  0.0376 -0.0477
  910loPI   C3B14231   4.367   4.193   7.882  0.2744  0.0349 -0.0684
  910loPI   C4B14232   4.381   3.906   8.253  0.0852  0.1760  0.0528
  911loPI    C114233   5.054  16.051   5.771  0.0437  0.1776 -0.0209
  911loPI    C214234   5.314  16.110   5.472 -0.0868 -0.0097 -0.1742
  911loPI    C314235   4.996  15.874   5.417 -0.2558  0.1651  0.0322
  911loPI   PO414236   5.006  16.317   5.894  0.1034  0.1690  0.2930
  911loPI   GL114237   5.077  16.200   6.298  0.1133 -0.1666 -0.1156
  911loPI   GL214238   5.299  16.109   6.286  0.3628  0.0035 -0.1213
  911loPI   C1A14239   5.033  16.149   6.731  0.0932 -0.1925 -0.0416
  911loPI   C2A14240   5.008  16.181   7.160  0.2413 -0.2130  0.0214
  911loPI   C3A14241   5.068  16.079   7.601  0.1113  0.0226  0.2767
  911loPI   C4A14242   5.201  15.966   8.085  0.0588  0.0869  0.1003
  911loPI   C5A14243   5.547  15.773   8.355  0.1048  0.1084 -0.0717
  911loPI   C6A14244   5.631  15.538   8.706  0.2037 -0.0620  0.2090
  911loPI   C1B14245   5.466  15.905   6.624 -0.0879 -0.2554 -0.3364
  911loPI   C2B14246   5.424  15.977   7.042 -0.3925  0.1040 -0.0404
  911loPI   C3B14247   5.546  15.888   7.415 -0.0197  0.2455 -0.0659
  911loPI   C4B14248   5.656  15.823   7.858  0.1113 -0.3368 -0.2287
  912loPI    C114249   0.355  15.367   5.615 -0.0926 -0.0938  0.0613
  912loPI    C214250   0.612  15.604   5.420 -0.0211 -0.0571  0.1985
  912loPI    C314251   0.432  15.303   5.228 -0.1004  0.0976  0.0267
  912loPI   PO414252   0.453  15.401   5.837 -0.1026 -0.2056 -0.1430
  912loPI   GL114253   0.563  15.539   6.165  0.2360 -0.0458 -0.0352
  912loPI   GL214254   0.845  15.602   6.456 -0.0702 -0.0994  0.0743
  912loPI   C1A14255   0.410  15.444   6.515  0.1640 -0.2238 -0.4205
  912loPI   C2A14256   0.262  15.420   6.968  0.3007  0.1980 -0.2378
  912loPI   C3A14257   0.180  15.339   7.377 -0.0814  0.1195  0.1359
  912loPI   C4A14258   0.183  15.400   7.755 -0.1812 -0.1261 -0.4172
  912loPI   C5A14259   0.197  15.306   8.226  0.0298 -0.4400  0.0493
  912loPI   C6A14260   0.284  15.219   8.736  0.1457 -0.0108  0.1189
  912loPI   C1B14261   0.747  15.546   6.916  0.0581 -0.2710 -0.0137
  912loPI   C2B14262   0.633  15.637   7.231  0.0451  0.4306 -0.1170
  912loPI   C3B14263   0.611  15.665   7.676  0.0346  0.0130  0.0511
  912loPI   C4B14264   0.496  15.764   8.138  0.2299 -0.0991  0.0277
  913loPI    C114265   4.405   4.514   6.163  0.0701  0.0206  0.1628
  913loPI    C214266   4.486   4.687   5.812  0.0351 -0.0888  0.1001
  913loPI    C314267   4.650   4.334   5.903  0.0326 -0.0675  0.1880
  913loPI   PO414268   4.288   4.720   6.270  0.2031  0.1177 -0.1658
  913loPI   GL114269   4.137   4.686   6.676  0.1835  0.1976  0.1591
  913loPI   GL214270   4.047   4.888   6.883 -0.5087  0.0612  0.2669
  913loPI   C1A14271   3.865   4.285   6.927 -0.2424  0.0306 -0.0753
  913loPI   C2A14272   3.797   4.281   7.321 -0.4388 -0.2616  0.2153
  913loPI   C3A14273   3.869   4.221   7.855 -0.1139 -0.2074 -0.1014
  913loPI   C4A14274   3.631   4.292   8.241 -0.0575 -0.0889  0.3648
  913loPI   C5A14275   3.387   3.968   8.446 -0.1222 -0.1120  0.0276
  913loPI   C6A14276   3.244   3.663   8.559  0.0706 -0.0603 -0.2026
  913loPI   C1B14277   4.247   5.131   7.242 -0.1246  0.3298  0.3550
  913loPI   C2B14278   4.505   5.212   7.621  0.2284 -0.4188 -0.1468
  913loPI   C3B14279   4.418   5.292   8.078 -0.2252  0.2112 -0.0110
  913loPI   C4B14280   4.737   5.182   8.402  0.1572  0.1711  0.3822
  914loPI    C114281   2.196   2.425   5.802 -0.0623  0.1934 -0.0284
  914loPI    C214282   2.068   2.445   5.423  0.0270 -0.0709 -0.0742
  914loPI    C314283   2.450   2.525   5.510 -0.0070  0.0465 -0.0313
  914loPI   PO414284   2.076   2.572   5.968 -0.0997  0.0928 -0.1222
  914loPI   GL114285   1.816   2.649   6.308  0.1496  0.0445  0.1209
  914loPI   GL214286   1.577   2.441   6.326  0.2765 -0.0714 -0.0537
  914loPI   C1A14287   1.908   2.710   6.665 -0.0845  0.2749 -0.0322
  914loPI   C2A14288   1.845   2.651   7.077 -0.0410  0.0796  0.1476
  914loPI   C3A14289   1.838   2.634   7.485  0.0308 -0.0832  0.1541
  914loPI   C4A14290   1.876   2.519   7.952 -0.2279  0.1668 -0.2465
  914loPI   C5A14291   2.028   2.291   8.344  0.0364  0.2326  0.0710
  914loPI   C6A14292   2.203   1.950   8.580  0.0740  0.1200 -0.0150
  914loPI   C1B14293   1.519   2.360   6.764 -0.1401  0.0965  0.0611
  914loPI   C2B14294   1.430   2.356   7.240  0.1525 -0.5070 -0.4552
  914loPI   C3B14295   1.486   2.297   7.741 -0.0718  0.0766  0.2570
  914loPI   C4B14296   1.539   2.262   8.198  0.1474  0.1105 -0.3327
  915loPI    C114297   6.059   7.116   5.832 -0.0726  0.3222  0.0108
  915loPI    C214298   5.912   6.754   5.747 -0.0441  0.2495  0.2649
  915loPI    C314299   6.252   6.877   5.575 -0.0125  0.1242  0.2363
  915loPI   PO414300   5.914   7.253   5.971 -0.1226 -0.1852 -0.1992
  915loPI   GL114301   5.895   7.523   6.398  0.0644 -0.2324  0.3227
  915loPI   GL214302   5.639   7.239   6.394  0.0705 -0.1662  0.3406
  915loPI   C1A14303   5.396   7.679   6.547 -0.1149  0.0326  0.1233
  915loPI   C2A14304   5.385   7.784   6.934 -0.0033  0.2866 -0.2331
  915loPI   C3A14305   5.394   7.938   7.337 -0.1242 -0.0019  0.3666
  915loPI   C4A14306   5.632   7.853   7.725  0.0875  0.2800 -0.0826
  915loPI   C5A14307   5.502   7.978   8.083  0.3036 -0.2128 -0.4818
  915loPI   C6A14308   5.153   7.918   8.404 -0.2510  0.2772  0.0798
  915loPI   C1B14309   5.734   7.405   6.836 -0.0719  0.0989  0.3638
  915loPI   C2B14310   5.840   7.606   7.214 -0.1858  0.0893  0.1445
  915loPI   C3B14311   6.016   7.489   7.586 -0.0863  0.1045 -0.0104
  915loPI   C4B14312   5.956   7.230   7.914 -0.2740 -0.0012 -0.0883
  916loPI    C114313  14.333   9.462   5.136 -0.1065  0.1654  0.0199
  916loPI    C214314  14.381   9.218   4.822  0.2654  0.2048  0.0414
  916loPI    C314315  14.036   9.414   4.873  0.0609 -0.1034 -0.1254
  916loPI   PO414316  14.394   9.276   5.360 -0.1883  0.4021  0.2595
  916loPI   GL114317  14.306   9.225   5.789 -0.2954  0.2257  0.0206
  916loPI   GL214318  14.179   9.344   6.011 -0.0471 -0.1574  0.0671
  916loPI   C1A14319  14.464   8.991   6.093 -0.0165 -0.1758  0.1569
  916loPI   C2A14320  14.554   9.125   6.563 -0.2889  0.0837 -0.0848
  916loPI   C3A14321  14.704   9.166   6.920 -0.0510  0.3335  0.0721
  916loPI   C4A14322  14.601   9.062   7.305 -0.0754  0.1662 -0.0592
  916loPI   C5A14323  14.637   9.009   7.646  0.2705  0.0308  0.1444
  916loPI   C6A14324  14.779   8.653   7.933  0.2271  0.0667 -0.0614
  916loPI   C1B14325  14.125   9.293   6.402 -0.4029  0.2668 -0.0721
  916loPI   C2B14326  14.121   9.252   6.809 -0.0345  0.2769  0.3510
  916loPI   C3B14327  14.140   9.240   7.319  0.0119  0.2652 -0.2713
  916loPI   C4B14328  14.210   9.222   7.812 -0.4791 -0.2885  0.4061
  917loPI    C114329   5.865   7.489   5.535  0.1493  0.0376  0.0330
  917loPI    C214330   5.592   7.199   5.570 -0.0459  0.2171  0.0139
  917loPI    C314331   5.915   7.143   5.341 -0.1223  0.0443 -0.0531
  917loPI   PO414332   5.768   7.708   5.720  0.1455  0.1291  0.0520
  917loPI   GL114333   5.712   7.943   6.160 -0.1040  0.0338 -0.1242
  917loPI   GL214334   5.926   8.119   6.304 -0.2471  0.3846  0.0779
  917loPI   C1A14335   5.413   8.236   6.459 -0.0729 -0.0754  0.1401
  917loPI   C2A14336   5.409   8.360   6.751  0.0215 -0.0603 -0.1402
  917loPI   C3A14337   5.384   8.358   7.147 -0.0588 -0.0737 -0.0576
  917loPI   C4A14338   5.298   8.431   7.581 -0.2587 -0.0159 -0.0292
  917loPI   C5A14339   5.438   8.393   7.875 -0.0206 -0.1627  0.0880
  917loPI   C6A14340   5.636   8.454   8.281 -0.1619 -0.3104 -0.0358
  917loPI   C1B14341   5.866   8.045   6.711  0.0267 -0.1278  0.1278
  917loPI   C2B14342   5.828   8.097   7.102 -0.0495  0.3093 -0.1535
  917loPI   C3B14343   5.854   8.229   7.423 -0.2849 -0.0309  0.5394
  917loPI   C4B14344   5.904   8.279   7.886  0.1611 -0.0481  0.2686
  918loPI    C114345   2.588  10.406   5.361 -0.0150 -0.2324 -0.0198
  918loPI    C214346   2.302  10.507   5.099 -0.0773  0.0780  0.1629
  918loPI    C314347   2.633  10.321   4.972 -0.1973  0.0418 -0.1035
  918loPI   PO414348   2.488  10.403   5.638 -0.2228 -0.1004 -0.0902
  918loPI   GL114349   2.626  10.219   6.008  0.1804 -0.3951  0.0001
  918loPI   GL214350   2.618  10.006   6.192  0.1152 -0.2442  0.2825
  918loPI   C1A14351   2.561  10.332   6.519 -0.4394 -0.0724  0.2046
  918loPI   C2A14352   2.630  10.371   6.952 -0.1449  0.2451 -0.1303
  918loPI   C3A14353   2.563  10.483   7.404 -0.2200  0.3781 -0.0937
  918loPI   C4A14354   2.615  10.482   7.835  0.1043  0.2584  0.0432
  918loPI   C5A14355   2.694  10.547   8.236 -0.2379  0.0542 -0.4059
  918loPI   C6A14356   2.860  10.821   8.598 -0.1951  0.1544  0.0960
  918loPI   C1B14357   2.549   9.808   6.568  0.1361 -0.0329  0.0041
  918loPI   C2B14358   2.653   9.862   6.982 -0.1364 -0.3485 -0.1205
  918loPI   C3B14359   2.610   9.979   7.422  0.2078 -0.1926 -0.4164
  918loPI   C4B14360   2.611  10.000   7.873 -0.0167 -0.0359  0.1371
  919loPI    C114361  17.711  12.830   5.254  0.2759  0.1090  0.3718
  919loPI    C214362  18.104  12.768   5.209  0.2394  0.2176 -0.1649
  919loPI    C314363  17.938  13.107   5.075 -0.0172  0.2413  0.1969
  919loPI   PO414364  17.598  12.858   5.406 -0.1998 -0.4428  0.0067
  919loPI   GL114365  17.475  12.888   5.826 -0.4000  0.5355  0.3391
  919loPI   GL214366  17.387  13.233   5.861 -0.0430  0.1353  0.1212
  919loPI   C1A14367  17.410  12.810   6.276 -0.0626 -0.1564 -0.1143
  919loPI   C2A14368  17.196  12.713   6.663 -0.1143 -0.2208  0.0348
  919loPI   C3A14369  17.287  12.698   7.106 -0.3894  0.4047  0.0727
  919loPI   C4A14370  17.334  12.787   7.581  0.0618  0.0862  0.1302
  919loPI   C5A14371  17.288  12.618   7.978  0.0700 -0.0273  0.1695
  919loPI   C6A14372  16.861  12.593   8.205  0.0606  0.2118 -0.0012
  919loPI   C1B14373  17.354  13.304   6.331 -0.0054  0.0173  0.0438
  919loPI   C2B14374  17.350  13.244   6.702  0.1319 -0.2213  0.1072
  919loPI   C3B14375  17.229  13.226   7.188  0.1171  0.0186  0.1311
  919loPI   C4B14376  17.338  13.295   7.555  0.0653  0.0628 -0.3225
  920loPI    C114377   1.457  11.710   5.579 -0.0072 -0.0716  0.0095
  920loPI    C214378   1.798  11.808   5.763 -0.0114 -0.1023  0.0338
  920loPI    C314379   1.801  11.716   5.374 -0.0048 -0.0227  0.0148
  920loPI   PO414380   1.399  11.550   5.736 -0.2859  0.0220 -0.1301
  920loPI   GL114381   1.317  11.601   6.175 -0.3376  0.0766  0.0403
  920loPI   GL214382   1.637  11.541   6.167 -0.0433 -0.2845 -0.0721
  920loPI   C1A14383   1.203  11.780   6.454 -0.2866  0.0908  0.0056
  920loPI   C2A14384   1.209  11.686   6.785  0.3014 -0.0397 -0.0254
  920loPI   C3A14385   1.270  11.748   7.205  0.0897  0.3457 -0.1668
  920loPI   C4A14386   1.254  11.752   7.654 -0.0120 -0.1048  0.2634
  920loPI   C5A14387   1.421  11.883   8.119 -0.1833  0.1675  0.0700
  920loPI   C6A14388   1.356  11.897   8.508 -0.1337 -0.0001  0.2469
  920loPI   C1B14389   1.626  11.431   6.600  0.0934  0.0799 -0.0446
  920loPI   C2B14390   1.604  11.458   7.014 -0.1675 -0.0162 -0.0040
  920loPI   C3B14391   1.681  11.508   7.393  0.0494 -0.1328  0.0941
  920loPI   C4B14392   1.703  11.536   7.856 -0.1110  0.0801  0.0008
  921loPI    C114393   5.237  10.556   5.687  0.0239 -0.0896  0.1080
  921loPI    C214394   5.247  10.312   6.004  0.0522 -0.1293  0.0766
  921loPI    C314395   5.243  10.160   5.634  0.0891 -0.0819  0.0566
  921loPI   PO414396   5.215  10.786   5.786 -0.0422  0.2326  0.2250
  921loPI   GL114397   5.084  10.900   6.128 -0.1132  0.0305  0.0138
  921loPI   GL214398   5.098  11.095   6.257 -0.0045 -0.0936  0.0415
  921loPI   C1A14399   5.215  10.564   6.377 -0.0237 -0.0833 -0.0704
  921loPI   C2A14400   5.199  10.493   6.825  0.1975  0.3500  0.0602
  921loPI   C3A14401   5.268  10.488   7.334 -0.0482  0.1277 -0.1696
  921loPI   C4A14402   5.260  10.508   7.725 -0.0568 -0.0914 -0.0344
  921loPI   C5A14403   5.332  10.574   8.158  0.0561 -0.2502  0.2747
  921loPI   C6A14404   5.214  10.462   8.573  0.2132 -0.2354  0.1715
  921loPI   C1B14405   5.205  10.983   6.720  0.1601 -0.1106  0.2571
  921loPI   C2B14406   5.244  10.955   7.109 -0.4844 -0.2275 -0.2063
  921loPI   C3B14407   5.251  11.068   7.590  0.3688 -0.1799 -0.1754
  921loPI   C4B14408   5.304  11.112   8.077  0.1787  0.1450  0.1547
  922loPI    C114409  16.964   8.584   4.877 -0.0273  0.1434 -0.0413
  922loPI    C214410  16.803   8.747   4.549  0.0132  0.1218 -0.0722
  922loPI    C314411  17.043   8.429   4.516  0.0051  0.1101 -0.0199
  922loPI   PO414412  16.665   8.501   5.122 -0.2812  0.0512  0.2500
  922loPI   GL114413  16.695   8.536   5.506  0.0705 -0.2700  0.1987
  922loPI   GL214414  16.522   8.441   5.592  0.0208 -0.0236  0.4091
  922loPI   C1A14415  16.887   8.328   5.935  0.3815  0.2693 -0.2901
  922loPI   C2A14416  16.919   8.233   6.408  0.1415 -0.0460  0.0208
  922loPI   C3A14417  16.862   8.277   6.783 -0.0223 -0.1787  0.0160
  922loPI   C4A14418  16.970   8.314   7.206 -0.1007 -0.0992  0.3567
  922loPI   C5A14419  16.963   8.449   7.666 -0.1391  0.0515  0.1069
  922loPI   C6A14420  17.106   8.400   8.077  0.0815 -0.0818  0.0800
  922loPI   C1B14421  16.421   8.588   6.005  0.4450  0.3378 -0.1141
  922loPI   C2B14422  16.473   8.529   6.416 -0.1616  0.0436 -0.0757
  922loPI   C3B14423  16.515   8.566   6.878 -0.0270 -0.0045 -0.1408
  922loPI   C4B14424  16.506   8.494   7.280  0.0239  0.0897 -0.2459
  923loPI    C114425   0.446  13.116   5.497 -0.1704  0.0864  0.2713
  923loPI    C214426   0.412  13.491   5.362 -0.0181  0.0943  0.2527
  923loPI    C314427   0.493  13.194   5.107 -0.0382  0.0636  0.2820
  923loPI   PO414428   0.443  13.203   5.836 -0.1598 -0.0088 -0.2329
  923loPI   GL114429   0.417  13.315   6.284 -0.3986 -0.0218  0.0489
  923loPI   GL214430   0.564  13.541   6.255  0.2625 -0.2963 -0.1429
  923loPI   C1A14431   0.279  13.325   6.678  0.2831  0.2060 -0.1973
  923loPI   C2A14432   0.300  13.275   7.149 -0.1721 -0.0300 -0.0182
  923loPI   C3A14433   0.234  13.269   7.528  0.5779  0.0664 -0.0286
  923loPI   C4A14434   0.286  13.180   7.895  0.0900 -0.2019 -0.0567
  923loPI   C5A14435   0.337  13.461   8.310  0.0115 -0.1680 -0.1750
  923loPI   C6A14436   0.205  13.300   8.701  0.0008  0.0051 -0.0925
  923loPI   C1B14437   0.750  13.528   6.682  0.3648 -0.3020  0.1526
  923loPI   C2B14438   0.735  13.528   7.072 -0.0599 -0.2416  0.0217
  923loPI   C3B14439   0.754  13.491   7.455  0.1065 -0.1822  0.3306
  923loPI   C4B14440   0.690  13.490   7.915  0.1656 -0.2484 -0.1012
  924loPI    C114441  11.070  16.220   5.575  0.1084 -0.0294 -0.0421
  924loPI    C214442  11.394  16.184   5.344  0.0200 -0.2604 -0.1330
  924loPI    C314443  11.035  16.247   5.178 -0.0023 -0.1417 -0.0407
  924loPI   PO414444  11.090  15.986   5.751  0.1151  0.0761  0.4464
  924loPI   GL114445  11.120  15.786   6.068  0.0308  0.0373  0.0943
  924loPI   GL214446  11.335  15.914   6.222  0.2423 -0.2673 -0.3644
  924loPI   C1A14447  10.936  15.601   6.441 -0.2001 -0.0215  0.2415
  924loPI   C2A14448  10.993  15.684   6.875 -0.1488 -0.0136 -0.0271
  924loPI   C3A14449  10.957  15.667   7.230  0.2092  0.3131 -0.2546
  924loPI   C4A14450  10.936  15.560   7.713 -0.2886  0.0303 -0.2549
  924loPI   C5A14451  10.678  15.236   7.933 -0.0752  0.0053 -0.0315
  924loPI   C6A14452  10.436  15.047   8.284  0.0142  0.1191 -0.1096
  924loPI   C1B14453  11.323  15.904   6.615 -0.1459  0.0144 -0.0297
  924loPI   C2B14454  11.432  15.891   7.051 -0.2133 -0.1561  0.2353
  924loPI   C3B14455  11.568  15.844   7.523 -0.1698 -0.0079 -0.1350
  924loPI   C4B14456  11.446  15.773   7.960  0.0637 -0.2237  0.1157
  925loPI    C114457  17.306  14.476   5.506  0.2268  0.1414 -0.1836
  925loPI    C214458  17.451  14.714   5.219 -0.1801 -0.0736 -0.5813
  925loPI    C314459  17.274  14.369   5.121 -0.3844 -0.1219 -0.0715
  925loPI   PO414460  17.181  14.496   5.718 -0.1029  0.2026  0.1096
  925loPI   GL114461  17.218  14.415   6.180 -0.0803  0.0520  0.0443
  925loPI   GL214462  16.915  14.554   6.280 -0.0042  0.0526 -0.3054
  925loPI   C1A14463  17.327  14.303   6.604 -0.1284  0.3141 -0.0812
  925loPI   C2A14464  17.238  14.306   7.016 -0.1834 -0.1757  0.2165
  925loPI   C3A14465  17.342  14.370   7.411  0.1438 -0.3425 -0.1564
  925loPI   C4A14466  17.268  14.185   7.792 -0.0461 -0.0129 -0.1936
  925loPI   C5A14467  17.258  14.309   8.155  0.1252 -0.1195 -0.0857
  925loPI   C6A14468  16.948  14.183   8.549 -0.1409 -0.0404 -0.1063
  925loPI   C1B14469  16.848  14.553   6.722  0.0260  0.1630 -0.1494
  925loPI   C2B14470  16.865  14.492   7.234 -0.2735 -0.3520  0.0799
  925loPI   C3B14471  16.793  14.492   7.609  0.1058  0.0788 -0.2059
  925loPI   C4B14472  16.748  14.398   8.051 -0.0001  0.1291 -0.3259
  926loPI    C114473   4.389  12.709   5.816 -0.3716 -0.1264 -0.0677
  926loPI    C214474   4.679  12.728   5.541 -0.1464 -0.0797  0.1696
  926loPI    C314475   4.382  12.996   5.537 -0.1171 -0.0486  0.0035
  926loPI   PO414476   4.496  12.769   6.103  0.1206 -0.2240 -0.0332
  926loPI   GL114477   4.448  12.964   6.409 -0.0036 -0.0297  0.3696
  926loPI   GL214478   4.778  12.811   6.524  0.0251 -0.0526 -0.1949
  926loPI   C1A14479   4.295  13.152   6.752  0.0145  0.1858 -0.0802
  926loPI   C2A14480   4.301  13.054   7.157  0.1015 -0.1584  0.3513
  926loPI   C3A14481   4.334  13.017   7.681  0.0121 -0.0908  0.0454
  926loPI   C4A14482   4.349  13.099   8.152 -0.4143 -0.0044 -0.0357
  926loPI   C5A14483   4.610  12.875   8.582 -0.0307  0.0751  0.1208
  926loPI   C6A14484   5.017  12.832   8.770 -0.2775 -0.1008  0.1019
  926loPI   C1B14485   4.744  12.916   6.913  0.0121 -0.0730  0.2119
  926loPI   C2B14486   4.730  12.827   7.306 -0.2083  0.0641  0.2282
  926loPI   C3B14487   4.890  12.867   7.698  0.4476  0.0234  0.2866
  926loPI   C4B14488   4.809  12.892   8.057 -0.2008 -0.2733 -0.0948
  927loPI    C114489  17.504   8.885   5.036 -0.2575 -0.3574 -0.0307
  927loPI    C214490  17.328   8.897   4.677 -0.0965  0.1566 -0.1002
  927loPI    C314491  17.726   8.877   4.704 -0.1125  0.0262  0.0515
  927loPI   PO414492  17.396   9.124   5.216 -0.1740  0.1316 -0.0094
  927loPI   GL114493  17.287   9.051   5.551 -0.1094  0.2313  0.0854
  927loPI   GL214494  17.057   8.901   5.723  0.1474  0.2195 -0.1754
  927loPI   C1A14495  17.358   9.061   6.020 -0.0936 -0.0668 -0.0600
  927loPI   C2A14496  17.407   9.108   6.411 -0.3001 -0.1407  0.5858
  927loPI   C3A14497  17.367   9.073   6.835  0.1958  0.1467  0.1298
  927loPI   C4A14498  17.412   9.178   7.192  0.1325 -0.0112  0.3155
  927loPI   C5A14499  17.462   9.040   7.639 -0.0788 -0.0748 -0.1557
  927loPI   C6A14500  17.397   8.717   7.739 -0.2207  0.1797  0.0496
  927loPI   C1B14501  16.877   8.794   6.133 -0.0516 -0.0516  0.0533
  927loPI   C2B14502  16.950   8.764   6.585  0.2442  0.0914 -0.1224
  927loPI   C3B14503  16.948   8.830   6.970  0.2239 -0.1660 -0.0079
  927loPI   C4B14504  16.976   8.852   7.391  0.0622  0.1872 -0.2323
  928loPI    C114505   2.927   0.304   5.857 -0.1465 -0.2317 -0.0253
  928loPI    C214506   3.227   0.158   5.637 -0.0057 -0.0922  0.0718
  928loPI    C314507   2.852   0.143   5.499  0.0514 -0.2213 -0.0724
  928loPI   PO414508   2.967   0.194   6.037  0.2942 -0.1769 -0.0890
  928loPI   GL114509   2.861   0.312   6.442  0.0099 -0.1418  0.1812
  928loPI   GL214510   3.200   0.138   6.491  0.3205 -0.1330 -0.0738
  928loPI   C1A14511   2.629   0.389   6.910  0.2510 -0.1766  0.1014
  928loPI   C2A14512   2.562   0.333   7.376 -0.0389  0.3049 -0.3876
  928loPI   C3A14513   2.476   0.378   7.864 -0.1118 -0.0940 -0.1707
  928loPI   C4A14514   2.625   0.298   8.302  0.1719 -0.3024 -0.2373
  928loPI   C5A14515   2.406   0.448   8.696  0.0689 -0.0535  0.1446
  928loPI   C6A14516   2.180   0.372   9.101 -0.0503  0.0155 -0.0633
  928loPI   C1B14517   3.075   0.080   6.938  0.1236 -0.2152  0.2814
  928loPI   C2B14518   3.114   0.187   7.344 -0.1474  0.1726  0.2445
  928loPI   C3B14519   2.915   0.089   7.644  0.3131 -0.0158 -0.1578
  928loPI   C4B14520   2.977   0.065   8.017  0.0771  0.3443  0.0107
  929loPI    C114521  11.655   6.522   5.109 -0.0023  0.1276 -0.0514
  929loPI    C214522  11.813   6.158   5.058 -0.1432  0.0995 -0.3026
  929loPI    C314523  12.030   6.483   4.975 -0.0016  0.0758 -0.0345
  929loPI   PO414524  11.542   6.561   5.328  0.0800  0.1256 -0.1145
  929loPI   GL114525  11.593   6.793   5.725 -0.1252  0.1605  0.2994
  929loPI   GL214526  11.389   6.549   5.977 -0.2522 -0.2048 -0.0029
  929loPI   C1A14527  11.814   7.018   6.000 -0.1233  0.2475  0.2582
  929loPI   C2A14528  12.047   6.926   6.319 -0.1631  0.0949  0.1813
  929loPI   C3A14529  11.968   6.883   6.681 -0.2863  0.0265  0.0419
  929loPI   C4A14530  12.019   6.958   7.126  0.1348  0.2065 -0.0162
  929loPI   C5A14531  12.083   6.978   7.582  0.0813  0.0459  0.4618
  929loPI   C6A14532  12.071   6.888   7.972  0.0525 -0.2225 -0.0148
  929loPI   C1B14533  11.597   6.674   6.342 -0.4621  0.0271 -0.0208
  929loPI   C2B14534  11.580   6.638   6.740 -0.2689  0.2348  0.0462
  929loPI   C3B14535  11.599   6.675   7.162  0.1984 -0.0583  0.0440
  929loPI   C4B14536  11.623   6.615   7.520 -0.2143 -0.2080  0.1218
  930loPI    C114537   7.297  13.380   5.454 -0.1116  0.2926 -0.0966
  930loPI    C214538   7.160  13.072   5.239  0.2032 -0.0243  0.1457
  930loPI    C314539   6.910  13.361   5.356 -0.1256 -0.2582  0.0349
  930loPI   PO414540   7.364  13.309   5.669 -0.1515 -0.0642  0.1380
  930loPI   GL114541   7.301  13.064   6.046 -0.1917 -0.2835 -0.0543
  930loPI   GL214542   7.047  13.344   6.029 -0.1600 -0.2471 -0.1691
  930loPI   C1A14543   7.409  12.936   6.375 -0.2739 -0.1489  0.0814
  930loPI   C2A14544   7.411  12.934   6.769  0.4438  0.3080  0.1639
  930loPI   C3A14545   7.481  12.965   7.161  0.2248 -0.0862  0.1542
  930loPI   C4A14546   7.413  12.865   7.521 -0.1007 -0.1263 -0.2940
  930loPI   C5A14547   7.432  12.827   7.944 -0.2055 -0.0362  0.3557
  930loPI   C6A14548   7.111  12.801   8.309  0.2113 -0.2474 -0.0612
  930loPI   C1B14549   7.033  13.197   6.524 -0.2780 -0.0631  0.3216
  930loPI   C2B14550   6.987  13.082   6.982  0.3988 -0.1938  0.2599
  930loPI   C3B14551   6.998  13.128   7.427 -0.3677  0.0117  0.0829
  930loPI   C4B14552   7.059  13.188   7.831  0.0080  0.4643 -0.3016
  931loPI    C114553  13.845   4.524   5.059 -0.0008  0.0063 -0.2161
  931loPI    C214554  13.485   4.383   4.954 -0.2299  0.4114 -0.0006
  931loPI    C314555  13.712   4.572   4.684 -0.1138  0.0355 -0.1729
  931loPI   PO414556  13.859   4.472   5.311  0.0436  0.0332  0.1292
  931loPI   GL114557  13.737   4.413   5.658 -0.1011  0.1272 -0.0681
  931loPI   GL214558  13.672   4.282   5.928 -0.3514  0.2068 -0.1790
  931loPI   C1A14559  14.069   4.610   5.885  0.1873  0.0471  0.0549
  931loPI   C2A14560  14.416   4.568   6.121 -0.0954 -0.2204 -0.3982
  931loPI   C3A14561  14.371   4.513   6.569  0.0295  0.0208 -0.2658
  931loPI   C4A14562  14.359   4.566   7.063 -0.3043 -0.3378  0.2694
  931loPI   C5A14563  14.362   4.535   7.536  0.0536 -0.0915 -0.0777
  931loPI   C6A14564  14.297   4.563   7.957 -0.0778 -0.0820  0.1669
  931loPI   C1B14565  13.969   4.384   6.294  0.0084  0.0105 -0.2449
  931loPI   C2B14566  13.890   4.282   6.679 -0.1192  0.0285  0.0161
  931loPI   C3B14567  13.850   4.250   7.053  0.0393 -0.2001  0.1636
  931loPI   C4B14568  13.885   4.358   7.464  0.1272  0.1241  0.0728
  932loPI    C114569   4.849   9.226   5.474  0.1070  0.1932  0.1289
  932loPI    C214570   5.204   9.140   5.311  0.0057 -0.0763  0.0448
  932loPI    C314571   4.962   9.405   5.134  0.1843  0.1470  0.1300
  932loPI   PO414572   4.893   9.225   5.727 -0.0170  0.2329 -0.2334
  932loPI   GL114573   4.958   9.366   6.043 -0.0455 -0.0922  0.3232
  932loPI   GL214574   5.276   9.270   6.231  0.2044  0.1042 -0.0825
  932loPI   C1A14575   4.842   9.596   6.488 -0.1199 -0.1664 -0.2296
  932loPI   C2A14576   4.909   9.690   6.921  0.0941 -0.1106 -0.0233
  932loPI   C3A14577   4.793   9.662   7.451 -0.4095 -0.2415  0.1376
  932loPI   C4A14578   4.815   9.719   7.974 -0.0156  0.0335 -0.0600
  932loPI   C5A14579   4.676   9.742   8.414 -0.2830 -0.2198 -0.1553
  932loPI   C6A14580   4.395  10.029   8.632  0.2869  0.0622  0.0550
  932loPI   C1B14581   5.287   9.389   6.637 -0.0230 -0.1100 -0.1522
  932loPI   C2B14582   5.239   9.390   7.085  0.0225 -0.1410  0.0130
  932loPI   C3B14583   5.263   9.460   7.519 -0.1875 -0.0733 -0.1912
  932loPI   C4B14584   5.263   9.488   8.036 -0.1228 -0.0698  0.0859
  933loPI    C114585   3.290   0.623   5.974 -0.1816 -0.1730  0.1449
  933loPI    C214586   2.942   0.708   6.151 -0.1819  0.0447  0.0432
  933loPI    C314587   3.007   0.822   5.773 -0.0772 -0.1757 -0.0066
  933loPI   PO414588   3.408   0.527   6.145  0.0835 -0.0149  0.1731
  933loPI   GL114589   3.429   0.700   6.504  0.1344 -0.0144 -0.2057
  933loPI   GL214590   3.239   0.944   6.494  0.0604  0.0003  0.1729
  933loPI   C1A14591   3.470   0.423   6.931 -0.1251 -0.0131 -0.0769
  933loPI   C2A14592   3.514   0.401   7.241  0.1278  0.2380  0.0144
  933loPI   C3A14593   3.427   0.441   7.663 -0.0056 -0.0911  0.0027
  933loPI   C4A14594   3.470   0.257   8.048  0.1001  0.0825 -0.4550
  933loPI   C5A14595   3.284   0.171   8.424  0.0640  0.1517 -0.2630
  933loPI   C6A14596   3.454  -0.059   8.788 -0.1738 -0.1798 -0.1655
  933loPI   C1B14597   2.997   0.699   6.796  0.3092 -0.1393 -0.2999
  933loPI   C2B14598   3.021   0.829   7.195 -0.4359 -0.0331 -0.0811
  933loPI   C3B14599   2.908   0.597   7.625 -0.1347 -0.0294 -0.0465
  933loPI   C4B14600   3.033   0.549   8.066 -0.1796  0.0144  0.0351
  934loPI    C114601   7.313   4.454   6.087 -0.1110 -0.1261  0.0245
  934loPI    C214602   7.488   4.100   6.026  0.2640  0.1130 -0.3450
  934loPI    C314603   7.263   4.264   5.739  0.1666  0.2173 -0.2104
  934loPI   PO414604   7.437   4.530   6.384 -0.1016 -0.1398 -0.2801
  934loPI   GL114605   7.692   4.595   6.671  0.1832  0.2981  0.0097
  934loPI   GL214606   7.985   4.582   6.788 -0.1538  0.1710 -0.0881
  934loPI   C1A14607   7.663   4.409   7.156  0.2351  0.3243 -0.0296
  934loPI   C2A14608   7.694   4.124   7.396  0.1923 -0.0286 -0.2984
  934loPI   C3A14609   7.649   3.780   7.550 -0.1151  0.2631  0.0308
  934loPI   C4A14610   7.610   3.565   7.916 -0.1320 -0.0340  0.1238
  934loPI   C5A14611   7.692   3.374   8.190 -0.1111 -0.1384 -0.0334
  934loPI   C6A14612   7.686   3.209   8.561  0.0323 -0.0058  0.1239
  934loPI   C1B14613   8.231   4.646   7.199  0.1745 -0.4409  0.1091
  934loPI   C2B14614   8.361   4.570   7.607 -0.0702 -0.2862  0.0506
  934loPI   C3B14615   8.569   4.624   8.033  0.1634  0.2055  0.0624
  934loPI   C4B14616   8.890   4.499   8.043  0.0794 -0.0750 -0.2337
  935loPI    C114617  11.164  10.867   5.274  0.0639  0.0897  0.1154
  935loPI    C214618  11.341  10.994   4.938 -0.1166 -0.1467 -0.0731
  935loPI    C314619  11.427  10.632   5.085 -0.0990 -0.0765  0.0919
  935loPI   PO414620  11.238  10.967   5.468  0.5279 -0.2817 -0.3872
  935loPI   GL114621  11.269  10.921   5.821 -0.1409  0.2438  0.0452
  935loPI   GL214622  11.501  10.729   5.987 -0.0328  0.1509 -0.0739
  935loPI   C1A14623  11.015  10.958   6.208 -0.0869 -0.1255  0.0457
  935loPI   C2A14624  11.003  11.020   6.584  0.0047  0.0923 -0.2384
  935loPI   C3A14625  11.051  10.913   6.916 -0.1407 -0.0798 -0.3431
  935loPI   C4A14626  11.021  10.907   7.403  0.1106 -0.1003 -0.2528
  935loPI   C5A14627  11.151  10.818   7.868 -0.0044 -0.0992  0.2628
  935loPI   C6A14628  11.330  10.812   8.281 -0.1100  0.0442  0.0278
  935loPI   C1B14629  11.489  10.699   6.414  0.1408 -0.0772  0.0062
  935loPI   C2B14630  11.499  10.679   6.917 -0.0595  0.0674  0.1972
  935loPI   C3B14631  11.545  10.677   7.381  0.0927  0.1764 -0.1751
  935loPI   C4B14632  11.627  10.738   7.868 -0.2629  0.0930 -0.0975
  936loPI    C114633   0.344  10.689   5.348 -0.0506  0.1091  0.0015
  936loPI    C214634   0.173  10.901   5.055 -0.1036  0.0661  0.0013
  936loPI    C314635   0.571  10.878   5.078 -0.0985  0.1178 -0.0329
  936loPI   PO414636   0.220  10.743   5.598 -0.3220 -0.0952  0.1611
  936loPI   GL114637   0.098  10.992   5.879  0.0223  0.2740  0.1413
  936loPI   GL214638   0.384  10.773   6.081  0.1516  0.0049  0.0772
  936loPI   C1A14639  -0.055  10.887   6.360  0.0244  0.1140  0.0277
  936loPI   C2A14640  -0.144  10.891   6.730  0.1340 -0.1264 -0.2597
  936loPI   C3A14641  -0.105  10.955   7.188  0.0869  0.1297 -0.1136
  936loPI   C4A14642  -0.047  10.880   7.608  0.0872  0.4419 -0.2816
  936loPI   C5A14643   0.223  10.825   8.037 -0.1484 -0.0959  0.1292
  936loPI   C6A14644   0.446  10.452   8.264  0.1438  0.2943 -0.1100
  936loPI   C1B14645   0.352  10.691   6.523 -0.1578 -0.1085  0.2214
  936loPI   C2B14646   0.383  10.659   6.964  0.1659 -0.1469  0.0465
  936loPI   C3B14647   0.437  10.524   7.412 -0.0671  0.3848  0.2228
  936loPI   C4B14648   0.368  10.474   7.756  0.2165 -0.1858  0.0857
  937loPI    C114649  12.612  13.855   5.244 -0.1738 -0.0587  0.1565
  937loPI    C214650  12.898  13.741   4.988 -0.0564  0.2963  0.1246
  937loPI    C314651  12.532  13.582   4.962  0.1779 -0.2930  0.2777
  937loPI   PO414652  12.628  13.788   5.438 -0.1160 -0.0984 -0.2111
  937loPI   GL114653  12.735  13.784   5.917 -0.2669  0.6031  0.0052
  937loPI   GL214654  12.587  13.996   5.869 -0.1555  0.2407 -0.4098
  937loPI   C1A14655  12.662  13.582   6.279 -0.5375  0.1350 -0.0557
  937loPI   C2A14656  12.874  13.547   6.726 -0.2116 -0.0452  0.0781
  937loPI   C3A14657  12.760  13.505   7.100  0.3098 -0.3805  0.1078
  937loPI   C4A14658  12.841  13.585   7.613  0.1990 -0.2618  0.0105
  937loPI   C5A14659  12.960  13.770   8.012 -0.1836  0.2093 -0.0556
  937loPI   C6A14660  12.750  14.010   8.395 -0.0271  0.0660 -0.1787
  937loPI   C1B14661  12.717  14.094   6.297 -0.3293 -0.1733 -0.1770
  937loPI   C2B14662  12.806  14.023   6.683  0.1979 -0.1845 -0.3525
  937loPI   C3B14663  12.792  14.042   7.158  0.1144  0.1966 -0.0314
  937loPI   C4B14664  12.883  14.049   7.464 -0.0248 -0.2636 -0.0875
  938loPI    C114665  17.157  13.910   5.266  0.2376  0.0496 -0.0997
  938loPI    C214666  16.838  13.872   5.028  0.2035  0.3175 -0.1002
  938loPI    C314667  17.179  13.684   4.937  0.0903  0.1468 -0.1776
  938loPI   PO414668  17.063  14.012   5.558  0.1608 -0.0483 -0.2756
  938loPI   GL114669  17.009  14.006   5.987 -0.0836 -0.0539  0.2112
  938loPI   GL214670  17.262  13.753   6.138 -0.4765 -0.0117  0.1458
  938loPI   C1A14671  16.884  14.036   6.414  0.1606 -0.2547 -0.0863
  938loPI   C2A14672  16.877  14.004   6.784  0.0553  0.0984 -0.1994
  938loPI   C3A14673  16.848  14.023   7.295 -0.0231  0.3122 -0.3142
  938loPI   C4A14674  16.764  13.977   7.701  0.0475 -0.1271 -0.2258
  938loPI   C5A14675  16.869  13.939   8.044 -0.3035  0.0884 -0.0033
  938loPI   C6A14676  17.195  13.811   8.352  0.2163 -0.2812  0.0493
  938loPI   C1B14677  17.323  13.825   6.538 -0.0455  0.1096 -0.0821
  938loPI   C2B14678  17.353  13.776   6.926 -0.0919  0.2049  0.0482
  938loPI   C3B14679  17.277  13.834   7.412 -0.2719  0.2138  0.3264
  938loPI   C4B14680  17.286  13.677   7.855 -0.3814 -0.2015  0.0227
  939loPI    C114681   8.735   7.866   5.768 -0.2440 -0.1898 -0.0588
  939loPI    C214682   9.041   7.614   5.820 -0.0700  0.0416  0.0583
  939loPI    C314683   8.858   7.635   5.465 -0.1678 -0.3357  0.0819
  939loPI   PO414684   8.555   7.875   6.023  0.2105 -0.1674 -0.2054
  939loPI   GL114685   8.568   7.907   6.432 -0.0868 -0.1954  0.0243
  939loPI   GL214686   8.758   8.217   6.483 -0.0060  0.2300  0.0961
  939loPI   C1A14687   8.263   7.848   6.816 -0.3412  0.1828 -0.0779
  939loPI   C2A14688   7.923   8.031   6.835 -0.1353  0.2227  0.0683
  939loPI   C3A14689   7.618   8.178   7.094  0.2476  0.2258  0.2495
  939loPI   C4A14690   7.587   8.209   7.452  0.0409  0.0476 -0.2474
  939loPI   C5A14691   7.735   8.309   7.803  0.3390 -0.1794  0.3206
  939loPI   C6A14692   8.071   8.172   8.190  0.3070 -0.0429 -0.0465
  939loPI   C1B14693   8.749   8.200   6.904 -0.0511  0.1852  0.0322
  939loPI   C2B14694   8.383   8.342   7.139  0.0077  0.0636  0.1764
  939loPI   C3B14695   8.064   7.978   7.269 -0.5485  0.0367 -0.3180
  939loPI   C4B14696   8.065   7.923   7.704  0.2847  0.0785 -0.0197
  940loPI    C114697  17.394   2.562   5.545  0.0506  0.0486 -0.2141
  940loPI    C214698  17.447   2.309   5.239 -0.0402  0.1069 -0.2785
  940loPI    C314699  17.513   2.701   5.189  0.0445  0.1035 -0.1949
  940loPI   PO414700  17.336   2.310   5.739  0.0450 -0.3329 -0.1573
  940loPI   GL114701  17.320   2.347   6.138 -0.2930  0.2250  0.0140
  940loPI   GL214702  17.734   2.325   6.143 -0.0904  0.1377 -0.5125
  940loPI   C1A14703  17.172   2.102   6.508  0.3348  0.2238  0.1905
  940loPI   C2A14704  17.194   2.073   6.810  0.1068  0.2783  0.0564
  940loPI   C3A14705  17.111   2.134   7.226  0.1929  0.0908  0.0733
  940loPI   C4A14706  17.051   2.035   7.616  0.0669 -0.2245  0.0247
  940loPI   C5A14707  17.005   1.878   8.052  0.2657  0.1578  0.0770
  940loPI   C6A14708  16.797   1.951   8.506 -0.2471 -0.0761  0.1195
  940loPI   C1B14709  17.616   2.350   6.614  0.1109  0.2058  0.0377
  940loPI   C2B14710  17.513   2.353   7.047  0.4493 -0.0212 -0.0652
  940loPI   C3B14711  17.537   2.356   7.511 -0.0480 -0.0393  0.0519
  940loPI   C4B14712  17.641   2.312   7.945  0.1473 -0.1279 -0.1297
  941loPI    C114713   1.428   6.663   5.285 -0.1365  0.1303  0.0684
  941loPI    C214714   1.281   6.361   5.503 -0.2229  0.0987 -0.0324
  941loPI    C314715   1.428   6.291   5.138  0.1624  0.1093  0.1156
  941loPI   PO414716   1.574   6.794   5.469  0.2109  0.0835  0.3128
  941loPI   GL114717   1.604   6.741   5.782  0.0206 -0.1045 -0.1735
  941loPI   GL214718   1.548   6.466   5.917  0.1403 -0.0071  0.0988
  941loPI   C1A14719   1.698   6.740   6.277 -0.0466 -0.1668 -0.0211
  941loPI   C2A14720   1.704   6.829   6.701  0.1938  0.1789 -0.0354
  941loPI   C3A14721   1.848   6.789   7.142 -0.4042 -0.0964 -0.0229
  941loPI   C4A14722   1.810   6.897   7.651  0.0979 -0.0309  0.1050
  941loPI   C5A14723   1.887   6.844   8.124 -0.3582  0.0684  0.0487
  941loPI   C6A14724   1.793   6.614   8.475 -0.1404 -0.0689  0.1897
  941loPI   C1B14725   1.277   6.526   6.246  0.1571  0.0453 -0.0476
  941loPI   C2B14726   1.312   6.488   6.723 -0.1988  0.0047  0.0468
  941loPI   C3B14727   1.333   6.611   7.157  0.0923 -0.1157  0.1885
  941loPI   C4B14728   1.416   6.592   7.561 -0.0631 -0.0357 -0.0312
  942loPI    C114729  17.066   1.190   5.572 -0.1152 -0.0668 -0.0326
  942loPI    C214730  17.170   0.964   5.259 -0.0327  0.0605 -0.0977
  942loPI    C314731  16.904   1.259   5.213 -0.0347  0.0672 -0.0436
  942loPI   PO414732  17.047   0.978   5.772  0.1604  0.1050  0.0524
  942loPI   GL114733  16.976   0.844   6.171 -0.0336  0.0862  0.1264
  942loPI   GL214734  17.265   1.099   6.244 -0.3204 -0.0352  0.1979
  942loPI   C1A14735  16.702   0.847   6.470 -0.1767 -0.2669 -0.0070
  942loPI   C2A14736  16.727   0.780   6.902 -0.0663 -0.0761  0.1285
  942loPI   C3A14737  16.742   0.762   7.326 -0.0542 -0.0544  0.1397
  942loPI   C4A14738  16.675   0.779   7.732 -0.1410 -0.3632  0.0802
  942loPI   C5A14739  16.498   1.011   8.127 -0.0738 -0.0621 -0.0656
  942loPI   C6A14740  16.781   1.051   8.490 -0.2772 -0.1091 -0.2666
  942loPI   C1B14741  17.160   1.071   6.715  0.0300  0.1336  0.3889
  942loPI   C2B14742  17.144   1.020   7.160  0.0314  0.1199 -0.0075
  942loPI   C3B14743  17.048   1.053   7.567  0.2818 -0.1246 -0.0461
  942loPI   C4B14744  16.989   1.048   8.037  0.4141 -0.1613 -0.1085
  943loPI    C114745  16.241   9.806   5.161  0.1259 -0.1843 -0.1294
  943loPI    C214746  16.451  10.140   5.227 -0.2017  0.0027 -0.0091
  943loPI    C314747  16.152  10.140   4.961 -0.2078 -0.1939 -0.0042
  943loPI   PO414748  16.064   9.765   5.423  0.3047  0.1506 -0.2657
  943loPI   GL114749  15.692   9.792   5.724  0.3263 -0.0203 -0.0735
  943loPI   GL214750  15.553  10.044   5.690 -0.1385  0.0306  0.0838
  943loPI   C1A14751  15.957   9.733   6.096  0.0229  0.1173  0.1333
  943loPI   C2A14752  16.026   9.855   6.510  0.2683 -0.1284 -0.2493
  943loPI   C3A14753  16.036   9.890   6.934  0.6625  0.2138 -0.2267
  943loPI   C4A14754  15.949   9.897   7.357 -0.1071  0.1036  0.2227
  943loPI   C5A14755  16.188   9.862   7.689 -0.1159  0.1909  0.0618
  943loPI   C6A14756  16.266   9.985   8.128 -0.1155  0.0942 -0.0620
  943loPI   C1B14757  15.502  10.041   6.147 -0.0201  0.0281  0.3030
  943loPI   C2B14758  15.574  10.139   6.523 -0.0115  0.1418  0.2238
  943loPI   C3B14759  15.602  10.152   7.014  0.2583  0.1619 -0.0626
  943loPI   C4B14760  15.466  10.040   7.496 -0.4813  0.0167  0.1296
  944loPI    C114761  17.265   8.172   4.966 -0.0269 -0.2913  0.2733
  944loPI    C214762  17.532   8.349   5.206 -0.0058 -0.0591  0.0821
  944loPI    C314763  17.525   8.435   4.815 -0.3397 -0.0873  0.0787
  944loPI   PO414764  17.063   8.193   5.088  0.0436 -0.0753 -0.0985
  944loPI   GL114765  17.049   8.130   5.461  0.3121  0.0841  0.1336
  944loPI   GL214766  17.279   8.299   5.597 -0.0204  0.0540 -0.1924
  944loPI   C1A14767  17.268   7.985   5.933 -0.2378 -0.0661 -0.0792
  944loPI   C2A14768  17.400   7.994   6.386 -0.0458 -0.2546  0.0055
  944loPI   C3A14769  17.333   8.034   6.863 -0.0930  0.0504 -0.1891
  944loPI   C4A14770  17.406   8.022   7.374  0.2529 -0.0082 -0.0784
  944loPI   C5A14771  17.372   8.073   7.792 -0.1635 -0.0535 -0.1695
  944loPI   C6A14772  17.451   8.058   8.249 -0.1741  0.0827  0.1216
  944loPI   C1B14773  17.374   8.533   5.966 -0.1518  0.1459 -0.0676
  944loPI   C2B14774  17.366   8.564   6.357  0.0844 -0.1606 -0.0416
  944loPI   C3B14775  17.323   8.550   6.743  0.4093  0.0477 -0.0093
  944loPI   C4B14776  17.373   8.666   7.232 -0.0700 -0.0663  0.2120
  945loPI    C114777   5.412   3.424   6.180  0.1415 -0.0993  0.0868
  945loPI    C214778   5.472   3.676   5.875  0.0388 -0.1204  0.0486
  945loPI    C314779   5.250   3.347   5.822 -0.0464 -0.0828  0.1666
  945loPI   PO414780   5.294   3.424   6.382 -0.4492  0.1322  0.0614
  945loPI   GL114781   5.227   3.661   6.744 -0.1204  0.3045 -0.1976
  945loPI   GL214782   5.316   3.334   6.923  0.3432 -0.0451 -0.1068
  945loPI   C1A14783   5.126   3.869   7.142  0.1091  0.1582 -0.1340
  945loPI   C2A14784   5.177   3.780   7.595 -0.1016 -0.2672 -0.0705
  945loPI   C3A14785   5.000   3.626   8.000 -0.0163 -0.0105 -0.1023
  945loPI   C4A14786   4.948   3.630   8.450  0.1005 -0.1128  0.0488
  945loPI   C5A14787   5.089   3.797   8.880 -0.1323 -0.1779 -0.1300
  945loPI   C6A14788   5.420   3.732   8.976 -0.0330 -0.2484 -0.1144
  945loPI   C1B14789   5.550   3.421   7.353  0.0869 -0.3326 -0.0103
  945loPI   C2B14790   5.411   3.358   7.751  0.2298  0.2279  0.1792
  945loPI   C3B14791   5.403   3.434   8.182 -0.3263  0.0688  0.0768
  945loPI   C4B14792   5.416   3.855   8.495  0.2232  0.2207  0.3599
  946loPI    C114793  15.473   6.573   5.070  0.3238 -0.0560 -0.1636
  946loPI    C214794  15.177   6.525   4.805  0.2382 -0.2052 -0.0427
  946loPI    C314795  15.455   6.807   4.745  0.0032  0.0196 -0.0946
  946loPI   PO414796  15.287   6.371   5.274  0.0335 -0.0914  0.1427
  946loPI   GL114797  15.150   6.371   5.690  0.1446 -0.0513  0.2443
  946loPI   GL214798  14.956   6.371   5.805  0.3278 -0.1126  0.1447
  946loPI   C1A14799  15.120   6.142   6.169  0.3997 -0.0797  0.3631
  946loPI   C2A14800  15.239   6.251   6.522 -0.1582 -0.1458 -0.2210
  946loPI   C3A14801  15.236   6.196   6.949 -0.1302  0.5578  0.1104
  946loPI   C4A14802  15.166   6.228   7.392  0.4269  0.1152 -0.1889
  946loPI   C5A14803  15.169   6.126   7.772  0.1738 -0.2874 -0.0616
  946loPI   C6A14804  15.304   5.846   8.086  0.1627 -0.4394 -0.2701
  946loPI   C1B14805  15.118   6.653   6.084  0.0163 -0.1829 -0.3400
  946loPI   C2B14806  15.121   6.713   6.379 -0.3286 -0.0310 -0.3441
  946loPI   C3B14807  15.213   6.762   6.779  0.0637 -0.0347 -0.1087
  946loPI   C4B14808  15.100   6.660   7.128  0.0188 -0.1363  0.0535
  947loPI    C114809   6.708   7.487   5.939  0.0689  0.1161 -0.2996
  947loPI    C214810   7.076   7.330   5.963 -0.0786 -0.1834  0.1378
  947loPI    C314811   6.858   7.280   5.631  0.1383 -0.3144  0.0127
  947loPI   PO414812   6.762   7.699   6.155 -0.1794 -0.0447  0.1819
  947loPI   GL114813   6.556   7.732   6.457  0.1167 -0.1374  0.2340
  947loPI   GL214814   6.291   7.809   6.454  0.0148  0.1810  0.5981
  947loPI   C1A14815   6.586   8.047   6.741  0.1120  0.0180 -0.1736
  947loPI   C2A14816   7.041   8.200   6.885 -0.0324 -0.0205  0.0666
  947loPI   C3A14817   7.082   8.452   7.335  0.2183  0.2354 -0.0394
  947loPI   C4A14818   7.208   8.355   7.786  0.1175  0.0750  0.1926
  947loPI   C5A14819   7.364   8.212   8.143 -0.0602  0.5188  0.0026
  947loPI   C6A14820   7.666   8.420   8.352 -0.1084 -0.1004 -0.3938
  947loPI   C1B14821   6.220   7.748   6.909 -0.4285  0.3378 -0.2428
  947loPI   C2B14822   6.261   7.352   7.201 -0.0790 -0.1057  0.0860
  947loPI   C3B14823   6.025   7.053   7.059 -0.0305 -0.0909 -0.0365
  947loPI   C4B14824   6.318   6.611   7.146  0.2839 -0.1263 -0.0745
  948loPI    C114825  14.604   7.095   5.257 -0.0089  0.1754 -0.1306
  948loPI    C214826  14.468   6.752   5.413  0.1672  0.1124 -0.1130
  948loPI    C314827  14.219   7.061   5.359  0.0589  0.0625  0.0938
  948loPI   PO414828  14.739   7.174   5.368 -0.0273 -0.0786  0.2518
  948loPI   GL114829  14.970   7.068   5.812  0.0084 -0.2793 -0.0266
  948loPI   GL214830  14.702   6.878   5.838 -0.0547 -0.2700 -0.1083
  948loPI   C1A14831  15.155   7.216   6.153  0.1975  0.2176  0.2506
  948loPI   C2A14832  15.069   7.289   6.515  0.4193  0.1905  0.1252
  948loPI   C3A14833  15.202   7.273   6.902 -0.2278  0.0843  0.2477
  948loPI   C4A14834  15.162   7.148   7.293 -0.3156 -0.2379 -0.0863
  948loPI   C5A14835  15.154   7.124   7.769  0.2542  0.1895 -0.0543
  948loPI   C6A14836  15.189   6.782   8.141  0.3956 -0.4739 -0.5062
  948loPI   C1B14837  14.720   6.988   6.230 -0.1570 -0.3330  0.1162
  948loPI   C2B14838  14.680   6.993   6.675  0.1801  0.0511 -0.2790
  948loPI   C3B14839  14.693   6.959   7.091  0.1182 -0.2176  0.2584
  948loPI   C4B14840  14.752   6.948   7.484 -0.0212 -0.2147  0.0155
  949loPI    C114841  15.182   9.075   5.295 -0.0825 -0.2158 -0.1780
  949loPI    C214842  15.362   9.304   5.022 -0.2110  0.1116  0.0065
  949loPI    C314843  14.965   9.319   5.064 -0.2266 -0.1889 -0.0167
  949loPI   PO414844  15.294   9.151   5.536 -0.0889  0.1793  0.0046
  949loPI   GL114845  15.282   9.030   5.826 -0.0217 -0.2256 -0.1164
  949loPI   GL214846  15.488   8.805   5.834  0.1886 -0.1034 -0.1505
  949loPI   C1A14847  15.410   9.124   6.235 -0.1699 -0.1487 -0.1068
  949loPI   C2A14848  15.541   9.139   6.577 -0.5216  0.0130 -0.1808
  949loPI   C3A14849  15.682   9.015   6.897  0.2012  0.1012 -0.0927
  949loPI   C4A14850  15.655   8.997   7.301  0.1703  0.1832  0.2737
  949loPI   C5A14851  15.603   9.042   7.746  0.0366  0.4256 -0.2374
  949loPI   C6A14852  15.823   8.725   7.953  0.0494  0.0034 -0.0019
  949loPI   C1B14853  15.570   8.510   6.174 -0.0199 -0.2534 -0.0758
  949loPI   C2B14854  15.490   8.558   6.551 -0.0623 -0.1903 -0.0252
  949loPI   C3B14855  15.647   8.559   7.080 -0.1040  0.0528 -0.2822
  949loPI   C4B14856  15.588   8.501   7.576  0.0905  0.0198 -0.0298
  950loPI    C114857   3.955   7.857   5.341  0.0394 -0.1488 -0.1514
  950loPI    C214858   3.643   7.813   5.095  0.0029 -0.2890 -0.0816
  950loPI    C314859   4.013   7.843   4.946 -0.0389 -0.1650 -0.1625
  950loPI   PO414860   3.835   7.635   5.518 -0.1471 -0.0800 -0.0239
  950loPI   GL114861   3.936   7.619   6.031 -0.1894  0.1597  0.1374
  950loPI   GL214862   4.054   7.943   5.851  0.3893  0.1075 -0.3340
  950loPI   C1A14863   4.002   7.601   6.572  0.2465  0.0687  0.1645
  950loPI   C2A14864   4.123   7.610   7.000 -0.1598  0.1780 -0.3670
  950loPI   C3A14865   4.066   7.543   7.393  0.1987  0.0635  0.0160
  950loPI   C4A14866   4.040   7.518   7.866  0.0747 -0.0982  0.4030
  950loPI   C5A14867   4.128   7.833   8.252 -0.0088 -0.3203  0.3310
  950loPI   C6A14868   4.252   8.026   8.670 -0.0417  0.0858 -0.2688
  950loPI   C1B14869   3.968   8.029   6.275 -0.1319 -0.0448  0.1958
  950loPI   C2B14870   3.990   8.102   6.761 -0.0145  0.1313 -0.0712
  950loPI   C3B14871   4.063   8.028   7.248  0.1534 -0.0334 -0.0120
  950loPI   C4B14872   4.084   7.979   7.662  0.1386 -0.1178 -0.1694
  951loPI    C114873   6.918  14.741   5.798  0.2067  0.0730 -0.0828
  951loPI    C214874   6.944  15.016   6.087 -0.1200 -0.1365  0.1531
  951loPI    C314875   7.079  15.099   5.720 -0.1832  0.3251  0.2277
  951loPI   PO414876   6.709  14.651   5.820 -0.0731  0.0855  0.0058
  951loPI   GL114877   6.558  14.660   6.240 -0.1744 -0.0141 -0.0650
  951loPI   GL214878   6.564  14.391   6.228 -0.3267  0.2245  0.0121
  951loPI   C1A14879   6.871  14.744   6.512 -0.0729 -0.2199  0.1248
  951loPI   C2A14880   6.955  14.680   6.939 -0.3757 -0.1534  0.1185
  951loPI   C3A14881   7.075  14.677   7.269  0.3479 -0.0089 -0.0170
  951loPI   C4A14882   7.049  14.629   7.714  0.0455 -0.1292  0.0094
  951loPI   C5A14883   6.965  14.761   8.139 -0.3687  0.0240 -0.0497
  951loPI   C6A14884   6.699  14.996   8.306 -0.0578 -0.0314  0.0445
  951loPI   C1B14885   6.501  14.534   6.699  0.3986  0.2507 -0.0282
  951loPI   C2B14886   6.509  14.472   7.177 -0.1298 -0.1670 -0.0579
  951loPI   C3B14887   6.641  14.398   7.560 -0.3201  0.1072  0.1320
  951loPI   C4B14888   6.791  14.281   7.960  0.2563  0.1106  0.1832
  952loPI    C114889  13.965  12.465   5.174 -0.0559 -0.2728  0.0779
  952loPI    C214890  14.029  12.126   4.972  0.0836 -0.2169  0.0268
  952loPI    C314891  14.177  12.471   4.834 -0.0643 -0.1339  0.0744
  952loPI   PO414892  13.872  12.389   5.474  0.2599  0.2260  0.0056
  952loPI   GL114893  13.903  12.483   5.870 -0.2851  0.3697 -0.1456
  952loPI   GL214894  13.659  12.565   6.075 -0.1849  0.0636 -0.0454
  952loPI   C1A14895  14.193  12.356   6.204  0.1225  0.1760  0.1486
  952loPI   C2A14896  14.189  12.353   6.694  0.1669  0.4071  0.0254
  952loPI   C3A14897  14.257  12.261   7.085  0.0746 -0.0185  0.1709
  952loPI   C4A14898  14.197  12.291   7.423 -0.1788  0.2099 -0.0935
  952loPI   C5A14899  14.148  12.184   7.847  0.1045 -0.1543  0.2979
  952loPI   C6A14900  13.994  11.939   8.064 -0.0404 -0.1127 -0.2275
  952loPI   C1B14901  13.747  12.608   6.481 -0.1878 -0.0302  0.1839
  952loPI   C2B14902  13.685  12.607   6.841 -0.1734 -0.1285 -0.0889
  952loPI   C3B14903  13.717  12.593   7.225 -0.3944 -0.0958 -0.2421
  952loPI   C4B14904  13.774  12.459   7.650  0.0046  0.3959 -0.0021
  953loPI    C114905   7.671  15.117   5.624 -0.1084 -0.0234 -0.1120
  953loPI    C214906   7.774  14.872   5.324  0.0183 -0.0663 -0.0343
  953loPI    C314907   7.420  15.058   5.318  0.1074  0.1015 -0.3176
  953loPI   PO414908   7.640  14.987   5.870  0.2543 -0.1360 -0.0752
  953loPI   GL114909   7.731  14.892   6.268 -0.1300 -0.1950  0.0401
  953loPI   GL214910   7.764  14.676   6.462 -0.0963 -0.2591  0.0562
  953loPI   C1A14911   7.669  15.205   6.655  0.1633  0.0044 -0.1919
  953loPI   C2A14912   7.782  15.277   6.985  0.0858  0.1086 -0.0708
  953loPI   C3A14913   7.835  15.312   7.355  0.0057 -0.0523 -0.2332
  953loPI   C4A14914   7.870  15.245   7.696 -0.0425  0.1424  0.1160
  953loPI   C5A14915   7.879  15.203   8.138 -0.2119  0.2351  0.2197
  953loPI   C6A14916   7.661  15.274   8.579  0.1173 -0.2367  0.0974
  953loPI   C1B14917   7.846  14.733   6.832 -0.1569  0.3675  0.0489
  953loPI   C2B14918   7.833  14.729   7.280 -0.1079 -0.0126 -0.0301
  953loPI   C3B14919   7.808  14.667   7.755  0.0563  0.1665 -0.0384
  953loPI   C4B14920   7.928  14.667   8.170  0.0541  0.2508 -0.1689
  954loPI    C114921   5.942   0.501   6.029 -0.0274 -0.1257 -0.1571
  954loPI    C214922   5.586   0.636   6.150 -0.0068 -0.0249 -0.2081
  954loPI    C314923   5.663   0.598   5.759  0.0932  0.1052 -0.2018
  954loPI   PO414924   6.032   0.372   6.188  0.1214  0.0109 -0.0192
  954loPI   GL114925   6.321   0.490   6.542  0.1488  0.3996 -0.1369
  954loPI   GL214926   6.208   0.170   6.627 -0.0257 -0.0080  0.1653
  954loPI   C1A14927   6.631   0.530   6.896  0.0291  0.0606  0.0772
  954loPI   C2A14928   6.627   0.554   7.302 -0.1936  0.0896  0.1145
  954loPI   C3A14929   6.768   0.348   7.646  0.0895  0.2040 -0.0341
  954loPI   C4A14930   6.962   0.272   8.051  0.1401 -0.1069  0.0370
  954loPI   C5A14931   7.275   0.047   8.305  0.1630 -0.0285 -0.3064
  954loPI   C6A14932   7.575  -0.229   8.418  0.1162  0.2448  0.1561
  954loPI   C1B14933   6.251   0.284   6.993 -0.0966 -0.2154  0.2097
  954loPI   C2B14934   6.322   0.124   7.485 -0.1890  0.0877 -0.2159
  954loPI   C3B14935   6.109   0.221   7.845 -0.0177  0.0895 -0.0743
  954loPI   C4B14936   6.359   0.448   8.091  0.0523 -0.0704 -0.0842
  955loPI    C114937   9.313   1.399   5.483 -0.1830  0.2018  0.1146
  955loPI    C214938   9.195   1.056   5.315  0.1797  0.0369  0.1888
  955loPI    C314939   9.174   1.397   5.108 -0.1911 -0.0253  0.1174
  955loPI   PO414940   9.120   1.443   5.669 -0.2183  0.0330 -0.0150
  955loPI   GL114941   9.115   1.421   6.176 -0.1786  0.3333  0.1333
  955loPI   GL214942   8.811   1.501   6.285  0.0851  0.0587  0.1186
  955loPI   C1A14943   9.154   1.135   6.454 -0.0603 -0.0172 -0.1823
  955loPI   C2A14944   9.264   1.147   6.853 -0.2962  0.2319  0.0406
  955loPI   C3A14945   9.532   1.055   7.187  0.1212  0.0536  0.0367
  955loPI   C4A14946   9.513   0.918   7.552  0.1341  0.0036 -0.1524
  955loPI   C5A14947   9.536   0.842   8.016  0.0178  0.1613 -0.0948
  955loPI   C6A14948   9.520   0.355   8.163  0.1827  0.3074 -0.1186
  955loPI   C1B14949   8.889   1.501   6.735 -0.0006 -0.0719 -0.0112
  955loPI   C2B14950   8.846   1.301   7.139  0.1248 -0.1539  0.2546
  955loPI   C3B14951   9.138   1.364   7.439 -0.0444 -0.0258  0.1430
  955loPI   C4B14952   9.157   1.128   7.839  0.1070  0.0222 -0.0295
  956loPI    C114953   5.889  13.360   5.746  0.0938 -0.1364  0.1827
  956loPI    C214954   6.179  13.612   5.855 -0.0851  0.1256  0.0615
  956loPI    C314955   6.021  13.635   5.488 -0.0228 -0.2422  0.0082
  956loPI   PO414956   5.662  13.340   5.960 -0.1019 -0.3290  0.3312
  956loPI   GL114957   5.612  13.563   6.218  0.1795 -0.1179  0.4378
  956loPI   GL214958   5.418  13.742   6.197 -0.0366  0.1830 -0.2170
  956loPI   C1A14959   5.587  13.472   6.609 -0.2766  0.2148  0.0061
  956loPI   C2A14960   5.548  13.352   7.099 -0.0669  0.2234  0.1869
  956loPI   C3A14961   5.685  13.480   7.484 -0.0469  0.0077  0.0004
  956loPI   C4A14962   5.697  13.372   7.972  0.0842  0.0242 -0.3785
  956loPI   C5A14963   5.486  13.404   8.342 -0.1832 -0.0068  0.2523
  956loPI   C6A14964   5.383  13.541   8.748 -0.1328 -0.3246  0.1136
  956loPI   C1B14965   5.608  13.956   6.490  0.3026  0.1273 -0.0906
  956loPI   C2B14966   5.664  13.856   6.991 -0.2030 -0.0305  0.0669
  956loPI   C3B14967   5.634  13.947   7.412 -0.0816  0.1703 -0.0055
  956loPI   C4B14968   5.583  13.903   7.793 -0.1373  0.0607  0.0106
  957loPI    C114969  12.303   6.193   5.240  0.1006 -0.1252  0.1071
  957loPI    C214970  12.652   6.062   5.094  0.1048 -0.0364  0.0371
  957loPI    C314971  12.309   5.895   4.973  0.1141 -0.0238 -0.0067
  957loPI   PO414972  12.330   6.162   5.514  0.3571  0.1958  0.2912
  957loPI   GL114973  12.254   6.189   5.809 -0.1103  0.0675 -0.0158
  957loPI   GL214974  12.508   6.150   6.003  0.0287 -0.0065  0.3235
  957loPI   C1A14975  12.099   6.444   6.127 -0.0984  0.2296  0.1028
  957loPI   C2A14976  11.985   6.359   6.569 -0.1923 -0.3817  0.0067
  957loPI   C3A14977  12.056   6.361   6.998  0.3128 -0.2507 -0.0100
  957loPI   C4A14978  12.098   6.341   7.463 -0.5437  0.0025  0.2089
  957loPI   C5A14979  11.971   6.355   7.897  0.0832 -0.0543 -0.1342
  957loPI   C6A14980  11.683   6.529   8.096 -0.1367 -0.1884 -0.2002
  957loPI   C1B14981  12.496   6.211   6.380 -0.2694 -0.0528 -0.0218
  957loPI   C2B14982  12.419   6.184   6.712  0.3051  0.2108  0.1739
  957loPI   C3B14983  12.444   6.167   7.131  0.0890  0.0997 -0.1504
  957loPI   C4B14984  12.525   6.047   7.554 -0.0979 -0.1147  0.0690
  958loPI    C114985   0.973  16.895   5.361 -0.1001 -0.1402 -0.1907
  958loPI    C214986   1.213  16.735   5.085 -0.1402  0.0245 -0.3227
  958loPI    C314987   1.272  17.111   5.207  0.0548 -0.1381  0.1054
  958loPI   PO414988   0.900  16.723   5.545  0.1056 -0.0047  0.0755
  958loPI   GL114989   1.008  16.803   5.949 -0.1038  0.0828  0.1006
  958loPI   GL214990   1.310  16.796   6.037  0.0230  0.0379 -0.0470
  958loPI   C1A14991   0.804  16.749   6.417  0.1881 -0.2250  0.1541
  958loPI   C2A14992   0.794  16.579   6.782  0.1995 -0.1965 -0.0389
  958loPI   C3A14993   0.707  16.620   7.207 -0.4626  0.1055  0.3832
  958loPI   C4A14994   0.623  16.677   7.674  0.0798 -0.0443  0.0519
  958loPI   C5A14995   0.537  16.751   8.125  0.2267 -0.2126 -0.0918
  958loPI   C6A14996   0.492  16.981   8.514  0.0437  0.2295 -0.0621
  958loPI   C1B14997   1.327  16.842   6.422  0.1314  0.1241  0.1676
  958loPI   C2B14998   1.269  16.947   6.860  0.2370 -0.1943  0.2652
  958loPI   C3B14999   1.216  17.016   7.226 -0.0486  0.2388  0.0329
  958loPI   C4B15000   1.115  16.981   7.635 -0.1258 -0.1791  0.0122
  959loPI    C115001   1.914  13.421   5.609  0.0797  0.1555  0.1382
  959loPI    C215002   1.692  13.434   5.277  0.0583  0.0266  0.1471
  959loPI    C315003   2.070  13.563   5.270  0.0512  0.0437  0.0780
  959loPI   PO415004   1.972  13.110   5.694 -0.0232  0.0114  0.0285
  959loPI   GL115005   2.188  13.044   6.011  0.1761 -0.1285  0.1111
  959loPI   GL215006   2.367  13.305   6.034  0.1336  0.0689 -0.3418
  959loPI   C1A15007   2.105  12.798   6.254  0.2566 -0.1082 -0.0475
  959loPI   C2A15008   2.160  12.658   6.684  0.0396  0.3430 -0.0378
  959loPI   C3A15009   2.144  12.741   7.186  0.1723 -0.1403  0.0314
  959loPI   C4A15010   2.121  12.791   7.554 -0.0213  0.3152  0.0587
  959loPI   C5A15011   1.989  12.801   7.908 -0.0104 -0.0120 -0.4633
  959loPI   C6A15012   1.829  12.755   8.353  0.0398  0.2820  0.0372
  959loPI   C1B15013   2.113  13.389   6.426  0.1825 -0.2190  0.1722
  959loPI   C2B15014   2.179  13.342   6.865 -0.2980 -0.1320 -0.3686
  959loPI   C3B15015   2.092  13.251   7.234 -0.1278 -0.0568  0.0208
  959loPI   C4B15016   2.080  13.259   7.640 -0.0506 -0.4942 -0.1529
  960loPI    C115017  16.108   7.382   5.139  0.2053 -0.1166 -0.0157
  960loPI    C215018  16.260   7.709   4.966 -0.2550  0.0982 -0.0272
  960loPI    C315019  16.226   7.370   4.757  0.2082  0.0416 -0.0201
  960loPI   PO415020  15.946   7.471   5.348  0.0788 -0.0517  0.0482
  960loPI   GL115021  15.783   7.441   5.669 -0.0820  0.2857 -0.1041
  960loPI   GL215022  16.032   7.336   5.801  0.0555 -0.0017  0.0455
  960loPI   C1A15023  15.423   7.528   5.974 -0.1134 -0.4787 -0.0922
  960loPI   C2A15024  15.646   7.503   6.405  0.3003  0.3798  0.0731
  960loPI   C3A15025  15.666   7.560   6.879 -0.0099 -0.1670 -0.0513
  960loPI   C4A15026  15.591   7.425   7.253  0.0068  0.0928 -0.4039
  960loPI   C5A15027  15.634   7.409   7.736 -0.3389 -0.1461  0.3348
  960loPI   C6A15028  15.706   7.084   8.052  0.0463  0.1247 -0.3460
  960loPI   C1B15029  15.987   7.328   6.136  0.1153  0.1044 -0.3475
  960loPI   C2B15030  16.089   7.225   6.595 -0.0218 -0.0087  0.0025
  960loPI   C3B15031  16.036   7.257   7.070  0.1578  0.1798  0.1239
  960loPI   C4B15032  16.074   7.187   7.387 -0.0680 -0.0815  0.1187
  961loPI    C115033   2.713  12.169   5.093 -0.0481 -0.0709  0.2674
  961loPI    C215034   2.695  11.964   4.750  0.1062  0.4191 -0.0426
  961loPI    C315035   2.377  12.173   4.876  0.0304  0.1936  0.1477
  961loPI   PO415036   2.741  12.024   5.272  0.2873  0.0012 -0.1886
  961loPI   GL115037   2.787  12.084   5.829  0.3721  0.0646 -0.1208
  961loPI   GL215038   3.025  12.085   5.988 -0.0998 -0.0999  0.2834
  961loPI   C1A15039   2.540  11.978   6.221 -0.1991  0.0421  0.0210
  961loPI   C2A15040   2.530  12.044   6.618 -0.0696  0.2257 -0.0586
  961loPI   C3A15041   2.657  12.000   7.069  0.0582  0.2217  0.2158
  961loPI   C4A15042   2.562  12.016   7.528  0.0897 -0.0073  0.0471
  961loPI   C5A15043   2.501  11.975   7.945 -0.1415  0.0951 -0.0438
  961loPI   C6A15044   2.640  11.805   8.403  0.1341 -0.1305  0.2884
  961loPI   C1B15045   2.969  12.224   6.355  0.1110 -0.0170  0.2589
  961loPI   C2B15046   3.149  12.321   6.670 -0.1259 -0.0826 -0.1064
  961loPI   C3B15047   3.080  12.272   7.152  0.4186  0.0311  0.0694
  961loPI   C4B15048   2.970  12.305   7.586 -0.2115  0.2261  0.0097
  962loPI    C115049   9.813   5.993   5.816  0.0457  0.1035 -0.1642
  962loPI    C215050   9.738   5.692   6.069  0.1089  0.2323  0.0090
  962loPI    C315051   9.541   5.715   5.722 -0.1023  0.1479  0.1220
  962loPI   PO415052   9.842   6.164   6.089  0.2260 -0.2553 -0.2405
  962loPI   GL115053   9.908   5.940   6.509 -0.0561  0.2067 -0.0991
  962loPI   GL215054   9.816   5.580   6.536 -0.1913  0.0769 -0.2032
  962loPI   C1A15055  10.288   6.032   6.742 -0.2501  0.0743 -0.0007
  962loPI   C2A15056  10.530   6.116   7.101 -0.2040 -0.1462 -0.2398
  962loPI   C3A15057  10.725   6.114   7.444 -0.0592  0.0512  0.0133
  962loPI   C4A15058  10.814   5.951   7.849  0.0557  0.4833  0.3718
  962loPI   C5A15059  11.161   5.947   8.188 -0.0569 -0.1397  0.1925
  962loPI   C6A15060  11.154   5.891   8.707  0.1439  0.2044  0.1428
  962loPI   C1B15061   9.846   5.692   6.946 -0.0135  0.1030 -0.0093
  962loPI   C2B15062  10.232   5.776   7.215 -0.1830  0.1264 -0.1655
  962loPI   C3B15063  10.335   5.696   7.675  0.0435 -0.2893  0.0726
  962loPI   C4B15064  10.309   5.597   8.008  0.2450  0.0006  0.1114
  963loPI    C115065   2.037  15.371   5.701 -0.1495  0.0265 -0.0412
  963loPI    C215066   1.767  15.647   5.594 -0.1070  0.0094 -0.1952
  963loPI    C315067   2.141  15.668   5.453  0.1302  0.3454  0.4404
  963loPI   PO415068   2.090  15.378   6.030  0.0942 -0.0317  0.0350
  963loPI   GL115069   1.877  15.282   6.391 -0.0419 -0.0627 -0.1602
  963loPI   GL215070   2.074  14.861   6.335  0.0827 -0.2923  0.1555
  963loPI   C1A15071   2.000  15.281   6.905 -0.0688 -0.0758 -0.0957
  963loPI   C2A15072   1.946  15.331   7.302 -0.1945 -0.1167  0.0696
  963loPI   C3A15073   2.022  15.333   7.747 -0.1010  0.1749 -0.1915
  963loPI   C4A15074   1.966  15.800   7.979 -0.2403  0.1120 -0.0509
  963loPI   C5A15075   1.830  16.013   8.357 -0.0314  0.0869  0.1032
  963loPI   C6A15076   1.790  16.326   8.720  0.0839  0.0065  0.0159
  963loPI   C1B15077   2.012  14.801   6.741  0.2289  0.0676 -0.2292
  963loPI   C2B15078   2.025  14.809   7.158  0.0913  0.4571  0.2075
  963loPI   C3B15079   1.995  14.865   7.545 -0.0570  0.2385 -0.1989
  963loPI   C4B15080   2.058  14.775   7.894  0.0813  0.1234  0.2118
  964loPI    C115081   5.624  10.869   5.493 -0.0099  0.0223  0.2345
  964loPI    C215082   5.490  11.197   5.308  0.0591  0.0073  0.1575
  964loPI    C315083   5.277  10.859   5.294  0.0359  0.0219  0.1541
  964loPI   PO415084   5.709  10.944   5.726 -0.2240  0.2352  0.1856
  964loPI   GL115085   5.654  10.691   6.076  0.1391  0.1778 -0.1765
  964loPI   GL215086   5.612  10.945   6.237 -0.1666  0.1303  0.0378
  964loPI   C1A15087   6.061  10.610   6.377  0.1546 -0.0987 -0.0884
  964loPI   C2A15088   6.056  10.531   6.796 -0.1208 -0.1262 -0.2392
  964loPI   C3A15089   6.083  10.501   7.210 -0.2551  0.0558  0.2207
  964loPI   C4A15090   6.127  10.632   7.610  0.1120  0.0218  0.3941
  964loPI   C5A15091   6.250  10.533   7.999 -0.1366 -0.1274 -0.0564
  964loPI   C6A15092   6.288  10.402   8.467 -0.3036 -0.2617  0.0182
  964loPI   C1B15093   5.674  10.766   6.618 -0.1920 -0.1594 -0.1703
  964loPI   C2B15094   5.672  10.664   7.041  0.2042  0.1860 -0.2334
  964loPI   C3B15095   5.637  10.785   7.405 -0.1666  0.2831 -0.1498
  964loPI   C4B15096   5.687  10.844   7.849  0.3252  0.1835  0.4169
  965loPI    C115097  10.293   2.642   5.350 -0.0190  0.0693  0.2079
  965loPI    C215098   9.905   2.615   5.442 -0.1007 -0.0239 -0.1483
  965loPI    C315099  10.022   2.843   5.134  0.0957 -0.2304 -0.2288
  965loPI   PO415100  10.477   2.682   5.590 -0.2095 -0.2948 -0.4552
  965loPI   GL115101  10.505   3.000   5.960 -0.3572 -0.0056 -0.3762
  965loPI   GL215102  10.424   3.325   6.079  0.0833 -0.0791 -0.2515
  965loPI   C1A15103  10.609   2.914   6.424  0.1404  0.0545  0.1026
  965loPI   C2A15104  10.793   2.876   6.828 -0.0735 -0.2177 -0.3140
  965loPI   C3A15105  10.827   2.986   7.207  0.0836  0.3676 -0.1330
  965loPI   C4A15106  10.909   2.886   7.638  0.0316  0.1183 -0.2735
  965loPI   C5A15107  11.101   2.764   8.047 -0.0231 -0.1006  0.2453
  965loPI   C6A15108  11.208   2.653   8.405 -0.4718 -0.1305 -0.0645
  965loPI   C1B15109  10.487   3.439   6.436  0.1586  0.3140 -0.1597
  965loPI   C2B15110  10.698   3.383   6.699  0.0049 -0.0372  0.0058
  965loPI   C3B15111  10.720   3.445   7.224 -0.0145  0.1340  0.0227
  965loPI   C4B15112  10.721   3.533   7.578 -0.2040 -0.2903 -0.1348
  966loPI    C115113   0.243  17.794   5.474 -0.0385 -0.0770 -0.1380
  966loPI    C215114  -0.091  17.605   5.359 -0.0579 -0.0754 -0.0847
  966loPI    C315115   0.195  17.687   5.091  0.0206 -0.3210 -0.0788
  966loPI   PO415116   0.131  17.909   5.687 -0.0264 -0.3292  0.0519
  966loPI   GL115117   0.291  18.086   6.039  0.2629 -0.0022 -0.0287
  966loPI   GL215118   0.036  18.217   6.035  0.2535 -0.4274  0.0690
  966loPI   C1A15119   0.272  17.913   6.484  0.0725 -0.3210 -0.1529
  966loPI   C2A15120   0.315  17.870   6.891 -0.1634  0.0567  0.0398
  966loPI   C3A15121   0.268  17.898   7.252  0.1535 -0.1056 -0.1763
  966loPI   C4A15122   0.160  17.922   7.724  0.1065  0.0371 -0.1725
  966loPI   C5A15123  -0.088  18.154   8.078  0.2502  0.1091  0.1658
  966loPI   C6A15124  -0.353  18.429   8.188 -0.1007 -0.0439 -0.0694
  966loPI   C1B15125  -0.164  18.169   6.395  0.2745  0.0260  0.0176
  966loPI   C2B15126  -0.205  18.083   6.849 -0.2077  0.0961  0.3197
  966loPI   C3B15127  -0.251  18.229   7.252  0.3686  0.0210 -0.0501
  966loPI   C4B15128  -0.287  18.304   7.598 -0.1100 -0.0777 -0.0388
  967loPI    C115129  15.750  11.053   5.342 -0.1638  0.1786  0.1715
  967loPI    C215130  15.797  10.975   4.952 -0.1678 -0.0400  0.2135
  967loPI    C315131  15.639  11.324   5.069 -0.0493  0.0788  0.0242
  967loPI   PO415132  15.903  10.818   5.484 -0.2053 -0.1085  0.3099
  967loPI   GL115133  16.051  10.638   5.780 -0.3393  0.0558  0.0401
  967loPI   GL215134  15.962  10.299   5.938 -0.2675 -0.1369 -0.3156
  967loPI   C1A15135  16.055  10.786   6.149  0.3500  0.2024 -0.0982
  967loPI   C2A15136  16.050  10.840   6.560 -0.1838 -0.1196 -0.1561
  967loPI   C3A15137  16.015  10.901   7.036  0.1352 -0.2509  0.0360
  967loPI   C4A15138  16.005  10.839   7.429 -0.0313  0.0975  0.2351
  967loPI   C5A15139  16.015  10.821   7.927  0.0398  0.1287 -0.1031
  967loPI   C6A15140  15.815  10.734   8.423 -0.0790  0.1919  0.1119
  967loPI   C1B15141  16.074  10.321   6.325  0.1081 -0.0874  0.0467
  967loPI   C2B15142  16.016  10.339   6.699 -0.0674  0.1110 -0.2953
  967loPI   C3B15143  15.972  10.393   7.176  0.0692 -0.0719  0.1793
  967loPI   C4B15144  16.107  10.359   7.621  0.0921  0.0895 -0.2478
  968loPI    C115145  16.767  12.431   5.176 -0.1689 -0.3044 -0.0631
  968loPI    C215146  17.103  12.375   4.967 -0.0610  0.1548 -0.0243
  968loPI    C315147  16.750  12.394   4.778 -0.0138  0.1274 -0.1156
  968loPI   PO415148  16.812  12.301   5.417 -0.0045  0.1043 -0.2394
  968loPI   GL115149  16.912  12.265   5.858  0.3420 -0.1690 -0.2305
  968loPI   GL215150  16.588  12.124   5.810  0.1017  0.2206 -0.3343
  968loPI   C1A15151  16.963  11.954   6.203 -0.3205  0.0709 -0.1729
  968loPI   C2A15152  16.789  11.813   6.540 -0.0384  0.1089 -0.0260
  968loPI   C3A15153  16.869  11.884   6.973  0.2766 -0.0676 -0.0356
  968loPI   C4A15154  16.830  11.953   7.384 -0.0062 -0.1761  0.0414
  968loPI   C5A15155  16.711  11.970   7.830  0.0384 -0.0399 -0.2872
  968loPI   C6A15156  16.705  12.057   8.264 -0.0707  0.2085 -0.0939
  968loPI   C1B15157  16.497  12.133   6.278  0.0796 -0.2174  0.2313
  968loPI   C2B15158  16.430  12.096   6.680 -0.3060  0.3338 -0.0080
  968loPI   C3B15159  16.365  12.112   7.090  0.3696  0.3551 -0.2352
  968loPI   C4B15160  16.418  12.161   7.489 -0.0137 -0.1993  0.1286
  969loPI    C115161   4.936   5.234   5.947 -0.1382  0.2277  0.0561
  969loPI    C215162   5.166   5.207   6.273 -0.0664 -0.1168 -0.0185
  969loPI    C315163   5.299   5.069   5.922 -0.3521 -0.2410 -0.0808
  969loPI   PO415164   4.805   5.448   5.940  0.1085  0.1536  0.3232
  969loPI   GL115165   4.590   5.747   6.191  0.0136 -0.1564  0.0659
  969loPI   GL215166   4.699   5.489   6.436 -0.2630 -0.3151  0.2011
  969loPI   C1A15167   4.605   6.016   6.612  0.1313 -0.1758 -0.1906
  969loPI   C2A15168   4.572   6.309   6.971 -0.0189 -0.2495 -0.0759
  969loPI   C3A15169   4.722   6.315   7.442 -0.1940  0.0244 -0.0781
  969loPI   C4A15170   4.683   6.183   7.841 -0.0101 -0.2692 -0.2583
  969loPI   C5A15171   4.679   6.187   8.274  0.2387  0.2183  0.1317
  969loPI   C6A15172   4.320   6.320   8.632  0.0434  0.1044 -0.3165
  969loPI   C1B15173   4.887   5.585   6.794  0.2189 -0.0802 -0.0159
  969loPI   C2B15174   4.721   5.304   7.191 -0.1210 -0.1248  0.1963
  969loPI   C3B15175   4.685   4.829   7.378  0.4544  0.0939 -0.4623
  969loPI   C4B15176   4.737   4.481   7.676  0.0233 -0.0408  0.4504
  970loPI    C115177  13.747  15.265   5.290  0.1447 -0.0802 -0.0938
  970loPI    C215178  13.686  15.061   4.951 -0.0294  0.1142 -0.1825
  970loPI    C315179  13.797  15.445   4.936  0.2381  0.0462 -0.0172
  970loPI   PO415180  13.613  15.378   5.433  0.2879  0.0074 -0.0032
  970loPI   GL115181  13.583  15.360   5.766  0.3230  0.0111  0.2645
  970loPI   GL215182  13.760  15.603   5.817 -0.0926 -0.0176 -0.1101
  970loPI   C1A15183  13.522  15.312   6.163 -0.0526  0.2068  0.1113
  970loPI   C2A15184  13.578  15.354   6.580  0.1423  0.1856 -0.1587
  970loPI   C3A15185  13.649  15.192   6.943 -0.2974  0.0014  0.0754
  970loPI   C4A15186  13.624  15.152   7.285 -0.0652  0.3840 -0.0032
  970loPI   C5A15187  13.632  15.127   7.761  0.1479  0.1509  0.0537
  970loPI   C6A15188  13.569  15.156   8.185 -0.1728  0.0794 -0.0976
  970loPI   C1B15189  13.974  15.578   6.249 -0.0363  0.3452  0.2402
  970loPI   C2B15190  14.043  15.500   6.589 -0.1908 -0.0293 -0.3330
  970loPI   C3B15191  14.135  15.457   7.059  0.0843  0.0179  0.1402
  970loPI   C4B15192  14.030  15.405   7.465  0.2617  0.3323 -0.1035
  971loPI    C115193   7.933  14.029   5.654 -0.1633  0.1519  0.0221
  971loPI    C215194   7.610  14.199   5.490 -0.0876  0.2287 -0.0481
  971loPI    C315195   7.969  14.373   5.454  0.0155 -0.0175 -0.2433
  971loPI   PO415196   7.849  14.045   5.951  0.2228 -0.3836 -0.1527
  971loPI   GL115197   7.994  14.220   6.233 -0.0123  0.3323 -0.0493
  971loPI   GL215198   8.174  14.516   6.286 -0.0072  0.3657 -0.3174
  971loPI   C1A15199   7.828  14.244   6.680 -0.1595 -0.1883 -0.2252
  971loPI   C2A15200   7.926  14.212   7.198 -0.1562  0.0356 -0.0321
  971loPI   C3A15201   7.944  14.102   7.537  0.1106  0.0869 -0.1243
  971loPI   C4A15202   7.912  14.177   7.942 -0.2024 -0.2253 -0.1253
  971loPI   C5A15203   7.698  14.203   8.312 -0.0663  0.1771 -0.1738
  971loPI   C6A15204   7.430  14.331   8.759 -0.1805  0.0179  0.0017
  971loPI   C1B15205   8.311  14.451   6.748  0.1627  0.2869  0.2670
  971loPI   C2B15206   8.353  14.462   7.118 -0.2609 -0.0014 -0.1071
  971loPI   C3B15207   8.247  14.520   7.554  0.0310  0.1496  0.1247
  971loPI   C4B15208   8.289  14.421   7.961  0.0765  0.0464 -0.1087
  972loPI    C115209   6.308   2.159   6.345  0.0985 -0.0858 -0.0924
  972loPI    C215210   6.291   2.466   6.089  0.1495 -0.1815 -0.2118
  972loPI    C315211   6.425   2.523   6.461  0.0420 -0.0345 -0.1945
  972loPI   PO415212   6.364   1.935   6.263  0.1676 -0.0290 -0.1214
  972loPI   GL115213   6.409   1.654   6.666  0.1665  0.1213  0.3041
  972loPI   GL215214   6.077   1.955   6.752 -0.2371 -0.0886 -0.0608
  972loPI   C1A15215   6.422   1.595   7.001 -0.2774  0.0261  0.0313
  972loPI   C2A15216   6.294   1.759   7.401  0.1023  0.0862  0.0557
  972loPI   C3A15217   6.231   1.748   7.834 -0.0409  0.1355 -0.0694
  972loPI   C4A15218   6.392   1.868   8.145 -0.0369 -0.2201 -0.1054
  972loPI   C5A15219   6.810   2.090   8.241  0.0335  0.2554 -0.1165
  972loPI   C6A15220   7.094   2.137   8.551 -0.0298  0.1587 -0.4137
  972loPI   C1B15221   6.410   2.154   7.056  0.1361  0.0120 -0.0735
  972loPI   C2B15222   6.564   2.379   7.266  0.1247 -0.0792  0.1348
  972loPI   C3B15223   7.027   2.417   7.291  0.2013 -0.1460 -0.5025
  972loPI   C4B15224   7.316   2.080   7.337 -0.0417  0.1944 -0.2280
  973loPI    C115225   6.542  12.637   5.582 -0.0741 -0.1926  0.0027
  973loPI    C215226   6.373  12.570   5.226  0.0215 -0.1360 -0.0539
  973loPI    C315227   6.633  12.870   5.271  0.2888 -0.3674 -0.0275
  973loPI   PO415228   6.368  12.674   5.739 -0.1095  0.1505  0.0273
  973loPI   GL115229   6.228  12.965   6.092 -0.0949  0.2837 -0.2285
  973loPI   GL215230   6.083  12.783   6.276 -0.3490 -0.0098 -0.1523
  973loPI   C1A15231   6.088  13.238   6.423  0.0541  0.1925 -0.4042
  973loPI   C2A15232   5.998  13.239   6.910  0.0906  0.0171  0.1674
  973loPI   C3A15233   6.093  13.228   7.356 -0.0109  0.0371  0.1343
  973loPI   C4A15234   6.177  13.135   7.769  0.0625  0.2789  0.2444
  973loPI   C5A15235   6.079  13.128   8.229  0.1272  0.1840 -0.0920
  973loPI   C6A15236   6.313  12.740   8.500  0.1541 -0.1863  0.0755
  973loPI   C1B15237   6.081  12.778   6.656 -0.3621 -0.1436 -0.2158
  973loPI   C2B15238   6.061  12.756   7.074  0.2230 -0.1675 -0.1184
  973loPI   C3B15239   6.105  12.643   7.481  0.1401  0.0395  0.1904
  973loPI   C4B15240   6.214  12.610   7.924 -0.1078  0.2104 -0.2377
  974loPI    C115241   2.364   5.812   5.396  0.1286 -0.0994 -0.1410
  974loPI    C215242   2.276   6.192   5.487  0.0526 -0.1098 -0.1703
  974loPI    C315243   2.294   6.077   5.104  0.1082 -0.1282 -0.1623
  974loPI   PO415244   2.304   5.702   5.613  0.0762 -0.1682  0.0841
  974loPI   GL115245   2.073   5.897   6.045 -0.4469  0.1687  0.2636
  974loPI   GL215246   2.393   5.978   6.051  0.1502 -0.0427 -0.0629
  974loPI   C1A15247   1.892   5.688   6.315 -0.4851  0.1235  0.1370
  974loPI   C2A15248   1.799   5.708   6.741  0.0263 -0.0641 -0.1102
  974loPI   C3A15249   1.770   5.801   7.125 -0.0041  0.2183 -0.0092
  974loPI   C4A15250   1.868   5.855   7.521  0.0361  0.0213  0.1275
  974loPI   C5A15251   1.759   5.746   7.882  0.0353 -0.1104  0.0768
  974loPI   C6A15252   1.666   5.707   8.312  0.1519 -0.1353  0.0420
  974loPI   C1B15253   2.245   6.060   6.515  0.0338 -0.0833  0.0993
  974loPI   C2B15254   2.187   6.030   6.892  0.1454 -0.0962  0.1180
  974loPI   C3B15255   2.271   6.084   7.314  0.0232  0.3295  0.4011
  974loPI   C4B15256   2.275   6.027   7.859 -0.0944 -0.1301 -0.1569
  975loPI    C115257   0.685   4.245   5.390  0.0841 -0.1306 -0.1734
  975loPI    C215258   0.517   4.332   5.037 -0.2110 -0.3447 -0.0890
  975loPI    C315259   0.760   4.016   5.071 -0.1814 -0.3232 -0.1004
  975loPI   PO415260   0.459   4.160   5.548  0.2442  0.2131 -0.1297
  975loPI   GL115261   0.330   4.012   5.986  0.2126  0.0554  0.4288
  975loPI   GL215262   0.634   4.088   6.091  0.1804 -0.3095 -0.3164
  975loPI   C1A15263   0.039   4.090   6.316  0.2097  0.0595  0.1801
  975loPI   C2A15264   0.025   4.235   6.798  0.3719  0.0108  0.0862
  975loPI   C3A15265   0.036   4.211   7.229 -0.1421 -0.0593 -0.2391
  975loPI   C4A15266  -0.013   4.061   7.673  0.1397 -0.2799  0.3471
  975loPI   C5A15267   0.005   3.894   8.054 -0.0081  0.1723  0.2726
  975loPI   C6A15268   0.131   3.844   8.385 -0.3006  0.1714  0.0159
  975loPI   C1B15269   0.491   4.059   6.552  0.0365  0.1866  0.2095
  975loPI   C2B15270   0.535   3.893   6.943  0.1483  0.1773  0.1612
  975loPI   C3B15271   0.437   3.873   7.442  0.0661 -0.2877 -0.1109
  975loPI   C4B15272   0.436   3.698   7.895 -0.0787  0.1641 -0.0293
  976loPI    C115273  13.574  14.027   5.336 -0.0750 -0.0009 -0.0379
  976loPI    C215274  13.418  13.775   5.066 -0.1515 -0.0192  0.0231
  976loPI    C315275  13.622  14.097   4.945 -0.0808 -0.0932 -0.0555
  976loPI   PO415276  13.531  13.906   5.550  0.3684 -0.1300  0.0103
  976loPI   GL115277  13.335  13.655   5.934 -0.0104  0.2780 -0.0815
  976loPI   GL215278  13.088  13.462   6.061 -0.1990  0.0674 -0.0382
  976loPI   C1A15279  13.282  13.851   6.373  0.2681 -0.0275  0.1605
  976loPI   C2A15280  13.258  13.959   6.854 -0.2173 -0.2518 -0.1385
  976loPI   C3A15281  13.356  13.846   7.288 -0.0408  0.2024 -0.0526
  976loPI   C4A15282  13.328  13.784   7.645  0.3144  0.1585 -0.1247
  976loPI   C5A15283  13.455  13.731   8.049 -0.1794  0.0702 -0.0360
  976loPI   C6A15284  13.310  13.589   8.317 -0.1572  0.0353  0.1835
  976loPI   C1B15285  13.250  13.348   6.540 -0.3105  0.2066  0.1469
  976loPI   C2B15286  13.259  13.443   7.018  0.0056  0.0072 -0.1216
  976loPI   C3B15287  13.284  13.333   7.417  0.3022  0.2474  0.4105
  976loPI   C4B15288  13.374  13.265   7.851  0.0716  0.2391  0.4103
  977loPI    C115289   2.409  13.191   5.514  0.2232 -0.5738  0.2147
  977loPI    C215290   2.143  13.067   5.242  0.2710 -0.1930 -0.0130
  977loPI    C315291   2.462  13.278   5.127  0.4039 -0.2078  0.3180
  977loPI   PO415292   2.586  12.909   5.703 -0.5174 -0.1347  0.0908
  977loPI   GL115293   2.686  12.857   6.113  0.0266 -0.1961 -0.0425
  977loPI   GL215294   2.994  12.750   6.256 -0.4421 -0.1110  0.0985
  977loPI   C1A15295   2.532  13.040   6.573  0.0186  0.2119  0.2326
  977loPI   C2A15296   2.566  12.971   7.006  0.2947  0.0313  0.3608
  977loPI   C3A15297   2.581  13.001   7.458 -0.1318 -0.0810  0.3896
  977loPI   C4A15298   2.518  12.994   7.930 -0.0455 -0.1378 -0.0580
  977loPI   C5A15299   2.586  13.276   8.301  0.4110  0.0338 -0.0298
  977loPI   C6A15300   2.268  13.766   8.421  0.0703 -0.1413 -0.0624
  977loPI   C1B15301   3.062  12.797   6.757 -0.4469 -0.2174  0.3072
  977loPI   C2B15302   2.985  12.782   7.160 -0.0883  0.1232  0.0460
  977loPI   C3B15303   3.025  12.832   7.543  0.1659  0.0953 -0.2839
  977loPI   C4B15304   3.039  12.842   7.986  0.0449  0.3625  0.2051
  978loPI    C115305   9.612   3.051   5.578 -0.0227  0.2784 -0.0701
  978loPI    C215306   9.787   3.333   5.356 -0.1771  0.0575 -0.4831
  978loPI    C315307   9.471   3.134   5.213 -0.2104 -0.1686 -0.1061
  978loPI   PO415308   9.543   3.075   5.770  0.1025  0.1956 -0.0601
  978loPI   GL115309   9.666   2.821   6.180  0.3604 -0.1079 -0.4723
  978loPI   GL215310   9.913   2.726   5.934  0.2001 -0.0109 -0.2152
  978loPI   C1A15311   9.699   2.766   6.612 -0.0006 -0.0485  0.2367
  978loPI   C2A15312   9.854   2.799   6.981 -0.1791 -0.0920 -0.0212
  978loPI   C3A15313   9.948   2.767   7.385 -0.3065  0.1164 -0.2247
  978loPI   C4A15314  10.003   2.846   7.851  0.2883  0.3965  0.1260
  978loPI   C5A15315   9.962   2.736   8.185  0.1920  0.1711 -0.0823
  978loPI   C6A15316  10.053   2.624   8.613 -0.0117 -0.0670 -0.0331
  978loPI   C1B15317  10.181   2.700   6.302 -0.0802  0.1458 -0.0283
  978loPI   C2B15318  10.336   2.642   6.692 -0.0666 -0.2498  0.1378
  978loPI   C3B15319  10.461   2.574   7.152 -0.3200 -0.2811  0.0476
  978loPI   C4B15320  10.446   2.675   7.547  0.2269  0.1013 -0.4349
  979loPI    C115321   0.612  12.275   5.795 -0.0506 -0.0187  0.1520
  979loPI    C215322   0.719  12.313   5.411 -0.1437  0.0411  0.1316
  979loPI    C315323   0.351  12.418   5.528 -0.2138 -0.2516  0.1839
  979loPI   PO415324   0.773  12.314   5.915  0.3680 -0.1261  0.3275
  979loPI   GL115325   0.703  12.532   6.254  0.0705 -0.2366  0.1146
  979loPI   GL215326   0.382  12.756   6.153 -0.0723 -0.1275  0.2068
  979loPI   C1A15327   0.751  12.497   6.672 -0.1150 -0.6037 -0.2843
  979loPI   C2A15328   0.789  12.528   7.090  0.0545  0.2793 -0.1392
  979loPI   C3A15329   0.818  12.492   7.584 -0.2983  0.1828  0.1061
  979loPI   C4A15330   0.679  12.479   7.978 -0.0350 -0.0108  0.1416
  979loPI   C5A15331   0.921  12.650   8.359  0.0183 -0.3318 -0.1029
  979loPI   C6A15332   1.296  12.892   8.495  0.0154 -0.3526 -0.1452
  979loPI   C1B15333   0.302  12.871   6.473  0.2099 -0.2775 -0.0655
  979loPI   C2B15334   0.225  12.815   6.877 -0.1697 -0.0428  0.0770
  979loPI   C3B15335   0.311  12.718   7.299 -0.1897  0.0937  0.1103
  979loPI   C4B15336   0.334  12.751   7.650 -0.0152 -0.0366  0.0735
  980loPI    C115337   4.381  16.198   5.539  0.1072  0.1529 -0.0476
  980loPI    C215338   4.138  16.494   5.654  0.1186  0.2132 -0.1769
  980loPI    C315339   4.007  16.216   5.399  0.0284 -0.0354  0.1349
  980loPI   PO415340   4.537  16.192   5.732 -0.1497  0.1943  0.2021
  980loPI   GL115341   4.334  16.279   6.180 -0.1483  0.0218 -0.0831
  980loPI   GL215342   4.606  16.438   6.173 -0.4894  0.0328 -0.0378
  980loPI   C1A15343   4.175  16.114   6.618  0.0966 -0.1732  0.0390
  980loPI   C2A15344   4.195  16.078   7.155  0.1351  0.2437 -0.2458
  980loPI   C3A15345   4.114  16.157   7.592 -0.2068  0.0968  0.0872
  980loPI   C4A15346   4.122  16.138   8.021  0.2330 -0.1292 -0.1229
  980loPI   C5A15347   4.407  16.168   8.351 -0.0740 -0.0248  0.1899
  980loPI   C6A15348   4.711  15.895   8.435 -0.0056 -0.3224 -0.1964
  980loPI   C1B15349   4.608  16.414   6.574 -0.1066 -0.1638 -0.1226
  980loPI   C2B15350   4.582  16.401   7.086 -0.0501 -0.0297  0.1535
  980loPI   C3B15351   4.646  16.385   7.501 -0.0669 -0.1505 -0.0246
  980loPI   C4B15352   4.760  16.392   7.955  0.0682  0.3905 -0.2041
  981loPI    C115353  11.936   5.285   5.657 -0.0527  0.0603  0.0705
  981loPI    C215354  11.937   4.933   5.466  0.0235  0.0707  0.0515
  981loPI    C315355  11.840   5.268   5.269  0.1348  0.0861  0.0218
  981loPI   PO415356  12.183   5.339   5.741  0.1043 -0.1072  0.0342
  981loPI   GL115357  12.353   5.662   5.999 -0.2243  0.0941 -0.1961
  981loPI   GL215358  12.546   5.544   6.121  0.2281  0.1506 -0.1184
  981loPI   C1A15359  12.083   5.915   6.377 -0.3595  0.0954  0.2537
  981loPI   C2A15360  12.035   5.893   6.860 -0.2593 -0.0112 -0.0982
  981loPI   C3A15361  12.091   5.888   7.314 -0.0468 -0.1197  0.0582
  981loPI   C4A15362  12.033   5.886   7.751  0.0365  0.1479 -0.1812
  981loPI   C5A15363  12.058   5.712   8.175  0.0870  0.0327 -0.1718
  981loPI   C6A15364  12.521   5.600   8.411  0.0609  0.0626 -0.0712
  981loPI   C1B15365  12.524   5.702   6.542  0.4363  0.0241  0.3571
  981loPI   C2B15366  12.482   5.706   7.024  0.0893 -0.1172  0.0257
  981loPI   C3B15367  12.595   5.547   7.430  0.1934 -0.0704  0.0583
  981loPI   C4B15368  12.632   5.655   7.915 -0.0488  0.2924  0.0315
  982loPI    C115369  11.890  16.342   5.346 -0.0640  0.1833  0.1189
  982loPI    C215370  11.785  16.630   5.089  0.0176  0.0948 -0.0150
  982loPI    C315371  12.150  16.467   5.070 -0.1098 -0.1865 -0.0990
  982loPI   PO415372  11.710  16.465   5.573  0.1060 -0.0628  0.3662
  982loPI   GL115373  11.404  16.316   5.903 -0.1688  0.2940 -0.0978
  982loPI   GL215374  11.282  16.493   6.216 -0.1053 -0.0459 -0.2184
  982loPI   C1A15375  11.689  16.252   6.419  0.0143  0.1658  0.0252
  982loPI   C2A15376  11.796  16.175   6.822 -0.3926 -0.0148  0.0981
  982loPI   C3A15377  11.795  16.199   7.193 -0.5687  0.0774  0.2635
  982loPI   C4A15378  11.912  16.188   7.471 -0.1709 -0.3157  0.0208
  982loPI   C5A15379  11.919  16.199   7.848  0.1185  0.2345 -0.1522
  982loPI   C6A15380  12.074  16.526   8.150 -0.0844 -0.0820  0.3434
  982loPI   C1B15381  11.350  16.442   6.698  0.0061  0.0212 -0.0165
  982loPI   C2B15382  11.388  16.406   7.135  0.1020  0.0255  0.2185
  982loPI   C3B15383  11.428  16.394   7.621  0.0362  0.0774 -0.2135
  982loPI   C4B15384  11.537  16.341   8.070  0.2118  0.4399  0.0104
  983loPI    C115385   7.215   6.319   5.721 -0.0104 -0.1574  0.1687
  983loPI    C215386   7.001   5.981   5.714  0.1813 -0.2783  0.0191
  983loPI    C315387   7.053   6.191   5.378 -0.0435 -0.0291  0.1358
  983loPI   PO415388   7.241   6.342   5.981  0.0985  0.0638  0.0513
  983loPI   GL115389   7.096   6.365   6.447  0.1133  0.3027  0.1620
  983loPI   GL215390   7.242   6.176   6.525 -0.0055  0.1326 -0.3102
  983loPI   C1A15391   6.802   6.474   6.811  0.2576  0.2537 -0.2032
  983loPI   C2A15392   6.766   6.417   7.192 -0.2794  0.1899  0.2455
  983loPI   C3A15393   6.646   6.544   7.540  0.0034 -0.1185 -0.0281
  983loPI   C4A15394   6.627   6.444   7.905  0.0252 -0.2236  0.0777
  983loPI   C5A15395   6.714   6.173   8.232  0.0974  0.0614  0.2040
  983loPI   C6A15396   7.098   5.950   8.381  0.1655 -0.0661  0.1298
  983loPI   C1B15397   7.187   6.173   6.945 -0.2041 -0.0286  0.0658
  983loPI   C2B15398   7.051   6.103   7.418  0.1070  0.0742 -0.2995
  983loPI   C3B15399   6.860   6.034   7.735  0.2071  0.1643  0.2899
  983loPI   C4B15400   6.466   5.990   7.841  0.2063 -0.1445 -0.2912
  984loPI    C115401  11.288   9.002   5.277 -0.0995 -0.2536 -0.1663
  984loPI    C215402  11.266   9.350   5.081 -0.0522 -0.1354  0.0352
  984loPI    C315403  11.262   9.005   4.878  0.0525 -0.0144 -0.1761
  984loPI   PO415404  11.091   8.974   5.456 -0.1300 -0.0923  0.0737
  984loPI   GL115405  10.986   8.901   5.849 -0.0594 -0.1151 -0.1011
  984loPI   GL215406  10.792   9.177   5.839 -0.0159 -0.1719 -0.0557
  984loPI   C1A15407  11.038   8.915   6.268 -0.2823 -0.1968  0.0852
  984loPI   C2A15408  11.014   8.927   6.773  0.1919  0.0228  0.1156
  984loPI   C3A15409  11.057   8.876   7.252  0.1119  0.2334 -0.2654
  984loPI   C4A15410  11.070   8.959   7.605 -0.1818 -0.2390  0.1852
  984loPI   C5A15411  10.841   9.035   7.975  0.0147  0.0166 -0.2269
  984loPI   C6A15412  10.826   9.404   8.280 -0.1102  0.1364 -0.2815
  984loPI   C1B15413  10.568   9.128   6.182  0.1427 -0.2451 -0.0239
  984loPI   C2B15414  10.574   9.182   6.617 -0.0570  0.1603  0.0572
  984loPI   C3B15415  10.580   9.063   7.051  0.1380 -0.1150  0.1306
  984loPI   C4B15416  10.657   9.162   7.464 -0.1500 -0.0015 -0.2987
  985loPI    C115417   2.556   3.979   5.781  0.1602 -0.0587 -0.0829
  985loPI    C215418   2.208   4.132   5.657  0.2417  0.1581 -0.0472
  985loPI    C315419   2.547   4.225   5.466  0.3224  0.2135  0.1213
  985loPI   PO415420   2.451   4.003   6.135 -0.3848 -0.0403  0.5075
  985loPI   GL115421   2.462   4.126   6.459  0.1824  0.0841  0.0836
  985loPI   GL215422   2.518   3.805   6.610  0.3332  0.1153 -0.4306
  985loPI   C1A15423   2.287   4.212   6.938 -0.0591 -0.1344 -0.0832
  985loPI   C2A15424   2.293   4.054   7.350 -0.2595 -0.1220  0.0260
  985loPI   C3A15425   2.404   3.970   7.740  0.3394 -0.4732 -0.2669
  985loPI   C4A15426   2.658   4.075   8.195  0.1553 -0.0771 -0.2055
  985loPI   C5A15427   2.656   3.656   8.470  0.1133  0.0426  0.1518
  985loPI   C6A15428   2.853   3.269   8.698  0.0068 -0.2244 -0.1697
  985loPI   C1B15429   2.147   3.600   6.865  0.1381 -0.0330 -0.0613
  985loPI   C2B15430   1.862   3.614   7.210  0.0783  0.3781 -0.0528
  985loPI   C3B15431   1.917   3.674   7.543  0.2098 -0.0637  0.1666
  985loPI   C4B15432   1.816   3.598   7.951 -0.0064  0.2731  0.0394
  986loPI    C115433   2.290  12.205   5.400  0.1260  0.0498 -0.1878
  986loPI    C215434   2.584  12.454   5.509  0.0696  0.0332  0.0069
  986loPI    C315435   2.333  12.557   5.215  0.0417  0.2102  0.0915
  986loPI   PO415436   2.232  12.056   5.613 -0.0357  0.0189 -0.1350
  986loPI   GL115437   2.050  12.222   5.965  0.4915 -0.1425 -0.2427
  986loPI   GL215438   2.395  12.439   5.972  0.0739  0.3095  0.1578
  986loPI   C1A15439   2.051  12.228   6.449  0.2427  0.1500  0.0700
  986loPI   C2A15440   2.182  12.185   6.878 -0.2431 -0.1990 -0.2905
  986loPI   C3A15441   2.150  12.288   7.389 -0.1117  0.3857  0.0838
  986loPI   C4A15442   2.136  12.307   7.722  0.3099  0.0062 -0.0245
  986loPI   C5A15443   2.226  12.402   8.165  0.0903  0.1998  0.0852
  986loPI   C6A15444   2.338  12.799   8.382 -0.0039  0.0361 -0.1884
  986loPI   C1B15445   2.536  12.505   6.358 -0.0716  0.0535 -0.2109
  986loPI   C2B15446   2.675  12.538   6.796  0.0701 -0.0363  0.0775
  986loPI   C3B15447   2.587  12.498   7.274  0.3268 -0.2098 -0.1519
  986loPI   C4B15448   2.549  12.514   7.724  0.3545  0.1142  0.0619
  987loPI    C115449   2.753  14.002   5.614  0.0425  0.1266  0.1217
  987loPI    C215450   2.664  13.680   5.394 -0.1533  0.2320  0.0437
  987loPI    C315451   2.919  13.955   5.253  0.0548  0.0871  0.1326
  987loPI   PO415452   2.823  13.908   5.797  0.1440 -0.2230 -0.2305
  987loPI   GL115453   2.667  13.670   6.156 -0.1175  0.0795 -0.3159
  987loPI   GL215454   2.599  13.992   6.171  0.1696  0.4495  0.2026
  987loPI   C1A15455   2.569  13.590   6.592  0.4272 -0.1658  0.0614
  987loPI   C2A15456   2.547  13.591   7.059  0.0240 -0.3601  0.2893
  987loPI   C3A15457   2.530  13.550   7.477 -0.0075  0.2030 -0.1007
  987loPI   C4A15458   2.507  13.578   7.897 -0.3212  0.2877 -0.1041
  987loPI   C5A15459   2.138  13.532   8.018  0.0613 -0.1465 -0.2637
  987loPI   C6A15460   2.050  13.221   8.251  0.0156  0.1604  0.1586
  987loPI   C1B15461   2.529  14.101   6.668 -0.0128  0.2861 -0.3867
  987loPI   C2B15462   2.502  14.100   7.111  0.3185 -0.1224 -0.0892
  987loPI   C3B15463   2.517  14.060   7.534  0.0258 -0.0332 -0.0259
  987loPI   C4B15464   2.550  14.034   7.982 -0.1399 -0.1747  0.1295
  988loPI    C115465   3.704  14.949   5.324 -0.1811  0.0971 -0.0249
  988loPI    C215466   3.500  15.066   5.000 -0.3716 -0.0578  0.0370
  988loPI    C315467   3.731  14.740   4.984  0.0533  0.2420 -0.0970
  988loPI   PO415468   3.619  14.978   5.549 -0.0100 -0.3830  0.2439
  988loPI   GL115469   3.640  14.972   6.053  0.3619 -0.1151  0.1728
  988loPI   GL215470   3.892  14.892   6.069  0.3147 -0.2483 -0.0696
  988loPI   C1A15471   3.818  15.255   6.429 -0.2779  0.2244 -0.0124
  988loPI   C2A15472   3.721  15.307   6.811  0.1172  0.1519 -0.1879
  988loPI   C3A15473   3.741  15.310   7.223  0.0299  0.0218 -0.2509
  988loPI   C4A15474   3.750  15.403   7.645  0.0502 -0.2826 -0.4146
  988loPI   C5A15475   3.631  15.673   7.992  0.1105  0.0525  0.0201
  988loPI   C6A15476   3.636  15.809   8.399 -0.0570  0.0491 -0.4291
  988loPI   C1B15477   3.737  14.816   6.508  0.1414  0.1952  0.1015
  988loPI   C2B15478   3.833  14.811   6.914 -0.0743  0.3284  0.3689
  988loPI   C3B15479   3.821  14.842   7.353  0.0263  0.1261 -0.2005
  988loPI   C4B15480   3.693  14.939   7.782  0.0255  0.0468  0.0246
  989loPI    C115481  17.521   0.609   5.415  0.1848 -0.2127 -0.1000
  989loPI    C215482  17.220   0.378   5.289 -0.1458  0.3330 -0.3445
  989loPI    C315483  17.521   0.467   5.041 -0.0585  0.2316 -0.2757
  989loPI   PO415484  17.472   0.726   5.575  0.0164 -0.2104 -0.2644
  989loPI   GL115485  17.645   0.760   6.037 -0.0027 -0.0066 -0.2413
  989loPI   GL215486  17.973   1.002   5.986 -0.0078 -0.0633 -0.3778
  989loPI   C1A15487  17.595   0.806   6.475  0.1531  0.1913  0.0204
  989loPI   C2A15488  17.684   0.780   6.869  0.0256  0.1256  0.1057
  989loPI   C3A15489  17.647   0.859   7.349 -0.0758  0.0753  0.0103
  989loPI   C4A15490  17.554   0.838   7.751 -0.0707 -0.2332 -0.2562
  989loPI   C5A15491  17.776   0.945   8.040  0.2388  0.0906 -0.2438
  989loPI   C6A15492  17.883   0.882   8.499 -0.0210 -0.0983 -0.2119
  989loPI   C1B15493  18.114   1.097   6.380 -0.1172  0.1195 -0.0934
  989loPI   C2B15494  18.075   1.080   6.784  0.2081  0.0539 -0.3016
  989loPI   C3B15495  18.074   1.033   7.174  0.1260  0.0494 -0.1420
  989loPI   C4B15496  17.934   1.145   7.576 -0.0507 -0.0558  0.1436
  990loPI    C115497  12.460   7.984   5.409  0.1086 -0.0327 -0.0422
  990loPI    C215498  12.618   8.266   5.173 -0.2406  0.0597 -0.1706
  990loPI    C315499  12.226   8.187   5.157 -0.1789 -0.3030  0.0013
  990loPI   PO415500  12.551   8.031   5.639 -0.0481 -0.1643 -0.2565
  990loPI   GL115501  12.431   7.941   6.026 -0.2411 -0.4691 -0.0937
  990loPI   GL215502  12.229   8.158   6.162 -0.3103 -0.2322  0.3616
  990loPI   C1A15503  12.289   7.694   6.392  0.0330 -0.1630 -0.1626
  990loPI   C2A15504  12.434   7.606   6.877  0.1611 -0.1096  0.0668
  990loPI   C3A15505  12.537   7.668   7.267  0.2913 -0.1180  0.2212
  990loPI   C4A15506  12.657   7.559   7.700 -0.1965 -0.2022  0.2745
  990loPI   C5A15507  12.516   7.597   8.032 -0.0229 -0.3205  0.1735
  990loPI   C6A15508  12.085   7.412   8.077  0.0408  0.2722 -0.1256
  990loPI   C1B15509  12.351   8.251   6.515 -0.0250 -0.0446  0.1641
  990loPI   C2B15510  12.386   8.292   7.012 -0.1754  0.0964 -0.1135
  990loPI   C3B15511  12.539   8.181   7.408  0.1280  0.0256  0.2539
  990loPI   C4B15512  12.551   8.062   7.779 -0.2002  0.1812 -0.1892
  991loPI    C115513   4.715  10.082   5.579  0.0480 -0.0505  0.1218
  991loPI    C215514   4.830  10.437   5.436 -0.1451 -0.0014  0.0855
  991loPI    C315515   4.613  10.191   5.208  0.1117 -0.2063  0.0576
  991loPI   PO415516   4.746  10.126   5.835 -0.2572 -0.1029  0.0982
  991loPI   GL115517   4.746  10.333   6.235  0.1161  0.2834 -0.1867
  991loPI   GL215518   4.377  10.348   6.080 -0.0429  0.0239  0.1567
  991loPI   C1A15519   4.754  10.146   6.634  0.0038 -0.1279  0.0445
  991loPI   C2A15520   4.841  10.137   7.051 -0.1637 -0.2932 -0.3051
  991loPI   C3A15521   4.863  10.223   7.409  0.2494  0.1073 -0.2471
  991loPI   C4A15522   4.701  10.230   7.910 -0.1353 -0.0355  0.1582
  991loPI   C5A15523   4.383  10.394   8.265 -0.0393  0.0229  0.0297
  991loPI   C6A15524   4.019  10.608   8.353 -0.1823  0.1866 -0.1170
  991loPI   C1B15525   4.242  10.321   6.427  0.0772 -0.1612 -0.2254
  991loPI   C2B15526   4.386  10.377   6.860  0.0882  0.0325  0.0294
  991loPI   C3B15527   4.422  10.516   7.252  0.0054  0.3337 -0.2139
  991loPI   C4B15528   4.395  10.507   7.605 -0.1874  0.1365 -0.3474
  992loPI    C115529   5.737  17.468   6.097  0.0201 -0.3327  0.1074
  992loPI    C215530   6.031  17.457   5.826  0.0256  0.0507  0.0922
  992loPI    C315531   5.650  17.463   5.706  0.0277  0.2000  0.0906
  992loPI   PO415532   5.826  17.291   6.248  0.3753 -0.2231  0.1554
  992loPI   GL115533   5.948  17.290   6.648 -0.0902  0.0543  0.1319
  992loPI   GL215534   6.169  17.585   6.738 -0.1427  0.2040 -0.0633
  992loPI   C1A15535   5.811  17.211   7.027 -0.0085  0.1765 -0.1871
  992loPI   C2A15536   5.882  17.277   7.399 -0.1279  0.0585  0.1594
  992loPI   C3A15537   5.872  17.199   7.880  0.0619  0.0724 -0.1237
  992loPI   C4A15538   5.986  17.084   8.267  0.0464 -0.1355  0.3041
  992loPI   C5A15539   6.143  17.304   8.524  0.2272  0.0029 -0.3582
  992loPI   C6A15540   6.404  17.653   8.527 -0.3838 -0.0640  0.4977
  992loPI   C1B15541   6.307  17.539   7.160  0.1601 -0.3466  0.0691
  992loPI   C2B15542   6.369  17.519   7.626  0.2406 -0.1227 -0.0747
  992loPI   C3B15543   6.386  17.456   8.038 -0.1566 -0.3758 -0.1257
  992loPI   C4B15544   6.859  17.555   8.288 -0.1489  0.1714  0.0874
  993loPI    C115545   9.939  13.055   5.373 -0.1256  0.1371 -0.0170
  993loPI    C215546   9.692  12.769   5.507  0.2762 -0.2304 -0.0385
  993loPI    C315547   9.739  12.825   5.114 -0.0130  0.0602 -0.0362
  993loPI   PO415548  10.140  13.085   5.563 -0.0782  0.0203 -0.1644
  993loPI   GL115549  10.303  13.097   5.933 -0.2054  0.2012 -0.1116
  993loPI   GL215550   9.998  13.137   6.046 -0.2130  0.0555  0.1648
  993loPI   C1A15551  10.514  13.266   6.273  0.1200  0.2715  0.3399
  993loPI   C2A15552  10.545  13.209   6.664  0.1867 -0.2408  0.2954
  993loPI   C3A15553  10.578  13.212   7.084  0.1406 -0.0316 -0.1752
  993loPI   C4A15554  10.579  13.262   7.629 -0.0573 -0.0695 -0.0582
  993loPI   C5A15555  10.680  13.215   8.004  0.0402 -0.0358 -0.0509
  993loPI   C6A15556  10.662  13.205   8.470 -0.0193 -0.1896  0.1987
  993loPI   C1B15557  10.105  13.051   6.418 -0.2756 -0.0522  0.1560
  993loPI   C2B15558  10.151  12.981   6.822  0.2930  0.0959  0.1578
  993loPI   C3B15559  10.150  12.921   7.154 -0.0315 -0.0217 -0.2427
  993loPI   C4B15560  10.189  12.946   7.496 -0.2517  0.0088  0.0095
  994loPI    C115561  13.442  16.964   5.381 -0.1977  0.0188 -0.1068
  994loPI    C215562  13.047  16.904   5.396 -0.2156  0.1072 -0.2116
  994loPI    C315563  13.268  16.708   5.127 -0.1506 -0.1336  0.0127
  994loPI   PO415564  13.447  17.134   5.609  0.5390  0.2749  0.0025
  994loPI   GL115565  13.672  17.285   5.956  0.2247  0.0854  0.1294
  994loPI   GL215566  13.704  16.908   6.032  0.1945 -0.0410 -0.1178
  994loPI   C1A15567  13.642  17.283   6.382 -0.1487 -0.2396 -0.2677
  994loPI   C2A15568  13.554  17.341   6.759 -0.4066  0.2371  0.0195
  994loPI   C3A15569  13.603  17.243   7.213 -0.0568  0.2498  0.0633
  994loPI   C4A15570  13.688  17.238   7.680  0.2592  0.0298 -0.1026
  994loPI   C5A15571  13.652  17.138   8.077  0.0059 -0.1502  0.1777
  994loPI   C6A15572  13.525  17.038   8.382  0.1725 -0.1138  0.2066
  994loPI   C1B15573  13.609  16.768   6.499  0.2246  0.0376 -0.1250
  994loPI   C2B15574  13.641  16.769   6.860 -0.2053  0.1847  0.2270
  994loPI   C3B15575  13.625  16.688   7.309 -0.0750  0.1605  0.0347
  994loPI   C4B15576  13.749  16.627   7.761  0.0489 -0.0504 -0.0847
  995loPI    C115577   0.286   1.967   5.569 -0.2756 -0.0060 -0.1887
  995loPI    C215578   0.367   1.641   5.353 -0.1376 -0.1619  0.0929
  995loPI    C315579   0.540   1.990   5.260  0.0237 -0.2567  0.0325
  995loPI   PO415580   0.346   1.954   5.750 -0.3106  0.1137  0.2928
  995loPI   GL115581   0.290   2.146   6.053  0.4550 -0.2339 -0.0059
  995loPI   GL215582   0.451   2.318   6.137  0.0621  0.2761  0.1671
  995loPI   C1A15583   0.140   2.119   6.477 -0.1197 -0.1226 -0.0309
  995loPI   C2A15584   0.109   2.179   6.834 -0.0270  0.2932  0.2778
  995loPI   C3A15585   0.095   2.053   7.277  0.0076 -0.2468  0.0360
  995loPI   C4A15586   0.058   2.042   7.667  0.3794  0.0460 -0.0086
  995loPI   C5A15587   0.203   2.321   8.133 -0.1698 -0.0473  0.1572
  995loPI   C6A15588   0.632   2.341   8.384  0.1176  0.0509  0.1357
  995loPI   C1B15589   0.531   2.404   6.538 -0.2343  0.0439  0.0410
  995loPI   C2B15590   0.448   2.458   7.104  0.2986 -0.2577  0.1195
  995loPI   C3B15591   0.537   2.303   7.530 -0.3744  0.0580  0.1078
  995loPI   C4B15592   0.560   2.105   7.900 -0.1348 -0.0496 -0.0065
  996loPI    C115593   2.220  11.484   5.489  0.1186  0.3416 -0.0016
  996loPI    C215594   2.401  11.355   5.156 -0.0204  0.1025  0.0136
  996loPI    C315595   2.290  11.738   5.188  0.2979  0.2048 -0.0768
  996loPI   PO415596   2.305  11.270   5.644 -0.1518 -0.0278  0.0721
  996loPI   GL115597   2.277  11.164   6.048  0.1064 -0.0692 -0.1025
  996loPI   GL215598   2.268  11.623   6.013 -0.0592 -0.0264  0.1383
  996loPI   C1A15599   2.041  11.122   6.537 -0.2920 -0.1259 -0.3630
  996loPI   C2A15600   2.065  11.260   6.980 -0.1359 -0.1146  0.0571
  996loPI   C3A15601   2.151  11.287   7.380  0.2166  0.0835 -0.0754
  996loPI   C4A15602   2.146  11.197   7.818 -0.0308  0.1324 -0.2797
  996loPI   C5A15603   2.441  11.013   8.254  0.0485  0.2069 -0.0023
  996loPI   C6A15604   2.329  10.705   8.581 -0.3491  0.0332  0.0244
  996loPI   C1B15605   2.078  11.737   6.400 -0.2248 -0.0856 -0.0689
  996loPI   C2B15606   2.155  11.703   6.730  0.0452  0.4203 -0.2839
  996loPI   C3B15607   2.220  11.777   7.224  0.0640 -0.0649  0.1172
  996loPI   C4B15608   2.113  11.785   7.596  0.0227  0.0351  0.3110
  997loPI    C115609  16.741  16.479   5.385 -0.0990 -0.0761  0.0492
  997loPI    C215610  16.442  16.387   5.137 -0.1122 -0.0721  0.0633
  997loPI    C315611  16.594  16.757   5.137 -0.0704 -0.0893  0.0174
  997loPI   PO415612  16.630  16.290   5.674 -0.0481  0.3636 -0.1393
  997loPI   GL115613  16.806  16.226   6.062 -0.1126  0.0374 -0.0199
  997loPI   GL215614  16.492  16.283   6.180  0.0839 -0.1536  0.0390
  997loPI   C1A15615  16.908  16.095   6.513  0.3119 -0.2669 -0.0381
  997loPI   C2A15616  16.805  16.064   6.859 -0.1174 -0.1694  0.0773
  997loPI   C3A15617  16.772  16.068   7.374  0.2581 -0.2382  0.1551
  997loPI   C4A15618  16.646  15.964   7.782 -0.4327 -0.0737  0.1752
  997loPI   C5A15619  16.809  15.905   8.211 -0.1490 -0.0926 -0.0405
  997loPI   C6A15620  16.748  15.948   8.587  0.0310  0.1966 -0.2893
  997loPI   C1B15621  16.368  16.309   6.618 -0.2259 -0.1189 -0.2011
  997loPI   C2B15622  16.367  16.254   7.087 -0.1095  0.1538 -0.1278
  997loPI   C3B15623  16.301  16.199   7.487 -0.4307  0.1043 -0.1071
  997loPI   C4B15624  16.232  16.142   7.972  0.2606  0.0180  0.1819
  998loPI    C115625  12.584   4.747   5.223 -0.2555  0.1203 -0.0883
  998loPI    C215626  12.852   4.461   5.302  0.2375  0.4924 -0.3579
  998loPI    C315627  12.552   4.389   5.047 -0.0678  0.0001  0.1186
  998loPI   PO415628  12.551   4.883   5.482  0.0728  0.1806 -0.1420
  998loPI   GL115629  12.711   4.755   5.866  0.1652 -0.0510  0.1346
  998loPI   GL215630  12.951   4.449   5.792 -0.0135  0.0243  0.1465
  998loPI   C1A15631  12.862   4.697   6.300  0.1176  0.1924  0.0228
  998loPI   C2A15632  13.020   4.804   6.711  0.1507  0.0066 -0.0694
  998loPI   C3A15633  13.017   4.939   7.143  0.0867 -0.0460 -0.2297
  998loPI   C4A15634  13.017   4.807   7.552 -0.0570 -0.0045  0.0598
  998loPI   C5A15635  12.937   4.824   7.884 -0.1259 -0.3146 -0.1536
  998loPI   C6A15636  13.006   4.824   8.286 -0.1486 -0.1510  0.0571
  998loPI   C1B15637  12.947   4.242   6.166 -0.0738  0.2320  0.1998
  998loPI   C2B15638  12.954   4.258   6.675  0.4570  0.1459 -0.3685
  998loPI   C3B15639  12.969   4.352   7.152 -0.1471 -0.0134  0.0050
  998loPI   C4B15640  13.093   4.300   7.520  0.0078  0.0065  0.1453
  999loPI    C115641   7.860  13.454   5.575 -0.1239 -0.0996 -0.0245
  999loPI    C215642   7.639  13.673   5.324  0.1016  0.0438 -0.1010
  999loPI    C315643   8.006  13.555   5.216  0.0982 -0.1172  0.0592
  999loPI   PO415644   7.931  13.571   5.725 -0.0386  0.0505  0.1176
  999loPI   GL115645   7.853  13.622   6.148  0.0660  0.1519 -0.1855
  999loPI   GL215646   7.964  13.738   6.366  0.0347  0.1260 -0.0128
  999loPI   C1A15647   7.469  13.489   6.409 -0.1014 -0.0778 -0.1320
  999loPI   C2A15648   7.426  13.435   6.841 -0.1289 -0.1380 -0.1997
  999loPI   C3A15649   7.564  13.428   7.239  0.1101 -0.3117  0.0574
  999loPI   C4A15650   7.453  13.412   7.670  0.0690  0.1973  0.1538
  999loPI   C5A15651   7.512  13.311   8.122  0.1607  0.0466 -0.2168
  999loPI   C6A15652   7.582  13.561   8.447 -0.0792  0.1690 -0.0876
  999loPI   C1B15653   7.872  13.778   6.804 -0.2246  0.0151  0.1660
  999loPI   C2B15654   7.959  13.695   7.215  0.2488  0.2204 -0.1282
  999loPI   C3B15655   7.967  13.617   7.730 -0.0706  0.0137 -0.1142
  999loPI   C4B15656   7.977  13.585   8.174 -0.0962 -0.0748 -0.1970
 1000loPI    C115657  17.419   9.915   5.364 -0.1104  0.1502 -0.1902
 1000loPI    C215658  17.594   9.587   5.217 -0.1124  0.0379  0.0534
 1000loPI    C315659  17.349   9.803   4.986  0.0254 -0.0331 -0.1621
 1000loPI   PO415660  17.589   9.979   5.503 -0.3621 -0.2088 -0.2159
 1000loPI   GL115661  17.432  10.070   5.908 -0.1441 -0.0102 -0.0276
 1000loPI   GL215662  17.759   9.941   6.008  0.3745  0.0277  0.2472
 1000loPI   C1A15663  17.356  10.090   6.354  0.0068 -0.0284  0.1200
 1000loPI   C2A15664  17.337  10.124   6.770 -0.0350 -0.1446 -0.0148
 1000loPI   C3A15665  17.356  10.173   7.179  0.0081 -0.0374 -0.1260
 1000loPI   C4A15666  17.470  10.117   7.621 -0.3220 -0.0436 -0.0684
 1000loPI   C5A15667  17.227  10.046   8.005  0.0404 -0.0394 -0.1052
 1000loPI   C6A15668  17.203  10.286   8.425  0.1135  0.0555 -0.3167
 1000loPI   C1B15669  17.819   9.916   6.436  0.2686 -0.0101 -0.0369
 1000loPI   C2B15670  17.818   9.895   6.869  0.0440  0.0490  0.4251
 1000loPI   C3B15671  17.837   9.745   7.333  0.2266  0.1329 -0.0561
 1000loPI   C4B15672  17.893   9.761   7.760  0.0887  0.4109  0.0034
 1001loPI    C115673   1.786   3.967   5.820 -0.2429 -0.1317 -0.1882
 1001loPI    C215674   1.835   3.597   5.962 -0.1939 -0.1140 -0.1588
 1001loPI    C315675   1.917   3.676   5.579  0.1072 -0.0633 -0.0866
 1001loPI   PO415676   1.876   4.107   6.042  0.0899  0.0216 -0.0318
 1001loPI   GL115677   1.980   3.941   6.477  0.0698  0.4007 -0.0161
 1001loPI   GL215678   1.830   3.704   6.457  0.1705  0.3051 -0.0119
 1001loPI   C1A15679   1.837   4.022   6.851  0.0680  0.0263  0.2549
 1001loPI   C2A15680   1.800   4.113   7.291 -0.1093 -0.0280 -0.0551
 1001loPI   C3A15681   1.984   4.281   7.697 -0.0629  0.0471 -0.0654
 1001loPI   C4A15682   2.069   4.311   8.135 -0.1354 -0.0131 -0.0280
 1001loPI   C5A15683   2.313   4.327   8.510  0.2596 -0.2830  0.2029
 1001loPI   C6A15684   2.313   4.028   8.789 -0.1538  0.2339 -0.1572
 1001loPI   C1B15685   1.481   3.456   6.687 -0.0624  0.4451  0.1759
 1001loPI   C2B15686   1.346   3.381   6.987 -0.1749 -0.1235  0.1221
 1001loPI   C3B15687   1.432   3.498   7.351  0.2145 -0.0318 -0.0314
 1001loPI   C4B15688   1.453   3.285   7.733  0.2058 -0.1968  0.0295
 1002loPI    C115689  12.403   1.060   5.374  0.2665  0.2879  0.0780
 1002loPI    C215690  12.689   0.810   5.249  0.1482  0.1212  0.1380
 1002loPI    C315691  12.526   1.071   4.993 -0.0074 -0.1352 -0.0291
 1002loPI   PO415692  12.204   0.905   5.506  0.0840 -0.0917 -0.3842
 1002loPI   GL115693  12.043   0.873   5.857  0.2430  0.0094 -0.0127
 1002loPI   GL215694  12.114   1.073   6.114  0.1851 -0.3264  0.4013
 1002loPI   C1A15695  12.182   0.573   6.267 -0.1997 -0.2127 -0.1172
 1002loPI   C2A15696  12.170   0.590   6.716  0.0262  0.0214  0.3755
 1002loPI   C3A15697  12.219   0.527   7.171 -0.3007  0.3511 -0.0112
 1002loPI   C4A15698  12.275   0.460   7.571 -0.0526 -0.0125 -0.2594
 1002loPI   C5A15699  12.333   0.464   8.047  0.3264 -0.0303  0.0048
 1002loPI   C6A15700  12.402   0.560   8.543 -0.1454  0.0934 -0.0628
 1002loPI   C1B15701  12.166   1.149   6.523 -0.3617  0.1111  0.1165
 1002loPI   C2B15702  12.236   1.132   6.896  0.0857  0.0685  0.1725
 1002loPI   C3B15703  12.230   1.079   7.289 -0.0918 -0.1015 -0.3591
 1002loPI   C4B15704  12.271   1.005   7.745  0.0472 -0.0753 -0.0202
 1003loPI    C115705   2.120   0.050   5.534  0.0164 -0.1679 -0.1691
 1003loPI    C215706   2.329   0.235   5.247  0.0878  0.0758  0.0367
 1003loPI    C315707   2.398  -0.151   5.326  0.0704  0.0074 -0.2685
 1003loPI   PO415708   2.200   0.139   5.709  0.0465  0.0960 -0.2661
 1003loPI   GL115709   2.003   0.010   6.060  0.0089  0.0771 -0.2135
 1003loPI   GL215710   1.944   0.377   6.251  0.1951 -0.3437 -0.2601
 1003loPI   C1A15711   2.227   0.041   6.473 -0.0548 -0.4086  0.3647
 1003loPI   C2A15712   2.137   0.094   6.838  0.1129  0.3424  0.0444
 1003loPI   C3A15713   2.025   0.082   7.253  0.0104  0.1515 -0.0715
 1003loPI   C4A15714   2.069   0.063   7.695  0.0345  0.0433 -0.3255
 1003loPI   C5A15715   1.944  -0.041   8.042  0.0485 -0.2080 -0.1641
 1003loPI   C6A15716   1.926  -0.262   8.464 -0.4410  0.1316  0.1343
 1003loPI   C1B15717   1.678   0.387   6.609  0.0903  0.0668 -0.3644
 1003loPI   C2B15718   1.697   0.435   6.992  0.1679  0.1466  0.3380
 1003loPI   C3B15719   1.572   0.281   7.378  0.1622  0.1039  0.0256
 1003loPI   C4B15720   1.600   0.316   7.884  0.0323  0.0771  0.0340
 1004loPI    C115721   2.654  17.373   5.484 -0.0535 -0.1613  0.1009
 1004loPI    C215722   2.977  17.313   5.254 -0.0373 -0.1608  0.1235
 1004loPI    C315723   2.611  17.240   5.109 -0.0449  0.0987  0.0050
 1004loPI   PO415724   2.650  17.285   5.689  0.0383  0.0493  0.0346
 1004loPI   GL115725   2.573  17.322   6.111  0.0264  0.0650  0.0770
 1004loPI   GL215726   2.360  17.402   6.206  0.1002  0.0140 -0.0041
 1004loPI   C1A15727   2.738  17.186   6.507 -0.1383  0.1463  0.0852
 1004loPI   C2A15728   2.704  17.326   6.911  0.1171 -0.1970 -0.0048
 1004loPI   C3A15729   2.579  17.272   7.269 -0.1437  0.1085  0.0807
 1004loPI   C4A15730   2.576  17.274   7.729 -0.0825  0.0766  0.0130
 1004loPI   C5A15731   2.470  17.120   8.024 -0.1069  0.2949 -0.1774
 1004loPI   C6A15732   2.285  17.009   8.505 -0.2690 -0.1642  0.0346
 1004loPI   C1B15733   2.247  17.434   6.618 -0.0553 -0.1600 -0.3848
 1004loPI   C2B15734   2.196  17.422   6.980 -0.1653  0.1035  0.0888
 1004loPI   C3B15735   2.122  17.484   7.422 -0.1662 -0.2039 -0.2018
 1004loPI   C4B15736   2.102  17.438   7.887  0.2212 -0.2298  0.2440
 1005loPI    C115737   8.191   2.780   5.967 -0.0024  0.1059  0.3525
 1005loPI    C215738   7.901   3.001   5.802  0.0609 -0.0480  0.0270
 1005loPI    C315739   8.137   2.776   5.571  0.4352  0.0661  0.2886
 1005loPI   PO415740   8.310   2.930   6.169  0.1939  0.2267  0.3923
 1005loPI   GL115741   8.500   2.789   6.580  0.1438 -0.0851  0.3622
 1005loPI   GL215742   8.242   2.893   6.690 -0.1341 -0.0356  0.3544
 1005loPI   C1A15743   8.820   2.958   6.839 -0.0933  0.1241 -0.0404
 1005loPI   C2A15744   8.935   2.926   7.280 -0.2885 -0.2163  0.0679
 1005loPI   C3A15745   9.068   2.849   7.626  0.0708  0.1693  0.1625
 1005loPI   C4A15746   8.887   2.694   7.961  0.0055 -0.2897  0.1760
 1005loPI   C5A15747   8.755   2.505   8.352 -0.0335 -0.2145  0.1664
 1005loPI   C6A15748   8.577   2.241   8.584 -0.0971  0.0549 -0.1607
 1005loPI   C1B15749   8.019   2.952   7.055 -0.2444 -0.2101  0.0974
 1005loPI   C2B15750   7.871   2.990   7.442 -0.2251  0.2157 -0.1352
 1005loPI   C3B15751   7.603   3.080   7.653 -0.1083  0.2910 -0.1200
 1005loPI   C4B15752   7.472   2.753   8.037 -0.1301 -0.0306  0.0410
 1006loPI    C115753   5.868  12.080   5.644  0.0989  0.0633 -0.0658
 1006loPI    C215754   5.999  12.370   5.886  0.2648  0.0569 -0.1462
 1006loPI    C315755   5.939  12.445   5.497  0.0967  0.0406 -0.1239
 1006loPI   PO415756   5.699  11.994   5.810  0.1637 -0.2364  0.1713
 1006loPI   GL115757   5.554  11.836   6.169  0.1256  0.0790 -0.2273
 1006loPI   GL215758   5.640  11.445   6.173 -0.2892  0.2503  0.0222
 1006loPI   C1A15759   5.645  11.809   6.620 -0.0722 -0.0081 -0.0399
 1006loPI   C2A15760   5.655  11.768   6.962  0.0345  0.4266 -0.2208
 1006loPI   C3A15761   5.716  11.876   7.437  0.2469 -0.1700  0.1151
 1006loPI   C4A15762   5.785  11.915   7.891 -0.1911  0.0438 -0.0084
 1006loPI   C5A15763   5.886  11.717   8.251  0.0566 -0.3734 -0.0072
 1006loPI   C6A15764   5.791  11.311   8.491 -0.2000 -0.0604 -0.0715
 1006loPI   C1B15765   5.640  11.285   6.599  0.0467  0.0343 -0.3720
 1006loPI   C2B15766   5.692  11.264   7.102 -0.0769 -0.1802 -0.3303
 1006loPI   C3B15767   5.690  11.311   7.553  0.2588 -0.2410  0.2461
 1006loPI   C4B15768   5.743  11.343   7.969  0.0864  0.1538  0.0045
 1007loPI    C115769   4.874   2.386   6.259 -0.0651 -0.0896  0.2244
 1007loPI    C215770   4.717   2.019   6.282  0.0100 -0.1710 -0.3817
 1007loPI    C315771   4.743   2.203   5.928 -0.0017  0.4145 -0.0901
 1007loPI   PO415772   4.779   2.549   6.526  0.1625  0.1366 -0.2246
 1007loPI   GL115773   4.982   2.475   6.810  0.2553  0.0254 -0.0467
 1007loPI   GL215774   5.005   2.137   6.696  0.2292 -0.0388  0.1169
 1007loPI   C1A15775   4.718   2.519   7.236 -0.1153 -0.0444 -0.2707
 1007loPI   C2A15776   4.407   2.423   7.622 -0.0159  0.1185  0.0064
 1007loPI   C3A15777   4.268   2.544   8.080  0.1801  0.0323  0.0791
 1007loPI   C4A15778   4.316   2.945   8.249  0.1304  0.2661  0.1356
 1007loPI   C5A15779   4.687   3.200   8.038 -0.1292  0.0438 -0.0100
 1007loPI   C6A15780   4.923   3.316   7.617 -0.0561  0.0673 -0.1091
 1007loPI   C1B15781   4.789   1.773   6.799 -0.1690 -0.2896  0.2204
 1007loPI   C2B15782   4.594   1.618   7.115 -0.2259  0.2088  0.1661
 1007loPI   C3B15783   4.332   1.610   7.497 -0.0391  0.1284 -0.0589
 1007loPI   C4B15784   4.391   1.966   7.783 -0.1220 -0.1907  0.5102
 1008loPI    C115785  10.745   5.297   5.580 -0.0303  0.1614 -0.0479
 1008loPI    C215786  10.458   5.055   5.441 -0.0233  0.1784 -0.0921
 1008loPI    C315787  10.360   5.394   5.629 -0.0340  0.1108  0.0258
 1008loPI   PO415788  10.976   5.159   5.792  0.0711  0.4579  0.1515
 1008loPI   GL115789  11.127   4.891   6.142  0.1146 -0.0174  0.0589
 1008loPI   GL215790  10.905   4.817   6.470  0.1504  0.2832 -0.2546
 1008loPI   C1A15791  11.486   4.698   6.373 -0.0811 -0.1185 -0.3376
 1008loPI   C2A15792  11.681   4.538   6.776  0.1190 -0.0160 -0.3730
 1008loPI   C3A15793  11.547   4.487   7.105  0.0817  0.1380  0.1578
 1008loPI   C4A15794  11.758   4.529   7.448  0.0692 -0.1127 -0.1889
 1008loPI   C5A15795  11.745   4.363   7.850  0.2721  0.3081  0.1308
 1008loPI   C6A15796  11.701   4.379   8.261  0.2144 -0.0343 -0.1824
 1008loPI   C1B15797  11.156   4.702   6.813 -0.0063 -0.0870  0.0132
 1008loPI   C2B15798  11.224   4.801   7.292 -0.2599 -0.0023 -0.3620
 1008loPI   C3B15799  11.147   4.681   7.698 -0.1597 -0.0850  0.2399
 1008loPI   C4B15800  11.305   4.599   8.045  0.0941  0.0234 -0.2192
 1009loPI    C115801   2.784   9.323   5.366 -0.2898 -0.2495 -0.0005
 1009loPI    C215802   2.997   9.152   5.074  0.0340 -0.0631  0.1212
 1009loPI    C315803   2.644   9.320   4.992  0.0695 -0.1127 -0.1409
 1009loPI   PO415804   2.711   9.202   5.552  0.0391 -0.3087 -0.4159
 1009loPI   GL115805   2.709   8.946   5.870  0.1968  0.3725 -0.1459
 1009loPI   GL215806   2.490   8.787   6.096 -0.0062 -0.3130 -0.3929
 1009loPI   C1A15807   2.937   8.951   6.230  0.2428 -0.1037 -0.0713
 1009loPI   C2A15808   3.044   9.093   6.616 -0.1415 -0.1735 -0.2706
 1009loPI   C3A15809   3.047   9.101   6.937 -0.0313 -0.2399 -0.0674
 1009loPI   C4A15810   3.037   9.153   7.394  0.1969  0.0272 -0.1071
 1009loPI   C5A15811   3.044   9.280   7.852 -0.3043  0.0813 -0.2977
 1009loPI   C6A15812   2.773   9.319   8.103 -0.1239  0.0151 -0.2875
 1009loPI   C1B15813   2.530   8.784   6.512 -0.3038 -0.2601 -0.1443
 1009loPI   C2B15814   2.454   8.819   6.921  0.1167  0.0319  0.4399
 1009loPI   C3B15815   2.564   8.919   7.336 -0.2931 -0.0191 -0.2980
 1009loPI   C4B15816   2.739   8.954   7.752  0.0788 -0.2835  0.2351
 1010loPI    C115817   9.211   3.925   5.742 -0.0513 -0.0815  0.0249
 1010loPI    C215818   8.828   4.019   5.672 -0.0156  0.0417 -0.0052
 1010loPI    C315819   9.115   4.293   5.620  0.0874 -0.0790 -0.0784
 1010loPI   PO415820   9.178   3.848   6.087 -0.0892 -0.4326  0.1777
 1010loPI   GL115821   9.011   3.704   6.511  0.0781  0.1077 -0.4642
 1010loPI   GL215822   8.854   3.370   6.498  0.3067  0.0688  0.2556
 1010loPI   C1A15823   8.966   3.949   6.976 -0.2654  0.3166  0.0596
 1010loPI   C2A15824   9.128   3.905   7.390  0.0338  0.1970  0.0456
 1010loPI   C3A15825   9.048   3.806   7.816  0.0559 -0.0854  0.0830
 1010loPI   C4A15826   8.823   3.392   7.915 -0.2724 -0.0891  0.2790
 1010loPI   C5A15827   8.454   3.344   7.977  0.1363  0.1740  0.1073
 1010loPI   C6A15828   8.202   3.331   8.424 -0.2852  0.1952  0.1807
 1010loPI   C1B15829   8.858   3.441   6.953 -0.3245 -0.3714  0.1416
 1010loPI   C2B15830   8.924   3.468   7.437  0.2700  0.1324  0.0616
 1010loPI   C3B15831   9.240   3.370   7.671 -0.0099 -0.0050 -0.0987
 1010loPI   C4B15832   9.426   3.589   8.078  0.1145 -0.0947 -0.1176
 1011loPI    C115833   1.012   0.026   5.575 -0.0545  0.0753  0.0251
 1011loPI    C215834   1.151   0.060   5.201 -0.1197 -0.0308 -0.0093
 1011loPI    C315835   1.190   0.365   5.458  0.1361 -0.0424 -0.0317
 1011loPI   PO415836   1.247  -0.230   5.644  0.1845  0.1466  0.3614
 1011loPI   GL115837   1.316  -0.373   6.020 -0.2146 -0.0113 -0.0800
 1011loPI   GL215838   1.041  -0.323   6.084  0.1146 -0.0521 -0.0499
 1011loPI   C1A15839   1.277  -0.534   6.481 -0.1824  0.0886 -0.0097
 1011loPI   C2A15840   1.200  -0.458   6.865  0.2541 -0.1006 -0.2207
 1011loPI   C3A15841   1.154  -0.403   7.335  0.2085  0.1533  0.1705
 1011loPI   C4A15842   1.057  -0.399   7.810 -0.3107  0.2921  0.4319
 1011loPI   C5A15843   0.734  -0.292   8.110  0.2037 -0.2102 -0.2727
 1011loPI   C6A15844   0.340  -0.265   8.192 -0.1040  0.0866  0.1140
 1011loPI   C1B15845   0.834  -0.175   6.385 -0.1685 -0.3742  0.0021
 1011loPI   C2B15846   0.820  -0.105   6.754  0.1042 -0.1640  0.3353
 1011loPI   C3B15847   0.729  -0.258   7.132 -0.3729  0.0413  0.2976
 1011loPI   C4B15848   0.612  -0.226   7.579  0.3025 -0.0162  0.1405
 1012loPI    C115849  12.072  12.909   5.250 -0.0857 -0.0892  0.2281
 1012loPI    C215850  11.850  13.197   5.083 -0.1335 -0.0991  0.2741
 1012loPI    C315851  11.881  12.840   4.905  0.1763  0.0313  0.0555
 1012loPI   PO415852  11.980  12.921   5.511  0.0288 -0.4525  0.2187
 1012loPI   GL115853  12.031  12.747   5.878  0.1580 -0.1307 -0.2438
 1012loPI   GL215854  11.837  13.058   5.966  0.0647 -0.2868 -0.2559
 1012loPI   C1A15855  12.285  12.786   6.309 -0.1029  0.0649 -0.0611
 1012loPI   C2A15856  12.342  12.817   6.770  0.0753  0.3722  0.2689
 1012loPI   C3A15857  12.306  12.857   7.255  0.0613 -0.0720  0.0706
 1012loPI   C4A15858  12.403  12.880   7.649  0.0862  0.0040  0.1682
 1012loPI   C5A15859  12.414  12.567   8.010 -0.0507  0.2317  0.0903
 1012loPI   C6A15860  12.782  12.396   8.443  0.0610 -0.1299  0.2788
 1012loPI   C1B15861  11.858  13.128   6.323 -0.2230 -0.0758 -0.2236
 1012loPI   C2B15862  11.852  13.011   6.752 -0.4128  0.0902 -0.0709
 1012loPI   C3B15863  11.820  13.058   7.204  0.1391 -0.2685  0.1894
 1012loPI   C4B15864  11.947  13.074   7.628 -0.0128  0.0838  0.0377
 1013loPI    C115865   9.092  11.815   5.516  0.1759  0.0497  0.0738
 1013loPI    C215866   9.050  11.711   5.132  0.1432  0.0748  0.0705
 1013loPI    C315867   9.071  12.098   5.233 -0.0562  0.0751  0.1142
 1013loPI   PO415868   8.917  11.771   5.695 -0.0617  0.2026  0.0080
 1013loPI   GL115869   9.060  11.508   6.167  0.2019 -0.3369 -0.1040
 1013loPI   GL215870   8.765  11.640   6.260 -0.2054  0.3228 -0.0670
 1013loPI   C1A15871   9.295  11.433   6.488 -0.1154  0.0427  0.1776
 1013loPI   C2A15872   9.269  11.424   6.949  0.0370 -0.0633  0.1249
 1013loPI   C3A15873   9.220  11.385   7.414  0.1267  0.2558  0.2222
 1013loPI   C4A15874   9.230  11.303   7.796  0.3026  0.3009  0.1179
 1013loPI   C5A15875   9.405  11.521   7.972  0.2152  0.0584  0.0415
 1013loPI   C6A15876   9.155  11.960   8.106  0.1818 -0.6367 -0.2542
 1013loPI   C1B15877   8.807  11.676   6.763 -0.1769 -0.0428 -0.0492
 1013loPI   C2B15878   8.865  11.583   7.176  0.0176  0.0379 -0.1845
 1013loPI   C3B15879   8.890  11.643   7.709 -0.3085  0.2971  0.4498
 1013loPI   C4B15880   8.842  11.615   8.148  0.1218  0.0235 -0.0091
 1014loPI    C115881   6.597  17.362   5.804  0.1370 -0.2682  0.1866
 1014loPI    C215882   6.396  17.074   5.613 -0.3966  0.0253  0.2826
 1014loPI    C315883   6.416  17.441   5.456  0.1280 -0.0098  0.2478
 1014loPI   PO415884   6.494  17.416   6.072  0.0282 -0.3043 -0.4038
 1014loPI   GL115885   6.410  17.213   6.489 -0.0174  0.2337 -0.1447
 1014loPI   GL215886   6.785  17.161   6.541  0.0467 -0.0392  0.2673
 1014loPI   C1A15887   6.366  17.070   6.883  0.2334  0.1764 -0.0581
 1014loPI   C2A15888   6.341  17.073   7.272 -0.1506  0.0308 -0.0796
 1014loPI   C3A15889   6.413  17.030   7.772 -0.1988 -0.0532  0.3457
 1014loPI   C4A15890   6.457  17.007   8.161  0.0461  0.3331  0.1430
 1014loPI   C5A15891   6.629  17.097   8.439 -0.2030  0.1144 -0.2543
 1014loPI   C6A15892   6.763  16.839   8.803 -0.0500  0.0216 -0.3332
 1014loPI   C1B15893   6.732  17.441   6.825  0.1173 -0.2036  0.0621
 1014loPI   C2B15894   6.808  17.288   7.145  0.0349 -0.1866  0.0975
 1014loPI   C3B15895   6.870  17.319   7.656  0.0575  0.1273  0.2825
 1014loPI   C4B15896   6.853  17.243   7.929  0.2382 -0.0603  0.2231
 1015loPI    C115897   4.286  13.524   5.491 -0.0729  0.0621  0.0919
 1015loPI    C215898   4.304  13.323   5.145  0.0719 -0.0608  0.1698
 1015loPI    C315899   4.352  13.720   5.148  0.3806 -0.0956  0.0830
 1015loPI   PO415900   4.025  13.449   5.594 -0.2923  0.0124  0.1722
 1015loPI   GL115901   3.843  13.418   6.014  0.0718 -0.0499  0.5137
 1015loPI   GL215902   3.894  13.297   6.278 -0.1200 -0.2303  0.2455
 1015loPI   C1A15903   3.565  13.641   6.286 -0.1035 -0.3597  0.1473
 1015loPI   C2A15904   3.406  13.590   6.738 -0.1917  0.2695 -0.0705
 1015loPI   C3A15905   3.423  13.575   7.198 -0.0717 -0.2929  0.0118
 1015loPI   C4A15906   3.452  13.588   7.658  0.0039 -0.3302  0.2054
 1015loPI   C5A15907   3.507  13.622   8.043  0.0752 -0.0970 -0.2076
 1015loPI   C6A15908   3.615  13.261   8.340  0.0256 -0.0186  0.0056
 1015loPI   C1B15909   3.810  13.303   6.659 -0.1846 -0.0963 -0.0303
 1015loPI   C2B15910   3.843  13.287   7.127 -0.0178 -0.0402 -0.0231
 1015loPI   C3B15911   3.955  13.332   7.608  0.4380 -0.1648  0.0164
 1015loPI   C4B15912   3.963  13.360   8.029 -0.1128 -0.0442  0.0356
 1016loPI    C115913   0.033  16.417   5.563  0.0781  0.1890  0.0366
 1016loPI    C215914   0.312  16.404   5.277 -0.0727  0.1103 -0.1083
 1016loPI    C315915  -0.065  16.301   5.194 -0.1075  0.0374  0.1319
 1016loPI   PO415916   0.079  16.632   5.714  0.0990 -0.1118 -0.2026
 1016loPI   GL115917  -0.056  16.774   6.059 -0.2279 -0.0474 -0.1630
 1016loPI   GL215918  -0.144  17.127   6.134  0.2187  0.0018 -0.1765
 1016loPI   C1A15919  -0.157  16.641   6.511  0.1072 -0.1510  0.1408
 1016loPI   C2A15920  -0.241  16.656   6.949  0.0644 -0.1514  0.3786
 1016loPI   C3A15921  -0.212  16.694   7.319 -0.0053  0.0009 -0.1475
 1016loPI   C4A15922  -0.262  16.668   7.731 -0.1990  0.0547  0.3093
 1016loPI   C5A15923  -0.346  16.518   8.072  0.0945 -0.1130  0.2883
 1016loPI   C6A15924  -0.251  16.404   8.509 -0.2754  0.1626  0.1062
 1016loPI   C1B15925  -0.123  17.132   6.590  0.0624 -0.0630  0.2606
 1016loPI   C2B15926  -0.164  17.112   7.048 -0.2444  0.1348  0.3050
 1016loPI   C3B15927  -0.212  17.212   7.402 -0.0871  0.0489  0.1083
 1016loPI   C4B15928  -0.265  17.187   7.780 -0.2902  0.2108  0.0371
 1017loPI    C115929   2.168  17.077   5.799 -0.2444  0.0132 -0.1267
 1017loPI    C215930   2.211  17.470   5.736  0.0104  0.0043 -0.0179
 1017loPI    C315931   2.130  17.226   5.430 -0.1628  0.1428 -0.0835
 1017loPI   PO415932   2.053  16.994   6.052 -0.3378 -0.0161  0.0518
 1017loPI   GL115933   2.175  16.913   6.494  0.1547  0.1089 -0.2310
 1017loPI   GL215934   2.504  16.771   6.398 -0.0072 -0.0269 -0.2348
 1017loPI   C1A15935   2.336  16.959   6.987 -0.1565  0.2191  0.1615
 1017loPI   C2A15936   1.978  16.919   7.424 -0.4981 -0.1190 -0.0106
 1017loPI   C3A15937   1.930  16.985   7.896 -0.2982 -0.1079 -0.1625
 1017loPI   C4A15938   1.847  17.171   8.402 -0.0097 -0.1217 -0.2223
 1017loPI   C5A15939   1.829  17.290   8.812 -0.0444  0.1965 -0.0546
 1017loPI   C6A15940   1.577  17.677   8.798  0.3594  0.1944  0.0492
 1017loPI   C1B15941   2.754  16.769   6.861 -0.0360 -0.0403  0.4501
 1017loPI   C2B15942   2.709  16.714   7.311  0.4625 -0.1728 -0.0246
 1017loPI   C3B15943   2.380  16.736   7.673  0.0209 -0.0279 -0.1670
 1017loPI   C4B15944   2.290  16.662   8.081  0.1114 -0.1075  0.0381
 1018loPI    C115945   6.509   8.808   5.592  0.0187  0.0185  0.0120
 1018loPI    C215946   6.660   8.469   5.741 -0.0327  0.1102  0.2778
 1018loPI    C315947   6.329   8.458   5.517  0.0968 -0.0389  0.0906
 1018loPI   PO415948   6.480   8.970   5.847  0.1121  0.1245  0.0354
 1018loPI   GL115949   6.723   9.249   6.120 -0.1988 -0.3053 -0.0376
 1018loPI   GL215950   6.622   9.487   6.256  0.0159 -0.1127 -0.0649
 1018loPI   C1A15951   6.690   9.091   6.580  0.2992  0.2128  0.2958
 1018loPI   C2A15952   6.617   9.111   6.962  0.2048 -0.1299 -0.1051
 1018loPI   C3A15953   6.636   9.265   7.330 -0.2830 -0.1100 -0.2833
 1018loPI   C4A15954   6.626   9.328   7.716 -0.3019 -0.0734  0.2936
 1018loPI   C5A15955   6.653   9.002   7.987  0.1267  0.1329 -0.0988
 1018loPI   C6A15956   6.851   8.534   8.068  0.1682  0.0629  0.2234
 1018loPI   C1B15957   6.611   9.614   6.715  0.0528  0.0853 -0.0861
 1018loPI   C2B15958   6.620   9.704   7.098 -0.0374  0.4851  0.2180
 1018loPI   C3B15959   6.649   9.767   7.492 -0.1453 -0.0725 -0.0244
 1018loPI   C4B15960   6.635  10.040   7.841 -0.0551 -0.0968  0.1293
 1019loPI    C115961   9.244  16.012   5.576 -0.2084  0.0864 -0.4007
 1019loPI    C215962   9.206  15.754   5.273  0.1100 -0.1830 -0.2186
 1019loPI    C315963   9.569  15.852   5.407 -0.0168  0.1857 -0.1334
 1019loPI   PO415964   9.163  15.930   5.785  0.3426  0.1007 -0.1390
 1019loPI   GL115965   9.282  16.093   6.126 -0.0162  0.2122  0.1353
 1019loPI   GL215966   9.037  16.214   6.316  0.1031  0.0734  0.0801
 1019loPI   C1A15967   9.560  16.040   6.430 -0.1058  0.1260  0.0469
 1019loPI   C2A15968   9.556  15.869   6.842 -0.0657 -0.1830  0.2863
 1019loPI   C3A15969   9.659  15.780   7.298  0.0569 -0.1364  0.1793
 1019loPI   C4A15970   9.628  15.757   7.703 -0.1166  0.0281 -0.0989
 1019loPI   C5A15971   9.702  15.625   8.133 -0.1060 -0.1135 -0.2049
 1019loPI   C6A15972   9.970  15.348   8.314  0.1074  0.0464  0.2078
 1019loPI   C1B15973   9.175  16.182   6.718 -0.0273 -0.1982  0.0311
 1019loPI   C2B15974   9.219  16.032   7.115  0.1064  0.0927 -0.1646
 1019loPI   C3B15975   9.240  16.011   7.580  0.1245  0.1979 -0.1679
 1019loPI   C4B15976   9.184  16.148   8.050  0.3658  0.3202 -0.0036
 1020loPI    C115977   7.136   8.724   5.305  0.0427  0.1818  0.0725
 1020loPI    C215978   7.209   9.085   5.149 -0.0535  0.1966  0.0615
 1020loPI    C315979   7.503   8.815   5.174  0.0165  0.2727  0.0618
 1020loPI   PO415980   7.004   8.738   5.508 -0.0406  0.2192 -0.0769
 1020loPI   GL115981   6.983   8.791   5.950 -0.1394  0.0782 -0.0729
 1020loPI   GL215982   7.266   8.666   6.022  0.0868 -0.0751 -0.0367
 1020loPI   C1A15983   6.937   8.742   6.376 -0.2621  0.1085 -0.1618
 1020loPI   C2A15984   7.052   8.739   6.862  0.0893 -0.0060  0.3308
 1020loPI   C3A15985   7.090   8.949   7.133  0.3475 -0.0221 -0.3018
 1020loPI   C4A15986   6.997   9.005   7.653 -0.1863 -0.5572  0.0649
 1020loPI   C5A15987   7.097   9.240   8.047  0.0399  0.3481 -0.0374
 1020loPI   C6A15988   7.022   9.712   8.031  0.4624  0.1415 -0.0320
 1020loPI   C1B15989   7.362   8.974   6.485 -0.1423  0.2525 -0.3503
 1020loPI   C2B15990   7.468   9.151   6.876  0.1397 -0.0025  0.2494
 1020loPI   C3B15991   7.454   9.254   7.339 -0.1349  0.1179  0.2359
 1020loPI   C4B15992   7.578   9.243   7.886 -0.0445 -0.3868 -0.0181
 1021loPI    C115993   9.201   8.012   5.577 -0.1492  0.1788  0.0962
 1021loPI    C215994   9.438   7.785   5.348 -0.1859  0.0708  0.1643
 1021loPI    C315995   9.302   8.135   5.210 -0.0578  0.0927  0.0921
 1021loPI   PO415996   9.338   8.110   5.818 -0.5009 -0.0160 -0.0784
 1021loPI   GL115997   9.339   7.948   6.209  0.0630 -0.1825 -0.3532
 1021loPI   GL215998   9.048   7.814   6.250  0.0119 -0.1019  0.3411
 1021loPI   C1A15999   9.637   7.984   6.620 -0.1888  0.0642 -0.0800
 1021loPI   C2A16000   9.650   8.064   7.096 -0.0711  0.2636 -0.1128
 1021loPI   C3A16001   9.669   8.166   7.530 -0.0587  0.2049  0.0257
 1021loPI   C4A16002   9.756   8.172   7.993  0.0999  0.1827 -0.2567
 1021loPI   C5A16003   9.408   8.024   8.299 -0.4299 -0.2656  0.1292
 1021loPI   C6A16004   9.061   7.849   8.351  0.0911  0.2600  0.2349
 1021loPI   C1B16005   9.075   7.873   6.658  0.2286  0.2674 -0.0441
 1021loPI   C2B16006   9.168   7.850   7.032 -0.2379  0.2135 -0.0428
 1021loPI   C3B16007   9.054   7.736   7.367 -0.4295 -0.0919  0.1191
 1021loPI   C4B16008   9.323   7.790   7.605 -0.4964  0.1590  0.2067
 1022loPI    C116009  14.692   1.031   5.422  0.1420 -0.1713 -0.0091
 1022loPI    C216010  14.339   0.863   5.508  0.0462 -0.0454 -0.1515
 1022loPI    C316011  14.482   0.849   5.135  0.0165  0.2253 -0.1752
 1022loPI   PO416012  14.696   1.277   5.634 -0.1407 -0.0539  0.0348
 1022loPI   GL116013  14.673   1.332   6.105  0.2525  0.2451 -0.1111
 1022loPI   GL216014  14.463   1.530   6.306  0.0214 -0.2024  0.0243
 1022loPI   C1A16015  14.895   1.269   6.421  0.2418  0.1327 -0.2522
 1022loPI   C2A16016  14.836   1.160   6.783 -0.0696  0.2042 -0.1017
 1022loPI   C3A16017  14.967   1.143   7.156  0.2390  0.0541  0.0632
 1022loPI   C4A16018  14.984   1.061   7.575  0.0691 -0.0428 -0.1412
 1022loPI   C5A16019  14.864   1.063   7.972 -0.3144  0.3450  0.1067
 1022loPI   C6A16020  14.801   1.165   8.402 -0.1893  0.0939  0.0751
 1022loPI   C1B16021  14.439   1.435   6.669  0.2865 -0.1183 -0.0536
 1022loPI   C2B16022  14.338   1.416   7.130 -0.2751 -0.1228 -0.2569
 1022loPI   C3B16023  14.498   1.349   7.554 -0.2969  0.1548  0.1805
 1022loPI   C4B16024  14.461   1.322   7.976  0.1033 -0.1268  0.1064
 1023loPI    C116025  15.989   4.066   5.330  0.0856  0.2317  0.0025
 1023loPI    C216026  15.759   3.849   5.085  0.4524 -0.3285  0.1366
 1023loPI    C316027  16.093   4.020   4.947  0.0877  0.3014 -0.0055
 1023loPI   PO416028  15.864   3.959   5.608  0.1360 -0.0249  0.3772
 1023loPI   GL116029  15.646   4.193   5.773  0.1241  0.2875  0.0007
 1023loPI   GL216030  15.574   3.882   6.003  0.1274  0.2369  0.0168
 1023loPI   C1A16031  15.692   4.372   6.157 -0.0135  0.1155 -0.0617
 1023loPI   C2A16032  15.627   4.357   6.544  0.0290 -0.2351 -0.2972
 1023loPI   C3A16033  15.661   4.390   6.970 -0.2591  0.3048  0.2406
 1023loPI   C4A16034  15.674   4.374   7.339 -0.0424  0.2367  0.0038
 1023loPI   C5A16035  15.704   4.276   7.824  0.3140  0.2938  0.2411
 1023loPI   C6A16036  15.992   4.433   8.146  0.1776  0.2840  0.2399
 1023loPI   C1B16037  15.648   3.887   6.383  0.2968  0.4184  0.2248
 1023loPI   C2B16038  15.648   3.889   6.747 -0.2587  0.0373  0.0401
 1023loPI   C3B16039  15.668   3.934   7.118 -0.0025 -0.1515 -0.2932
 1023loPI   C4B16040  15.686   3.866   7.571 -0.1025  0.2024  0.0830
 1024loPI    C116041  11.520   8.068   5.350  0.0924 -0.0338 -0.0494
 1024loPI    C216042  11.154   8.021   5.503  0.2130 -0.0927  0.2275
 1024loPI    C316043  11.255   7.833   5.165 -0.2793  0.5734 -0.3196
 1024loPI   PO416044  11.633   8.125   5.611 -0.0125  0.0782  0.3367
 1024loPI   GL116045  11.700   8.404   5.941  0.0202  0.2821 -0.1324
 1024loPI   GL216046  11.476   8.737   6.058 -0.1801  0.2451 -0.0089
 1024loPI   C1A16047  11.872   8.445   6.325 -0.0470  0.1815 -0.2278
 1024loPI   C2A16048  11.945   8.420   6.754 -0.1188  0.1729 -0.1164
 1024loPI   C3A16049  11.966   8.472   7.201 -0.2574  0.1053  0.0048
 1024loPI   C4A16050  12.053   8.378   7.584  0.0321  0.2375 -0.0025
 1024loPI   C5A16051  12.127   8.478   8.033 -0.3789 -0.0446 -0.2048
 1024loPI   C6A16052  12.185   8.401   8.495  0.2845  0.1217  0.1255
 1024loPI   C1B16053  11.453   8.659   6.498  0.1554 -0.5083 -0.0949
 1024loPI   C2B16054  11.507   8.603   6.957  0.0132 -0.0840 -0.0808
 1024loPI   C3B16055  11.541   8.660   7.384  0.2536 -0.4380 -0.3388
 1024loPI   C4B16056  11.709   8.579   7.839 -0.0728 -0.0988  0.0570
 1025loPI    C116057   8.797   7.009   6.081  0.2450  0.1794  0.0704
 1025loPI    C216058   8.819   6.769   5.762 -0.1062  0.2131  0.0164
 1025loPI    C316059   9.028   7.110   5.770  0.0265  0.1359 -0.1090
 1025loPI   PO416060   8.877   6.940   6.227 -0.3424 -0.2697  0.0101
 1025loPI   GL116061   8.925   7.063   6.593  0.0293 -0.0563 -0.0304
 1025loPI   GL216062   8.940   7.303   6.709 -0.2883 -0.1259 -0.0078
 1025loPI   C1A16063   9.061   6.912   7.068  0.2020  0.2706  0.0507
 1025loPI   C2A16064   9.059   6.821   7.503 -0.0752 -0.2049  0.0570
 1025loPI   C3A16065   9.035   6.780   7.880  0.0329 -0.2429 -0.3042
 1025loPI   C4A16066   8.993   6.691   8.344 -0.1728  0.3052 -0.1673
 1025loPI   C5A16067   9.302   6.482   8.801 -0.1518 -0.1245 -0.0248
 1025loPI   C6A16068   9.313   6.603   9.194 -0.2214  0.0448 -0.0306
 1025loPI   C1B16069   8.748   7.639   6.951  0.1445  0.4508  0.1924
 1025loPI   C2B16070   8.565   7.863   7.207 -0.0719  0.1601  0.1476
 1025loPI   C3B16071   8.515   8.028   7.639 -0.4580  0.3138 -0.1257
 1025loPI   C4B16072   8.525   8.405   8.026 -0.0183 -0.1386  0.1555
 1026loPI    C116073  14.168   9.929   5.174  0.4074 -0.0216 -0.0421
 1026loPI    C216074  14.282  10.221   4.926  0.1614  0.1469  0.0397
 1026loPI    C316075  14.157   9.871   4.778  0.1394  0.2007 -0.0701
 1026loPI   PO416076  14.099  10.095   5.400  0.0770 -0.3895 -0.3775
 1026loPI   GL116077  13.926  10.004   5.765 -0.0659  0.0738 -0.2063
 1026loPI   GL216078  13.865  10.239   5.858  0.1382 -0.0886 -0.0604
 1026loPI   C1A16079  14.207   9.940   6.100  0.0829 -0.0330  0.0134
 1026loPI   C2A16080  14.157   9.816   6.477  0.1276  0.3408 -0.1879
 1026loPI   C3A16081  14.259   9.717   6.910  0.0070  0.1872  0.5220
 1026loPI   C4A16082  14.211   9.752   7.364 -0.0851 -0.2625  0.2898
 1026loPI   C5A16083  14.197   9.764   7.786 -0.1261 -0.1548  0.2622
 1026loPI   C6A16084  14.366   9.585   8.171  0.0887  0.2084 -0.0022
 1026loPI   C1B16085  13.657  10.065   6.247 -0.1399 -0.0063 -0.3387
 1026loPI   C2B16086  13.658  10.015   6.738  0.0204 -0.0683 -0.1108
 1026loPI   C3B16087  13.833   9.974   7.125 -0.2301 -0.0463  0.2171
 1026loPI   C4B16088  13.791  10.019   7.673  0.0870  0.1104 -0.1442
 1027loPI    C116089  13.328   7.608   5.264 -0.2794  0.1196 -0.0258
 1027loPI    C216090  13.246   7.225   5.348  0.0568  0.0113 -0.1720
 1027loPI    C316091  13.143   7.379   4.993 -0.1121  0.0694 -0.0989
 1027loPI   PO416092  13.576   7.709   5.351 -0.2169  0.0854  0.2070
 1027loPI   GL116093  13.596   7.564   5.739 -0.1197 -0.1859  0.1457
 1027loPI   GL216094  13.655   7.828   5.851 -0.0962  0.1154  0.0183
 1027loPI   C1A16095  13.745   7.482   6.212 -0.1347  0.2111 -0.1012
 1027loPI   C2A16096  13.761   7.427   6.629  0.0973  0.1311 -0.0704
 1027loPI   C3A16097  13.854   7.478   7.070 -0.3176  0.2929  0.3253
 1027loPI   C4A16098  13.883   7.435   7.538  0.1776 -0.0317  0.2243
 1027loPI   C5A16099  14.123   7.213   7.860 -0.0846 -0.0434 -0.0936
 1027loPI   C6A16100  13.986   6.992   8.166  0.0562 -0.0013  0.1562
 1027loPI   C1B16101  13.735   8.030   6.238  0.1642  0.2524 -0.0048
 1027loPI   C2B16102  13.753   7.976   6.703 -0.0672 -0.1331 -0.0750
 1027loPI   C3B16103  13.763   7.971   7.164  0.2994  0.0601  0.0232
 1027loPI   C4B16104  13.861   7.939   7.625  0.1094  0.2095  0.1714
 1028loPI    C116105   8.759   4.978   6.041 -0.0886  0.2470  0.0789
 1028loPI    C216106   8.556   4.948   5.697 -0.1807  0.0985  0.1449
 1028loPI    C316107   8.872   4.712   5.765 -0.0819  0.2188  0.1088
 1028loPI   PO416108   8.564   4.964   6.261  0.0237 -0.1710  0.0403
 1028loPI   GL116109   8.598   4.810   6.744 -0.3248  0.0363  0.0346
 1028loPI   GL216110   8.721   4.395   6.854  0.1462  0.3928  0.0539
 1028loPI   C1A16111   8.717   4.747   7.253 -0.1405  0.0004  0.0743
 1028loPI   C2A16112   8.744   4.872   7.649  0.0435  0.0958 -0.0156
 1028loPI   C3A16113   9.189   4.852   7.748  0.1824  0.0186  0.3192
 1028loPI   C4A16114   9.586   4.698   8.005 -0.2382  0.0084  0.1462
 1028loPI   C5A16115   9.899   4.915   8.052 -0.0997  0.0218  0.0013
 1028loPI   C6A16116  10.011   5.271   8.288 -0.0381 -0.3719 -0.1458
 1028loPI   C1B16117   8.592   4.260   7.261 -0.3220  0.1721 -0.1845
 1028loPI   C2B16118   8.752   4.194   7.681 -0.2877 -0.0044  0.4189
 1028loPI   C3B16119   8.629   4.037   8.048 -0.1637 -0.0314  0.0243
 1028loPI   C4B16120   8.661   3.663   8.330 -0.0363 -0.0200  0.1471
 1029loPI    C116121  11.106  11.457   5.310 -0.0622 -0.0251 -0.1151
 1029loPI    C216122  10.895  11.208   5.078 -0.0653 -0.0781 -0.0558
 1029loPI    C316123  11.144  11.473   4.912 -0.0056 -0.1717 -0.1166
 1029loPI   PO416124  11.088  11.452   5.544  0.1694 -0.1263 -0.0226
 1029loPI   GL116125  10.945  11.332   5.881 -0.0638 -0.2605 -0.0759
 1029loPI   GL216126  10.763  11.643   5.960  0.2749 -0.3138 -0.1070
 1029loPI   C1A16127  11.040  11.491   6.315  0.3340  0.3401 -0.0961
 1029loPI   C2A16128  11.111  11.509   6.700 -0.1827  0.0718  0.0398
 1029loPI   C3A16129  11.022  11.417   7.059 -0.4576  0.1481 -0.3275
 1029loPI   C4A16130  11.103  11.464   7.544 -0.2275  0.0769  0.0571
 1029loPI   C5A16131  11.060  11.563   7.968  0.0394 -0.0261  0.0340
 1029loPI   C6A16132  11.178  11.820   8.255  0.0150 -0.0173 -0.1264
 1029loPI   C1B16133  10.534  11.757   6.234  0.2387 -0.1226  0.2196
 1029loPI   C2B16134  10.561  11.770   6.712  0.0647  0.0561  0.1604
 1029loPI   C3B16135  10.600  11.696   7.227 -0.1380 -0.2558 -0.1764
 1029loPI   C4B16136  10.651  11.783   7.671 -0.1287  0.2604  0.0861
 1030loPI    C116137  12.563  15.948   5.853 -0.0636 -0.0606  0.1327
 1030loPI    C216138  12.952  15.878   5.793 -0.0764  0.0537 -0.0932
 1030loPI    C316139  12.678  15.680   5.579 -0.1391  0.0571 -0.0160
 1030loPI   PO416140  12.553  16.278   5.863 -0.1344  0.2539  0.2166
 1030loPI   GL116141  12.450  16.601   6.179 -0.1337 -0.0160 -0.0034
 1030loPI   GL216142  12.744  16.671   6.352  0.2653 -0.0929  0.0500
 1030loPI   C1A16143  12.237  16.480   6.612  0.1612  0.0593  0.0319
 1030loPI   C2A16144  12.240  16.460   7.017 -0.4458 -0.1935  0.2268
 1030loPI   C3A16145  12.258  16.465   7.386 -0.0871  0.1148  0.4952
 1030loPI   C4A16146  12.369  16.430   7.805  0.2231 -0.2966  0.1608
 1030loPI   C5A16147  12.368  16.069   8.152 -0.1690 -0.0039  0.1243
 1030loPI   C6A16148  12.510  15.968   8.552  0.1954 -0.2658  0.0733
 1030loPI   C1B16149  12.694  16.683   6.867 -0.0120 -0.0303 -0.2406
 1030loPI   C2B16150  12.737  16.636   7.204  0.0300 -0.1954  0.0968
 1030loPI   C3B16151  12.697  16.717   7.645 -0.0956  0.0686  0.2099
 1030loPI   C4B16152  12.820  16.673   8.110  0.0418  0.1720 -0.0169
 1031loPI    C116153   8.489  14.376   5.606 -0.0935 -0.0624 -0.0449
 1031loPI    C216154   8.877  14.439   5.684 -0.1413  0.0161  0.1344
 1031loPI    C316155   8.673  14.698   5.457 -0.0831 -0.0383  0.0196
 1031loPI   PO416156   8.343  14.296   5.827  0.0001 -0.0138 -0.0160
 1031loPI   GL116157   8.592  14.247   6.263 -0.0607  0.0552  0.3020
 1031loPI   GL216158   8.695  14.465   6.467  0.0209 -0.2118  0.1701
 1031loPI   C1A16159   8.314  13.998   6.548  0.0249 -0.0780 -0.2249
 1031loPI   C2A16160   8.360  13.974   6.993 -0.0851  0.0675 -0.1122
 1031loPI   C3A16161   8.394  13.893   7.342 -0.0589  0.1737 -0.1936
 1031loPI   C4A16162   8.390  13.934   7.738  0.0239  0.1503  0.3024
 1031loPI   C5A16163   8.384  13.860   8.169  0.0178 -0.0800  0.2380
 1031loPI   C6A16164   8.538  13.805   8.488 -0.2753 -0.2562 -0.0304
 1031loPI   C1B16165   8.759  14.241   6.873 -0.0626  0.1646 -0.1859
 1031loPI   C2B16166   8.803  14.210   7.275 -0.0063  0.0884  0.1375
 1031loPI   C3B16167   8.691  14.287   7.600 -0.2235 -0.2516  0.0279
 1031loPI   C4B16168   8.751  14.178   8.007  0.0147 -0.0967 -0.1294
 1032loPI    C116169   0.612   9.943   5.190  0.0127  0.0436  0.0450
 1032loPI    C216170   0.366  10.237   5.075 -0.0518 -0.0574 -0.0780
 1032loPI    C316171   0.619  10.073   4.812  0.1138  0.0126  0.0358
 1032loPI   PO416172   0.625  10.032   5.432 -0.2808 -0.0433 -0.2179
 1032loPI   GL116173   0.688   9.959   5.837  0.3175 -0.0744  0.1968
 1032loPI   GL216174   0.395   9.890   5.890 -0.0582 -0.0709 -0.1731
 1032loPI   C1A16175   0.757   9.948   6.302 -0.2155  0.3169  0.2770
 1032loPI   C2A16176   0.828   9.897   6.766  0.2271  0.1322  0.1271
 1032loPI   C3A16177   0.744   9.724   7.176 -0.1335 -0.4245 -0.0236
 1032loPI   C4A16178   0.877   9.802   7.618  0.1315 -0.0938  0.0463
 1032loPI   C5A16179   1.042   9.899   8.096  0.1135 -0.0629  0.0920
 1032loPI   C6A16180   0.811  10.087   8.487  0.1026  0.1667  0.0608
 1032loPI   C1B16181   0.312   9.726   6.203 -0.0209 -0.0624  0.1863
 1032loPI   C2B16182   0.279   9.619   6.595  0.0408 -0.0594 -0.0238
 1032loPI   C3B16183   0.329   9.612   7.060 -0.1235 -0.1573  0.0039
 1032loPI   C4B16184   0.410   9.515   7.453  0.0106 -0.2202 -0.1329
 1033loPI    C116185   2.975   2.795   5.823  0.2056 -0.3266  0.1901
 1033loPI    C216186   2.982   2.669   5.444  0.0413  0.0550  0.0561
 1033loPI    C316187   3.301   2.854   5.599  0.1412 -0.1795  0.1343
 1033loPI   PO416188   2.922   2.617   5.983  0.2407  0.1333  0.1768
 1033loPI   GL116189   2.866   2.805   6.404 -0.0479 -0.2264  0.3570
 1033loPI   GL216190   2.964   2.387   6.426  0.3807  0.0862  0.0165
 1033loPI   C1A16191   2.736   2.782   6.707  0.3390 -0.0325 -0.2146
 1033loPI   C2A16192   2.714   2.774   7.164 -0.0231  0.1849  0.1244
 1033loPI   C3A16193   2.846   2.703   7.564  0.2345 -0.1414 -0.0981
 1033loPI   C4A16194   2.727   3.001   7.974  0.3915  0.2492  0.2433
 1033loPI   C5A16195   2.476   3.113   8.376  0.0185 -0.1344 -0.1733
 1033loPI   C6A16196   2.250   2.957   8.745  0.2167  0.0524  0.1372
 1033loPI   C1B16197   2.824   2.323   6.912  0.0172  0.0525 -0.0595
 1033loPI   C2B16198   2.784   2.237   7.318  0.1075  0.2583 -0.0963
 1033loPI   C3B16199   2.860   2.268   7.763  0.1140 -0.3251 -0.4502
 1033loPI   C4B16200   3.015   2.357   8.107  0.1463  0.1827 -0.0115
 1034loPI    C116201   2.746   4.817   5.878 -0.1624  0.0184  0.0144
 1034loPI    C216202   2.672   4.425   5.908 -0.1731  0.0167 -0.0331
 1034loPI    C316203   2.890   4.564   5.604 -0.2418  0.0575 -0.0639
 1034loPI   PO416204   2.473   4.904   5.981  0.2301  0.1705  0.0293
 1034loPI   GL116205   2.339   4.898   6.420 -0.0465 -0.0539 -0.2722
 1034loPI   GL216206   2.553   4.602   6.389 -0.2168 -0.1405  0.2977
 1034loPI   C1A16207   2.223   5.029   6.896  0.0550 -0.0852 -0.0388
 1034loPI   C2A16208   2.278   5.086   7.406 -0.0586  0.1540  0.0673
 1034loPI   C3A16209   2.373   5.044   7.827 -0.0557 -0.1837  0.1176
 1034loPI   C4A16210   2.541   5.143   8.256  0.0429  0.0442 -0.2073
 1034loPI   C5A16211   2.640   5.517   8.273  0.1945  0.1930 -0.0516
 1034loPI   C6A16212   2.644   5.627   8.706 -0.2118 -0.0739  0.0506
 1034loPI   C1B16213   2.514   4.658   6.782 -0.0414 -0.0167  0.4018
 1034loPI   C2B16214   2.475   4.603   7.145  0.0353  0.0731 -0.2459
 1034loPI   C3B16215   2.374   4.627   7.618 -0.0926 -0.1810  0.0019
 1034loPI   C4B16216   2.516   4.641   8.163  0.0759  0.1117 -0.1484
 1035loPI    C116217  16.361   4.744   5.400  0.0585  0.1725 -0.0354
 1035loPI    C216218  16.182   4.954   5.111 -0.1073 -0.1061 -0.1391
 1035loPI    C316219  16.143   4.556   5.123  0.2712 -0.1430  0.0057
 1035loPI   PO416220  16.333   4.845   5.596 -0.1433  0.3309 -0.0520
 1035loPI   GL116221  16.529   5.017   5.972  0.2002  0.0472  0.0928
 1035loPI   GL216222  16.171   5.192   6.027 -0.1954  0.0406  0.1545
 1035loPI   C1A16223  16.601   4.932   6.443 -0.0270 -0.3730 -0.1167
 1035loPI   C2A16224  16.528   4.907   6.898 -0.0912  0.1550  0.1691
 1035loPI   C3A16225  16.582   4.917   7.326 -0.1623 -0.0075  0.2583
 1035loPI   C4A16226  16.465   4.900   7.737 -0.2505 -0.1559  0.3310
 1035loPI   C5A16227  16.346   4.859   8.134  0.1952  0.0338 -0.1295
 1035loPI   C6A16228  16.328   5.035   8.541  0.0245 -0.0007  0.3995
 1035loPI   C1B16229  16.140   5.135   6.456  0.1764  0.1991 -0.1878
 1035loPI   C2B16230  16.107   5.196   6.838  0.2464 -0.3333 -0.1337
 1035loPI   C3B16231  16.166   5.102   7.164 -0.0014 -0.0694  0.1036
 1035loPI   C4B16232  16.071   5.159   7.483 -0.1400  0.3081 -0.1470
 1036loPI    C116233   9.782   1.539   5.397 -0.1353  0.0315  0.0714
 1036loPI    C216234   9.905   1.668   5.039  0.0195 -0.0782  0.0839
 1036loPI    C316235   9.562   1.804   5.194  0.0836  0.1703  0.0122
 1036loPI   PO416236   9.976   1.612   5.609  0.0404 -0.0118  0.0383
 1036loPI   GL116237  10.338   1.695   5.875  0.2481 -0.2027 -0.3662
 1036loPI   GL216238  10.172   1.958   6.001 -0.0104 -0.0671 -0.3661
 1036loPI   C1A16239  10.168   1.544   6.228  0.1015  0.1555  0.0273
 1036loPI   C2A16240  10.344   1.601   6.610 -0.2168  0.1674  0.1437
 1036loPI   C3A16241  10.393   1.522   7.075  0.0683 -0.2302 -0.2196
 1036loPI   C4A16242  10.471   1.530   7.502  0.2545  0.2219  0.1044
 1036loPI   C5A16243  10.385   1.477   7.894  0.0741  0.1870 -0.0020
 1036loPI   C6A16244  10.182   1.279   8.308  0.1960  0.3774  0.1946
 1036loPI   C1B16245  10.219   2.182   6.346  0.1510  0.2433  0.1333
 1036loPI   C2B16246  10.448   2.089   6.727 -0.0456 -0.0894 -0.0667
 1036loPI   C3B16247  10.420   2.031   7.131  0.1760  0.1176 -0.0768
 1036loPI   C4B16248  10.496   2.013   7.514  0.0193  0.2361 -0.0986
 1037loPI    C116249   9.894   5.259   5.849 -0.0620 -0.0047  0.1581
 1037loPI    C216250   9.752   4.891   5.915 -0.1029 -0.0089  0.0474
 1037loPI    C316251   9.841   5.007   5.543 -0.1373  0.1102  0.0762
 1037loPI   PO416252  10.168   5.305   6.070  0.1941 -0.0417 -0.1583
 1037loPI   GL116253  10.174   5.246   6.470 -0.2117  0.1031  0.2607
 1037loPI   GL216254  10.303   5.044   6.664  0.1875 -0.2848 -0.2636
 1037loPI   C1A16255  10.247   5.468   6.870  0.1397  0.0187 -0.3544
 1037loPI   C2A16256  10.323   5.287   7.244  0.0813 -0.1346 -0.0163
 1037loPI   C3A16257  10.207   5.202   7.635  0.2076  0.1713 -0.1125
 1037loPI   C4A16258  10.420   5.126   8.061 -0.1403  0.1853 -0.0952
 1037loPI   C5A16259  10.512   5.085   8.517  0.0754 -0.0458  0.0469
 1037loPI   C6A16260  10.570   4.908   8.937 -0.1983 -0.4494  0.0436
 1037loPI   C1B16261  10.646   5.097   6.822 -0.1230  0.0026  0.0452
 1037loPI   C2B16262  10.822   5.073   7.169  0.0911 -0.1950  0.2731
 1037loPI   C3B16263  10.771   4.991   7.644 -0.3611 -0.0455  0.0016
 1037loPI   C4B16264  10.846   4.835   8.069 -0.0400 -0.0300  0.1473
 1038loPI    C116265   5.739   1.566   5.900 -0.1744 -0.1041 -0.1814
 1038loPI    C216266   6.137   1.589   5.931 -0.1681 -0.4481  0.0568
 1038loPI    C316267   5.961   1.641   5.576  0.0550  0.0734  0.0118
 1038loPI   PO416268   5.530   1.595   6.169  0.2317  0.0943  0.0541
 1038loPI   GL116269   5.438   1.309   6.543 -0.2222 -0.0008  0.1975
 1038loPI   GL216270   5.239   1.496   6.670  0.3578  0.1713 -0.0442
 1038loPI   C1A16271   5.507   1.200   6.969 -0.0733  0.0484  0.3515
 1038loPI   C2A16272   5.380   1.090   7.276  0.0519 -0.0191  0.4016
 1038loPI   C3A16273   5.203   1.098   7.648 -0.0619 -0.0378  0.3413
 1038loPI   C4A16274   5.086   1.425   7.948 -0.1672  0.0322  0.0571
 1038loPI   C5A16275   4.916   1.775   8.039  0.1977 -0.1546 -0.0934
 1038loPI   C6A16276   5.234   2.126   8.200 -0.0875  0.1183 -0.1402
 1038loPI   C1B16277   5.160   1.527   7.088  0.0932 -0.0147 -0.1109
 1038loPI   C2B16278   5.243   1.643   7.543 -0.0395  0.0221  0.1931
 1038loPI   C3B16279   5.395   1.997   7.684 -0.2868  0.1860 -0.0495
 1038loPI   C4B16280   5.399   2.462   7.920 -0.2182  0.1412  0.0572
 1039loPI    C116281  10.158  16.085   5.314  0.0317 -0.0459  0.0342
 1039loPI    C216282  10.315  16.444   5.391 -0.0302 -0.0390  0.1298
 1039loPI    C316283  10.506  16.191   5.147  0.1101 -0.0163  0.2147
 1039loPI   PO416284  10.152  15.999   5.572 -0.2142  0.1272 -0.1818
 1039loPI   GL116285  10.378  15.638   5.812  0.0067  0.0663  0.0716
 1039loPI   GL216286  10.594  15.771   5.980 -0.1484  0.0114  0.0562
 1039loPI   C1A16287  10.034  15.692   6.133  0.0420 -0.1298  0.1254
 1039loPI   C2A16288   9.952  15.727   6.563 -0.1851  0.2954 -0.2287
 1039loPI   C3A16289  10.022  15.619   6.988 -0.1023  0.0029  0.1746
 1039loPI   C4A16290  10.133  15.559   7.476  0.0126 -0.0391  0.0250
 1039loPI   C5A16291  10.171  15.471   7.787 -0.0866 -0.0983 -0.0094
 1039loPI   C6A16292  10.376  15.529   8.185 -0.0661 -0.1561  0.1205
 1039loPI   C1B16293  10.457  15.876   6.363 -0.1407  0.0787 -0.0011
 1039loPI   C2B16294  10.530  15.994   6.822  0.1002 -0.2258  0.1822
 1039loPI   C3B16295  10.493  15.911   7.313 -0.1170  0.1039 -0.0153
 1039loPI   C4B16296  10.588  15.929   7.795  0.0130  0.1259  0.0666
 1040loPI    C116297   3.512  17.163   5.800 -0.1166 -0.1697 -0.1145
 1040loPI    C216298   3.858  17.020   5.660 -0.0345 -0.0353 -0.0510
 1040loPI    C316299   3.512  16.860   5.539  0.0475 -0.1361 -0.1546
 1040loPI   PO416300   3.600  17.402   5.889  0.0923  0.0296 -0.1780
 1040loPI   GL116301   3.663  17.479   6.257 -0.3380 -0.0562 -0.0938
 1040loPI   GL216302   3.734  17.021   6.217  0.0663 -0.1713  0.0625
 1040loPI   C1A16303   3.616  17.305   6.698 -0.1517 -0.0637  0.0605
 1040loPI   C2A16304   3.651  17.376   7.131 -0.2193 -0.0708  0.1811
 1040loPI   C3A16305   3.492  17.360   7.528  0.1363 -0.1037 -0.1172
 1040loPI   C4A16306   3.673  17.291   7.960  0.0202  0.0818  0.5021
 1040loPI   C5A16307   3.862  17.022   8.267  0.0006  0.1778 -0.1861
 1040loPI   C6A16308   3.882  16.839   8.648 -0.0768  0.0910 -0.4280
 1040loPI   C1B16309   3.652  16.832   6.718 -0.1663 -0.0678  0.2798
 1040loPI   C2B16310   3.585  16.851   7.213 -0.2394 -0.1726  0.1448
 1040loPI   C3B16311   3.698  16.902   7.597 -0.1923  0.0546 -0.2243
 1040loPI   C4B16312   3.429  16.896   7.848 -0.1232 -0.0565 -0.2187
 1041loPI    C116313   2.484   1.414   5.662 -0.1130 -0.0546 -0.1635
 1041loPI    C216314   2.860   1.285   5.708 -0.1251  0.0086  0.1323
 1041loPI    C316315   2.661   1.205   5.371  0.1429 -0.0497 -0.0150
 1041loPI   PO416316   2.396   1.390   5.943  0.0351  0.0046  0.0345
 1041loPI   GL116317   2.503   1.542   6.383 -0.0019 -0.1977  0.0527
 1041loPI   GL216318   2.372   1.245   6.421 -0.0307  0.4371 -0.0699
 1041loPI   C1A16319   2.582   1.497   6.815 -0.1151 -0.1356 -0.1107
 1041loPI   C2A16320   2.450   1.447   7.207 -0.0403 -0.1239 -0.0036
 1041loPI   C3A16321   2.542   1.425   7.695 -0.2727  0.0175  0.1004
 1041loPI   C4A16322   2.623   1.397   8.124  0.0358  0.0901  0.2407
 1041loPI   C5A16323   2.376   1.425   8.458 -0.0084 -0.1799 -0.4255
 1041loPI   C6A16324   2.048   1.209   8.474 -0.1088 -0.1361 -0.1551
 1041loPI   C1B16325   2.104   1.157   6.805  0.0272  0.0254  0.1448
 1041loPI   C2B16326   2.033   1.145   7.233 -0.1265  0.1006  0.1491
 1041loPI   C3B16327   2.130   1.043   7.629  0.1289 -0.0573 -0.0030
 1041loPI   C4B16328   2.069   0.930   8.009 -0.0988  0.2711  0.2886
 1042loPI    C116329   0.460   9.007   5.024 -0.0370 -0.0992  0.0365
 1042loPI    C216330   0.650   9.218   4.743 -0.0182 -0.0937  0.0533
 1042loPI    C316331   0.251   9.200   4.744 -0.0201 -0.0518  0.0565
 1042loPI   PO416332   0.541   9.057   5.347 -0.3120  0.1728  0.0393
 1042loPI   GL116333   0.312   9.108   5.771  0.0220  0.0281  0.1304
 1042loPI   GL216334   0.384   9.291   5.953  0.1261  0.0932 -0.1339
 1042loPI   C1A16335   0.707   8.917   6.114 -0.1407 -0.5351  0.4487
 1042loPI   C2A16336   0.715   8.786   6.515 -0.2911  0.2599  0.1106
 1042loPI   C3A16337   0.812   8.690   6.940 -0.1749 -0.1293 -0.1834
 1042loPI   C4A16338   0.929   8.828   7.397  0.4725 -0.0649 -0.1231
 1042loPI   C5A16339   0.890   8.783   7.834 -0.2341 -0.2424 -0.1692
 1042loPI   C6A16340   0.634   9.057   8.193  0.0761  0.1472  0.2894
 1042loPI   C1B16341   0.261   9.139   6.451  0.0208 -0.1336  0.0209
 1042loPI   C2B16342   0.293   9.089   6.829  0.0746 -0.0629  0.2260
 1042loPI   C3B16343   0.514   8.994   7.190  0.1050 -0.0591 -0.0276
 1042loPI   C4B16344   0.428   9.043   7.653  0.1044 -0.1631 -0.0381
 1043loPI    C116345   8.507  12.515   5.258 -0.3364  0.2057 -0.2879
 1043loPI    C216346   8.811  12.769   5.203  0.1474 -0.2599  0.1174
 1043loPI    C316347   8.781  12.442   4.975 -0.1322 -0.1512 -0.0066
 1043loPI   PO416348   8.380  12.641   5.446 -0.1541  0.3279 -0.1803
 1043loPI   GL116349   8.457  12.658   5.934 -0.0808  0.1496 -0.1472
 1043loPI   GL216350   8.274  12.711   6.059 -0.1415  0.1124 -0.0153
 1043loPI   C1A16351   8.709  12.659   6.322  0.4329  0.0587 -0.2169
 1043loPI   C2A16352   8.793  12.676   6.741  0.0979 -0.0993  0.1810
 1043loPI   C3A16353   8.833  12.647   7.119  0.0050 -0.0741 -0.0323
 1043loPI   C4A16354   8.828  12.637   7.526  0.2625 -0.2818 -0.0060
 1043loPI   C5A16355   8.803  12.591   7.988  0.0498  0.0203 -0.0876
 1043loPI   C6A16356   8.859  12.571   8.500 -0.0863  0.1835 -0.0182
 1043loPI   C1B16357   8.306  12.897   6.474  0.0976  0.1606  0.2986
 1043loPI   C2B16358   8.373  12.893   6.905 -0.0705 -0.0867  0.1598
 1043loPI   C3B16359   8.342  12.889   7.289 -0.0093 -0.0392 -0.1211
 1043loPI   C4B16360   8.342  12.875   7.786  0.0427  0.1001 -0.1715
 1044loPI    C116361   4.540   6.048   5.743  0.1246 -0.0156 -0.0184
 1044loPI    C216362   4.410   5.670   5.720  0.1313 -0.0241  0.0782
 1044loPI    C316363   4.310   5.934   5.436 -0.1532 -0.0136  0.1854
 1044loPI   PO416364   4.863   5.960   5.829 -0.1724 -0.0960 -0.1666
 1044loPI   GL116365   4.987   6.197   6.255 -0.0687  0.1175 -0.3575
 1044loPI   GL216366   4.640   6.257   6.197  0.0271  0.0145 -0.2152
 1044loPI   C1A16367   5.015   6.507   6.556 -0.1460  0.0439  0.2760
 1044loPI   C2A16368   5.049   6.547   7.015  0.1653  0.2512  0.1892
 1044loPI   C3A16369   5.090   6.617   7.397 -0.2122 -0.0529  0.0224
 1044loPI   C4A16370   5.142   6.529   7.775  0.1874  0.1332 -0.0538
 1044loPI   C5A16371   5.083   6.499   8.169  0.0517  0.2593 -0.1103
 1044loPI   C6A16372   5.154   6.145   8.432  0.2302 -0.2227  0.2394
 1044loPI   C1B16373   4.528   6.515   6.548  0.1866 -0.2405 -0.1597
 1044loPI   C2B16374   4.450   6.796   6.842 -0.1912 -0.0652 -0.4177
 1044loPI   C3B16375   4.568   6.727   7.336  0.0516 -0.0333 -0.0522
 1044loPI   C4B16376   4.745   6.790   7.822  0.1236 -0.0278 -0.1514
 1045loPI    C116377  13.840  13.011   5.180  0.0469 -0.2219  0.1716
 1045loPI    C216378  13.551  12.969   4.906  0.0056  0.0988  0.1628
 1045loPI    C316379  13.934  12.910   4.804 -0.0097  0.2150  0.0344
 1045loPI   PO416380  13.730  12.919   5.379  0.1679 -0.1436  0.0846
 1045loPI   GL116381  13.724  12.954   5.748 -0.0630  0.4056 -0.2678
 1045loPI   GL216382  13.643  13.229   5.907 -0.0318 -0.1067  0.0643
 1045loPI   C1A16383  14.074  12.899   6.198 -0.1535  0.4592  0.0356
 1045loPI   C2A16384  14.183  12.905   6.589 -0.2225  0.2998  0.1331
 1045loPI   C3A16385  14.129  12.920   6.986 -0.0164 -0.1028 -0.2088
 1045loPI   C4A16386  14.127  12.835   7.384  0.1015 -0.1099  0.3940
 1045loPI   C5A16387  14.113  12.803   7.828  0.2827  0.0153  0.1743
 1045loPI   C6A16388  14.126  12.531   8.226 -0.0754 -0.1843  0.0228
 1045loPI   C1B16389  13.696  13.128   6.278  0.4295 -0.0785 -0.0097
 1045loPI   C2B16390  13.657  13.148   6.709 -0.1549  0.1667  0.0536
 1045loPI   C3B16391  13.712  13.126   7.162 -0.3045 -0.1697  0.3920
 1045loPI   C4B16392  13.703  13.015   7.532  0.2337 -0.2114  0.1261
 1046loPI    C116393  12.936   1.199   5.440 -0.1580 -0.1122 -0.0775
 1046loPI    C216394  13.186   1.454   5.261 -0.2107  0.0535  0.0822
 1046loPI    C316395  13.014   1.162   5.050 -0.1890  0.1803 -0.1135
 1046loPI   PO416396  12.995   1.092   5.620  0.1712 -0.0204 -0.0859
 1046loPI   GL116397  12.950   1.221   5.992  0.1232  0.3631 -0.0125
 1046loPI   GL216398  13.062   0.876   6.009  0.1528 -0.1754 -0.1238
 1046loPI   C1A16399  13.069   1.247   6.446  0.3417  0.1694 -0.1382
 1046loPI   C2A16400  13.060   1.221   6.852  0.2183  0.0894 -0.2836
 1046loPI   C3A16401  13.118   1.117   7.306  0.1780 -0.0351  0.0048
 1046loPI   C4A16402  13.111   1.042   7.746 -0.1183 -0.2067 -0.0165
 1046loPI   C5A16403  13.168   1.099   8.109 -0.1410 -0.1345  0.0694
 1046loPI   C6A16404  13.053   1.213   8.527 -0.1868 -0.0071 -0.1655
 1046loPI   C1B16405  13.108   0.765   6.321 -0.2614  0.1904 -0.2126
 1046loPI   C2B16406  13.052   0.744   6.772 -0.1926  0.0378  0.0238
 1046loPI   C3B16407  13.053   0.613   7.175 -0.0957 -0.2883  0.0149
 1046loPI   C4B16408  13.096   0.535   7.568  0.1352 -0.3235 -0.0106
 1047loPI    C116409   8.062   6.536   5.928 -0.0192 -0.0790  0.0595
 1047loPI    C216410   7.693   6.598   5.786  0.0194 -0.0669 -0.0365
 1047loPI    C316411   7.998   6.539   5.533  0.0595 -0.2157  0.0450
 1047loPI   PO416412   8.056   6.346   6.142  0.2470  0.2659 -0.1400
 1047loPI   GL116413   8.223   6.276   6.510  0.1663 -0.1286  0.0415
 1047loPI   GL216414   8.591   6.353   6.596  0.0042 -0.1315 -0.0891
 1047loPI   C1A16415   8.245   6.425   6.984 -0.0179  0.1393  0.1060
 1047loPI   C2A16416   8.577   6.523   7.282  0.1225  0.1010  0.1810
 1047loPI   C3A16417   8.581   6.817   7.578  0.0589 -0.1643  0.0317
 1047loPI   C4A16418   8.584   7.165   7.870  0.0831 -0.0999  0.0121
 1047loPI   C5A16419   8.753   7.320   8.210 -0.0351 -0.2331  0.2409
 1047loPI   C6A16420   8.696   6.995   8.558  0.1763 -0.3248 -0.0678
 1047loPI   C1B16421   8.620   6.735   6.839 -0.2352  0.0789  0.0353
 1047loPI   C2B16422   8.631   7.066   7.055 -0.0806 -0.1609 -0.0624
 1047loPI   C3B16423   8.793   7.357   7.318  0.1341  0.2193  0.1325
 1047loPI   C4B16424   8.752   7.592   7.716  0.0293  0.2064 -0.0463
 1048loPI    C116425  15.819   2.591   5.442 -0.0283 -0.1354 -0.0168
 1048loPI    C216426  16.081   2.309   5.332  0.0492 -0.0440 -0.0694
 1048loPI    C316427  16.015   2.624   5.095 -0.0335 -0.0151 -0.0089
 1048loPI   PO416428  15.829   2.546   5.700  0.0637 -0.0377 -0.1772
 1048loPI   GL116429  15.553   2.652   5.907 -0.0962 -0.1088 -0.4406
 1048loPI   GL216430  15.652   2.376   6.190 -0.0856  0.3085 -0.2099
 1048loPI   C1A16431  15.717   2.862   6.286 -0.0266 -0.2505 -0.0645
 1048loPI   C2A16432  15.684   2.817   6.787  0.0810  0.0569 -0.1634
 1048loPI   C3A16433  15.711   2.875   7.298 -0.4679 -0.0470 -0.0913
 1048loPI   C4A16434  15.783   2.773   7.718 -0.0658  0.2245 -0.0656
 1048loPI   C5A16435  15.974   2.779   8.129  0.4217 -0.2308 -0.0498
 1048loPI   C6A16436  16.299   2.711   8.323 -0.1322  0.0426 -0.0637
 1048loPI   C1B16437  15.623   2.366   6.641 -0.1786  0.1054 -0.0378
 1048loPI   C2B16438  15.678   2.307   6.996  0.2794  0.0385 -0.1024
 1048loPI   C3B16439  15.744   2.190   7.515  0.0257  0.0829  0.2527
 1048loPI   C4B16440  15.765   2.260   7.929 -0.0786  0.0238 -0.0955
 1049loPI    C116441  10.208   4.375   5.889 -0.1872  0.0345  0.1486
 1049loPI    C216442  10.369   4.500   5.545  0.0271 -0.1637  0.1740
 1049loPI    C316443   9.971   4.490   5.588  0.0011  0.3191  0.1054
 1049loPI   PO416444  10.457   4.489   6.099 -0.0554 -0.3028 -0.0731
 1049loPI   GL116445  10.505   4.603   6.555  0.2316  0.1863 -0.1011
 1049loPI   GL216446  10.157   4.427   6.707 -0.3421 -0.1284  0.2289
 1049loPI   C1A16447  10.577   4.591   7.026 -0.3159  0.2006 -0.1230
 1049loPI   C2A16448  10.787   4.521   7.390 -0.0018 -0.2578  0.2102
 1049loPI   C3A16449  10.775   4.350   7.807  0.0446 -0.2008 -0.0405
 1049loPI   C4A16450  10.877   4.325   8.193 -0.1989  0.1205 -0.1014
 1049loPI   C5A16451  10.781   4.076   8.554 -0.1017  0.0181  0.0370
 1049loPI   C6A16452  10.786   3.971   9.062  0.0012  0.2873 -0.2087
 1049loPI   C1B16453  10.260   4.179   6.951 -0.0058 -0.0752 -0.3820
 1049loPI   C2B16454  10.358   4.191   7.397 -0.4816 -0.1991  0.6123
 1049loPI   C3B16455  10.285   4.191   7.816  0.0189  0.4157  0.5172
 1049loPI   C4B16456  10.328   4.069   8.320 -0.3209  0.1162  0.0440
 1050loPI    C116457   7.415   7.894   5.501 -0.0709  0.1121  0.0175
 1050loPI    C216458   7.315   7.510   5.549 -0.2164  0.1355 -0.0915
 1050loPI    C316459   7.128   7.732   5.274  0.0239  0.2247 -0.1853
 1050loPI   PO416460   7.536   8.000   5.725 -0.3269 -0.3416  0.2299
 1050loPI   GL116461   7.512   8.249   6.055 -0.3863  0.0188  0.0130
 1050loPI   GL216462   7.764   8.470   6.076  0.1630  0.0724  0.3610
 1050loPI   C1A16463   7.391   8.410   6.448  0.0976 -0.0832 -0.0265
 1050loPI   C2A16464   7.493   8.558   6.799 -0.1115 -0.0143  0.1051
 1050loPI   C3A16465   7.503   8.725   7.156 -0.0854  0.0899 -0.4750
 1050loPI   C4A16466   7.454   8.767   7.571  0.0563  0.0881 -0.3149
 1050loPI   C5A16467   7.503   8.759   7.992 -0.0762  0.1428 -0.0293
 1050loPI   C6A16468   7.565   9.022   8.368  0.0621  0.1315 -0.0152
 1050loPI   C1B16469   7.859   8.460   6.508  0.0759  0.2694 -0.1271
 1050loPI   C2B16470   7.929   8.542   6.966 -0.1731 -0.0077  0.3960
 1050loPI   C3B16471   7.921   8.583   7.330  0.1153  0.0341  0.1884
 1050loPI   C4B16472   8.175   8.389   7.598  0.0145 -0.2599  0.1894
 1051loPI    C116473   4.048   6.639   5.233 -0.0478 -0.0233 -0.2250
 1051loPI    C216474   4.341   6.373   5.175 -0.0072 -0.0354  0.0241
 1051loPI    C316475   4.068   6.435   4.890  0.1613 -0.1189 -0.1579
 1051loPI   PO416476   4.174   6.833   5.392  0.1531  0.1626 -0.0534
 1051loPI   GL116477   4.177   6.935   5.845 -0.1891 -0.0761  0.1403
 1051loPI   GL216478   4.271   6.695   6.102 -0.1015 -0.0346 -0.0328
 1051loPI   C1A16479   4.009   7.101   6.318  0.4292  0.1402  0.1744
 1051loPI   C2A16480   3.973   7.027   6.751  0.0205  0.1535 -0.0363
 1051loPI   C3A16481   4.048   7.017   7.277  0.1407 -0.1380 -0.0846
 1051loPI   C4A16482   3.898   7.085   7.696  0.1253 -0.0923 -0.0535
 1051loPI   C5A16483   3.689   7.185   8.100 -0.0673 -0.3747 -0.0386
 1051loPI   C6A16484   3.617   7.454   8.498 -0.3717  0.0235 -0.1752
 1051loPI   C1B16485   4.049   6.580   6.481  0.0575  0.0267 -0.0480
 1051loPI   C2B16486   4.038   6.588   7.018 -0.0275  0.2698 -0.0861
 1051loPI   C3B16487   4.046   6.593   7.452 -0.1882  0.1070 -0.3306
 1051loPI   C4B16488   4.255   6.635   7.828 -0.1019  0.0631  0.1735
 1052loPI    C116489   3.484   4.304   5.756 -0.0814  0.2542 -0.1370
 1052loPI    C216490   3.356   4.403   5.390  0.0959  0.2691 -0.1957
 1052loPI    C316491   3.747   4.358   5.460  0.0685  0.3409  0.0108
 1052loPI   PO416492   3.347   4.491   5.919  0.0506 -0.0754  0.2348
 1052loPI   GL116493   3.470   4.832   6.138 -0.0335  0.0092  0.2382
 1052loPI   GL216494   3.162   4.872   6.182  0.0483  0.0113 -0.0791
 1052loPI   C1A16495   3.569   4.940   6.517 -0.1195  0.0257 -0.0648
 1052loPI   C2A16496   3.402   5.100   6.922 -0.1485 -0.0952  0.0267
 1052loPI   C3A16497   3.288   4.992   7.197  0.0652 -0.2304  0.1475
 1052loPI   C4A16498   3.324   4.598   7.443  0.1130 -0.1402 -0.0866
 1052loPI   C5A16499   3.356   4.420   7.822 -0.1260 -0.0516 -0.2157
 1052loPI   C6A16500   3.065   4.407   8.193  0.0449 -0.1595  0.0531
 1052loPI   C1B16501   3.088   4.785   6.589  0.0408  0.0472  0.1267
 1052loPI   C2B16502   2.988   4.667   7.035 -0.3933 -0.1242  0.0528
 1052loPI   C3B16503   2.867   4.483   7.441  0.0745  0.1069  0.0042
 1052loPI   C4B16504   2.769   4.361   7.789 -0.0307 -0.2264  0.4675
 1053loPI    C116505  14.949  10.540   5.071  0.0127 -0.0937 -0.3000
 1053loPI    C216506  14.907  10.873   4.854 -0.2727  0.0854  0.0203
 1053loPI    C316507  14.645  10.574   4.814 -0.1359 -0.0179 -0.1165
 1053loPI   PO416508  14.997  10.647   5.364  0.0455  0.0969  0.1172
 1053loPI   GL116509  14.919  10.743   5.807  0.0801 -0.0384  0.0950
 1053loPI   GL216510  15.132  10.353   5.870  0.0737 -0.2371  0.1774
 1053loPI   C1A16511  14.768  10.647   6.156  0.0481  0.2179  0.0984
 1053loPI   C2A16512  14.732  10.530   6.569 -0.0482  0.3003 -0.2832
 1053loPI   C3A16513  14.650  10.480   6.964  0.1987  0.1316  0.2862
 1053loPI   C4A16514  14.687  10.479   7.404 -0.0939  0.0133  0.0921
 1053loPI   C5A16515  14.620  10.558   7.926 -0.4072  0.0120  0.1466
 1053loPI   C6A16516  14.613  10.609   8.286 -0.0726 -0.2296 -0.0217
 1053loPI   C1B16517  15.110  10.312   6.324 -0.0771 -0.3415 -0.1267
 1053loPI   C2B16518  15.155  10.316   6.764 -0.1045 -0.1275 -0.2274
 1053loPI   C3B16519  15.108  10.277   7.198  0.0621  0.4714 -0.1254
 1053loPI   C4B16520  15.117  10.335   7.717  0.0362  0.1826  0.2152
 1054loPI    C116521   7.408   2.992   5.903 -0.2154  0.0755 -0.1253
 1054loPI    C216522   7.112   2.867   5.665 -0.2217 -0.0802 -0.0372
 1054loPI    C316523   7.489   2.758   5.589 -0.2498 -0.3152  0.1500
 1054loPI   PO416524   7.327   2.917   6.150 -0.0403 -0.2036  0.1826
 1054loPI   GL116525   7.344   2.876   6.649 -0.3123 -0.0175 -0.5040
 1054loPI   GL216526   7.187   2.580   6.814  0.2119 -0.0500 -0.1400
 1054loPI   C1A16527   7.527   2.719   7.125 -0.1648 -0.0938  0.1308
 1054loPI   C2A16528   7.498   2.591   7.572 -0.1327  0.2299  0.0874
 1054loPI   C3A16529   7.737   2.181   7.646  0.1271  0.3103  0.0360
 1054loPI   C4A16530   8.088   2.135   7.678 -0.1937 -0.1028 -0.0613
 1054loPI   C5A16531   8.355   1.910   7.679 -0.2380 -0.0752  0.2390
 1054loPI   C6A16532   8.628   1.640   7.511  0.0974 -0.1389  0.1234
 1054loPI   C1B16533   7.163   2.197   6.796 -0.0918  0.3450 -0.1350
 1054loPI   C2B16534   7.055   1.828   6.849  0.0036 -0.0406  0.0592
 1054loPI   C3B16535   6.832   1.903   7.144 -0.0556  0.0320  0.0694
 1054loPI   C4B16536   6.731   1.952   7.593 -0.1375 -0.0792  0.1230
 1055loPI    C116537   1.066   5.001   5.356  0.1222 -0.1199  0.1093
 1055loPI    C216538   0.820   4.755   5.158  0.0538 -0.0150  0.0629
 1055loPI    C316539   1.148   4.899   4.978  0.0630 -0.0263  0.0706
 1055loPI   PO416540   0.976   5.038   5.736 -0.0578 -0.0404  0.1591
 1055loPI   GL116541   0.676   5.076   6.010 -0.2660 -0.3633 -0.2086
 1055loPI   GL216542   0.570   4.873   6.267  0.0946 -0.0749  0.1204
 1055loPI   C1A16543   0.948   5.263   6.411 -0.0895 -0.2995 -0.1509
 1055loPI   C2A16544   0.843   5.259   6.931 -0.0086  0.0980 -0.0379
 1055loPI   C3A16545   0.983   5.282   7.359 -0.0987  0.0835 -0.3465
 1055loPI   C4A16546   0.855   5.345   7.755 -0.0866  0.3167  0.0379
 1055loPI   C5A16547   0.615   5.227   8.098  0.0909  0.2563  0.3111
 1055loPI   C6A16548   0.605   5.095   8.518  0.2673  0.2479  0.0485
 1055loPI   C1B16549   0.432   5.039   6.700 -0.0192  0.0458  0.2734
 1055loPI   C2B16550   0.421   4.943   7.128 -0.1674  0.0496 -0.0079
 1055loPI   C3B16551   0.442   5.061   7.602  0.0954 -0.0015 -0.4925
 1055loPI   C4B16552   0.566   4.770   7.853 -0.0471  0.0058  0.2204
 1056loPI    C116553   8.691  17.714   5.544  0.2462 -0.0958 -0.0531
 1056loPI    C216554   8.466  17.882   5.260  0.2175  0.1824  0.1299
 1056loPI    C316555   8.830  17.744   5.171  0.1003  0.0146 -0.0997
 1056loPI   PO416556   8.424  17.663   5.745  0.1688  0.2530  0.1848
 1056loPI   GL116557   8.450  17.731   6.091 -0.0109 -0.1951 -0.0697
 1056loPI   GL216558   8.246  17.740   6.430 -0.3397  0.0240  0.1353
 1056loPI   C1A16559   8.893  17.868   6.317 -0.3081  0.1929  0.0427
 1056loPI   C2A16560   9.019  17.731   6.735 -0.1183  0.0207 -0.0552
 1056loPI   C3A16561   9.115  17.692   7.101 -0.3040 -0.2364 -0.2172
 1056loPI   C4A16562   9.092  17.634   7.575 -0.0105 -0.1687  0.0091
 1056loPI   C5A16563   9.152  17.604   7.997 -0.0847 -0.1707  0.0601
 1056loPI   C6A16564   9.239  17.816   8.211  0.0194  0.0618 -0.0946
 1056loPI   C1B16565   8.549  17.484   6.583  0.1918  0.0660  0.1652
 1056loPI   C2B16566   8.617  17.421   6.963  0.0870  0.1897  0.2289
 1056loPI   C3B16567   8.671  17.367   7.446 -0.0115 -0.0915 -0.2096
 1056loPI   C4B16568   8.706  17.279   7.873 -0.1771  0.0783  0.1100
 1057loPI    C116569  13.245   4.044   5.656 -0.0270 -0.1692 -0.2490
 1057loPI    C216570  13.121   3.986   5.281 -0.3354 -0.1721 -0.1495
 1057loPI    C316571  12.854   4.008   5.578 -0.1198  0.1837  0.0244
 1057loPI   PO416572  13.486   3.871   5.677  0.1402  0.2072 -0.0453
 1057loPI   GL116573  13.518   3.864   6.156 -0.3153 -0.0562  0.1553
 1057loPI   GL216574  13.415   3.539   6.211  0.1745  0.0370 -0.1025
 1057loPI   C1A16575  13.413   4.036   6.538 -0.1542 -0.2870 -0.0557
 1057loPI   C2A16576  13.375   4.074   6.920 -0.1019 -0.2773 -0.0824
 1057loPI   C3A16577  13.506   4.078   7.390 -0.0821 -0.0173  0.0091
 1057loPI   C4A16578  13.590   4.185   7.865  0.2129 -0.3439  0.0146
 1057loPI   C5A16579  13.893   4.282   8.191 -0.2563 -0.1131 -0.1294
 1057loPI   C6A16580  14.193   4.284   8.390 -0.1330  0.0999  0.3157
 1057loPI   C1B16581  13.404   3.552   6.560 -0.0994  0.3584 -0.2075
 1057loPI   C2B16582  13.303   3.561   6.989  0.0679  0.1724  0.0243
 1057loPI   C3B16583  13.450   3.514   7.483 -0.1175  0.1026  0.0174
 1057loPI   C4B16584  13.457   3.460   7.935 -0.2104  0.0587 -0.0988
 1058loPI    C116585  13.912   6.871   4.964 -0.1027  0.1189 -0.3203
 1058loPI    C216586  14.074   6.713   4.635  0.1212 -0.1291 -0.0958
 1058loPI    C316587  14.274   6.990   4.842 -0.0981  0.1615 -0.2655
 1058loPI   PO416588  13.891   6.704   5.140  0.1938  0.2109 -0.1371
 1058loPI   GL116589  13.884   6.700   5.639  0.0285 -0.0436 -0.1436
 1058loPI   GL216590  13.859   7.025   5.823  0.1913 -0.1483 -0.4200
 1058loPI   C1A16591  14.262   6.795   5.888  0.2154  0.1878 -0.1362
 1058loPI   C2A16592  14.220   6.701   6.333  0.2963  0.2244 -0.1272
 1058loPI   C3A16593  14.289   6.667   6.794  0.1324 -0.3025 -0.0397
 1058loPI   C4A16594  14.221   6.625   7.285  0.0403  0.2147  0.2492
 1058loPI   C5A16595  14.271   6.766   7.742  0.0689  0.0559 -0.3000
 1058loPI   C6A16596  14.101   6.492   8.119 -0.2036  0.1092 -0.0149
 1058loPI   C1B16597  13.823   6.998   6.227  0.0893  0.0917 -0.3154
 1058loPI   C2B16598  13.754   6.893   6.663 -0.1617  0.0359  0.0165
 1058loPI   C3B16599  13.877   6.951   7.120 -0.2906  0.0515  0.0777
 1058loPI   C4B16600  13.825   6.895   7.544 -0.1328 -0.1647 -0.3216
 1059loPI    C116601  14.880   7.643   5.077  0.2815 -0.2154  0.3030
 1059loPI    C216602  15.075   7.566   4.736 -0.0123  0.0596  0.0674
 1059loPI    C316603  14.730   7.380   4.816 -0.1332  0.2677  0.0381
 1059loPI   PO416604  14.998   7.631   5.226 -0.0050  0.1773 -0.0767
 1059loPI   GL116605  14.935   7.551   5.787  0.1211 -0.0090 -0.3867
 1059loPI   GL216606  15.047   7.752   5.781  0.2168  0.0358  0.1003
 1059loPI   C1A16607  14.727   7.493   6.107 -0.2140 -0.0951 -0.1387
 1059loPI   C2A16608  14.587   7.494   6.541  0.4139  0.1800  0.2413
 1059loPI   C3A16609  14.707   7.515   6.921  0.2875  0.1776 -0.0374
 1059loPI   C4A16610  14.734   7.422   7.410  0.1587 -0.1737  0.0067
 1059loPI   C5A16611  14.712   7.388   7.862  0.1614  0.0148  0.0867
 1059loPI   C6A16612  14.486   7.295   8.261  0.0246 -0.2504  0.0203
 1059loPI   C1B16613  15.092   7.797   6.253 -0.1651 -0.1180 -0.0846
 1059loPI   C2B16614  15.212   7.789   6.742 -0.1573  0.0579  0.2915
 1059loPI   C3B16615  15.162   7.718   7.151  0.3128 -0.0967 -0.2487
 1059loPI   C4B16616  15.157   7.571   7.614 -0.0241 -0.0899  0.4098
 1060loPI    C116617   6.729   6.054   6.488  0.1749  0.2687 -0.0286
 1060loPI    C216618   6.781   6.209   6.123  0.1379  0.3306 -0.0078
 1060loPI    C316619   6.419   6.081   6.237  0.1841  0.1576 -0.0522
 1060loPI   PO416620   6.846   5.826   6.526  0.2255  0.0503  0.3281
 1060loPI   GL116621   6.689   5.613   6.736 -0.2295 -0.1735 -0.0568
 1060loPI   GL216622   6.419   5.413   6.834  0.3076 -0.1244 -0.0610
 1060loPI   C1A16623   6.656   5.590   7.238 -0.1635 -0.1100 -0.1750
 1060loPI   C2A16624   6.707   5.583   7.678  0.1659  0.1077 -0.3407
 1060loPI   C3A16625   6.750   5.676   8.128  0.1588  0.1347 -0.0904
 1060loPI   C4A16626   7.070   5.457   8.409  0.2753  0.1995 -0.3050
 1060loPI   C5A16627   7.446   5.453   8.614 -0.2891 -0.1070  0.0741
 1060loPI   C6A16628   7.742   5.683   8.730 -0.0435 -0.1401  0.1770
 1060loPI   C1B16629   6.193   5.496   7.101  0.2770  0.1802 -0.2255
 1060loPI   C2B16630   6.198   5.619   7.512  0.1012  0.0100 -0.2208
 1060loPI   C3B16631   6.376   5.295   7.912  0.1999 -0.2638  0.1412
 1060loPI   C4B16632   6.658   5.050   8.151 -0.1479 -0.3584 -0.0410
 1061loPI    C116633  13.958   1.259   5.640  0.0353  0.0603  0.0306
 1061loPI    C216634  14.228   1.318   5.351  0.0574 -0.3930 -0.0481
 1061loPI    C316635  13.953   1.029   5.313 -0.1757 -0.2114  0.2196
 1061loPI   PO416636  14.177   1.298   5.848 -0.1429  0.0336  0.2396
 1061loPI   GL116637  14.296   1.062   6.267 -0.0132  0.0236 -0.0216
 1061loPI   GL216638  14.454   0.904   6.504 -0.0456  0.0812  0.0226
 1061loPI   C1A16639  13.940   1.172   6.645 -0.0075  0.1090  0.5776
 1061loPI   C2A16640  13.956   1.131   7.071  0.1839 -0.3019  0.0927
 1061loPI   C3A16641  14.048   1.115   7.505 -0.1215 -0.0182  0.0388
 1061loPI   C4A16642  13.980   1.073   7.945  0.0936 -0.3484  0.2649
 1061loPI   C5A16643  13.895   0.881   8.284 -0.2201  0.2273 -0.2046
 1061loPI   C6A16644  13.564   0.595   8.515 -0.2661 -0.2202 -0.4532
 1061loPI   C1B16645  14.399   0.841   6.932  0.0115 -0.3772 -0.2752
 1061loPI   C2B16646  14.518   0.897   7.330  0.0694 -0.0001  0.0140
 1061loPI   C3B16647  14.429   0.852   7.763 -0.0152 -0.1660 -0.0388
 1061loPI   C4B16648  14.395   0.832   8.155  0.0238 -0.1444  0.2228
 1062loPI    C116649   5.673   4.990   6.259  0.1817  0.2438 -0.0325
 1062loPI    C216650   5.982   4.736   6.253 -0.1381 -0.1612  0.1716
 1062loPI    C316651   5.698   4.712   5.972  0.0083  0.2095 -0.0150
 1062loPI   PO416652   5.618   5.036   6.504 -0.0063  0.1680 -0.0164
 1062loPI   GL116653   5.745   4.865   6.896  0.0141  0.0176 -0.1989
 1062loPI   GL216654   5.978   5.064   6.960 -0.0875  0.2805  0.0427
 1062loPI   C1A16655   5.581   4.844   7.305  0.0174  0.2007 -0.0481
 1062loPI   C2A16656   5.571   4.748   7.731  0.0703 -0.0106  0.0953
 1062loPI   C3A16657   5.473   4.966   8.159  0.0124 -0.1263  0.1049
 1062loPI   C4A16658   5.786   5.142   8.553 -0.1940  0.5119  0.1007
 1062loPI   C5A16659   5.709   5.055   8.982  0.0481  0.2381 -0.0036
 1062loPI   C6A16660   5.314   5.104   9.130  0.2332 -0.0375 -0.2847
 1062loPI   C1B16661   5.979   5.089   7.497 -0.1055  0.1397  0.2578
 1062loPI   C2B16662   5.848   5.208   7.933  0.0391  0.4563  0.0500
 1062loPI   C3B16663   5.661   5.483   8.290  0.0001 -0.0605 -0.0638
 1062loPI   C4B16664   5.423   5.719   8.406  0.0080  0.0664  0.3011
 1063loPI    C116665   8.079  15.245   5.962 -0.2679 -0.2643 -0.1189
 1063loPI    C216666   7.845  15.447   6.216  0.0643 -0.1016  0.0645
 1063loPI    C316667   7.866  15.559   5.832 -0.1234 -0.0913  0.0559
 1063loPI   PO416668   8.134  15.010   6.098 -0.2805  0.0165  0.2033
 1063loPI   GL116669   8.184  15.154   6.485 -0.2158  0.1956 -0.1476
 1063loPI   GL216670   8.158  15.466   6.600 -0.0574 -0.0459  0.2490
 1063loPI   C1A16671   8.283  15.018   6.904  0.0520 -0.0155 -0.0725
 1063loPI   C2A16672   8.258  15.007   7.369  0.0228 -0.0821  0.3042
 1063loPI   C3A16673   8.265  14.922   7.818  0.1089  0.1743  0.0950
 1063loPI   C4A16674   8.425  14.899   8.191 -0.2451 -0.0454 -0.1441
 1063loPI   C5A16675   8.676  14.767   8.409 -0.0437  0.0892  0.1461
 1063loPI   C6A16676   9.069  14.768   8.625  0.1025  0.0387 -0.1749
 1063loPI   C1B16677   8.252  15.533   7.056  0.0669 -0.0832  0.1544
 1063loPI   C2B16678   8.271  15.523   7.443  0.1121 -0.0020  0.3328
 1063loPI   C3B16679   8.258  15.503   7.880 -0.0087  0.1475 -0.1055
 1063loPI   C4B16680   8.337  15.462   8.287 -0.0614  0.0899 -0.3327
 1064loPI    C116681   8.188  17.218   5.770 -0.3700  0.2918  0.2587
 1064loPI    C216682   7.802  17.182   5.670 -0.2931 -0.0765  0.0792
 1064loPI    C316683   8.028  17.461   5.495 -0.4126 -0.0385 -0.0156
 1064loPI   PO416684   8.201  17.190   5.931 -0.1093 -0.0896  0.2122
 1064loPI   GL116685   8.354  17.093   6.238  0.1671  0.2084 -0.2997
 1064loPI   GL216686   8.684  16.989   6.231  0.0823  0.3350  0.0038
 1064loPI   C1A16687   8.156  17.120   6.749 -0.4017 -0.0915  0.0426
 1064loPI   C2A16688   8.249  17.111   7.234 -0.0868 -0.0488 -0.2083
 1064loPI   C3A16689   8.230  17.093   7.618 -0.3569  0.1137 -0.3577
 1064loPI   C4A16690   8.293  17.000   8.064 -0.1422  0.1482  0.2499
 1064loPI   C5A16691   8.540  17.254   8.330  0.1123  0.0207 -0.3256
 1064loPI   C6A16692   8.757  17.368   8.725 -0.0536  0.3220 -0.1964
 1064loPI   C1B16693   8.626  16.968   6.623 -0.0621 -0.0128 -0.4481
 1064loPI   C2B16694   8.768  16.941   7.025  0.1322 -0.0150 -0.1957
 1064loPI   C3B16695   8.785  16.820   7.488 -0.0370 -0.0105  0.1046
 1064loPI   C4B16696   8.706  16.786   7.958 -0.0292  0.0828 -0.0231
 1065loPI    C116697  17.776   1.542   5.495 -0.0734 -0.2119  0.0304
 1065loPI    C216698  17.793   1.898   5.316 -0.1502 -0.1764  0.0933
 1065loPI    C316699  17.837   1.564   5.101 -0.0613 -0.1289  0.0369
 1065loPI   PO416700  17.929   1.532   5.740  0.1999  0.1160  0.1346
 1065loPI   GL116701  18.185   1.611   6.097  0.0583 -0.0518 -0.0022
 1065loPI   GL216702  18.409   1.474   5.896  0.1317  0.0593  0.3174
 1065loPI   C1A16703  18.039   1.617   6.523 -0.0143  0.1770 -0.0970
 1065loPI   C2A16704  18.078   1.602   7.001 -0.3775  0.3104  0.2020
 1065loPI   C3A16705  17.911   1.590   7.345 -0.2219  0.0610  0.0711
 1065loPI   C4A16706  17.982   1.588   7.848  0.0428  0.2991 -0.1017
 1065loPI   C5A16707  17.977   1.451   8.196  0.1315 -0.0166  0.0687
 1065loPI   C6A16708  18.082   1.358   8.638 -0.1299  0.2617 -0.1455
 1065loPI   C1B16709  18.612   1.326   6.322  0.1768  0.0115 -0.0126
 1065loPI   C2B16710  18.508   1.353   6.822 -0.1534 -0.2392  0.2929
 1065loPI   C3B16711  18.435   1.417   7.286 -0.2129  0.1419  0.0249
 1065loPI   C4B16712  18.460   1.280   7.759  0.1804  0.2426  0.0100
 1066loPI    C116713  10.703   4.111   5.684 -0.2633 -0.0509  0.0655
 1066loPI    C216714  10.821   3.768   5.513 -0.0876  0.0797 -0.0792
 1066loPI    C316715  10.807   4.105   5.297 -0.2015  0.1767  0.0771
 1066loPI   PO416716  10.792   4.136   5.943  0.0754  0.0934  0.0930
 1066loPI   GL116717  11.014   4.350   6.303  0.2168 -0.0338  0.1018
 1066loPI   GL216718  10.889   4.276   6.676  0.2034 -0.0320  0.0439
 1066loPI   C1A16719  11.365   4.227   6.478  0.2290 -0.0883  0.3668
 1066loPI   C2A16720  11.601   4.043   6.853 -0.2348  0.1001  0.0336
 1066loPI   C3A16721  11.662   3.937   7.253 -0.0020  0.0344  0.0396
 1066loPI   C4A16722  11.734   3.898   7.699  0.2853 -0.3389  0.0084
 1066loPI   C5A16723  11.734   3.870   8.149 -0.1090  0.2564  0.1120
 1066loPI   C6A16724  11.620   3.655   8.566 -0.0125 -0.0591 -0.0926
 1066loPI   C1B16725  11.072   4.293   7.099  0.0790  0.1486  0.0309
 1066loPI   C2B16726  11.330   4.286   7.485  0.0377 -0.2270  0.1389
 1066loPI   C3B16727  11.278   4.152   7.887 -0.3459  0.2283  0.0492
 1066loPI   C4B16728  11.327   4.072   8.368  0.2889 -0.3032  0.2795
 1067loPI    C116729   2.504   0.878   5.729  0.2954 -0.2428  0.1458
 1067loPI    C216730   2.550   0.488   5.654 -0.0965 -0.1937 -0.4146
 1067loPI    C316731   2.430   0.735   5.363  0.0602  0.3359 -0.0452
 1067loPI   PO416732   2.454   0.886   6.035  0.1904  0.2458 -0.1692
 1067loPI   GL116733   2.296   0.726   6.347  0.4568 -0.3398  0.0227
 1067loPI   GL216734   2.528   0.726   6.571  0.2326  0.1422  0.1307
 1067loPI   C1A16735   2.072   0.639   6.735 -0.1663 -0.3231 -0.0154
 1067loPI   C2A16736   2.054   0.667   7.227  0.2280 -0.0188 -0.1656
 1067loPI   C3A16737   2.030   0.523   7.674  0.0788 -0.1748 -0.0896
 1067loPI   C4A16738   2.050   0.482   8.144  0.0026 -0.2633  0.0339
 1067loPI   C5A16739   2.004   0.724   8.528  0.3383 -0.0718  0.1711
 1067loPI   C6A16740   2.003   0.826   8.944 -0.1417  0.1786 -0.1707
 1067loPI   C1B16741   2.547   0.975   6.941 -0.2065 -0.0639 -0.0290
 1067loPI   C2B16742   2.562   0.878   7.417 -0.1150  0.3002  0.1691
 1067loPI   C3B16743   2.597   0.856   7.875 -0.2093  0.0452  0.0126
 1067loPI   C4B16744   2.473   0.815   8.202 -0.2009  0.0824 -0.0934
 1068loPI    C116745  17.773   2.944   5.546 -0.0337 -0.0471  0.2533
 1068loPI    C216746  17.603   3.188   5.279  0.1222 -0.0547  0.1455
 1068loPI    C316747  17.988   3.235   5.376  0.2267 -0.4183 -0.0732
 1068loPI   PO416748  17.680   2.939   5.752  0.1879 -0.0580  0.1464
 1068loPI   GL116749  17.569   2.866   6.017 -0.0695  0.0088  0.0256
 1068loPI   GL216750  17.482   3.169   6.128 -0.0674  0.0502  0.0135
 1068loPI   C1A16751  17.567   2.780   6.443  0.0766  0.0013  0.1677
 1068loPI   C2A16752  17.525   2.925   6.941 -0.3138  0.3274 -0.1238
 1068loPI   C3A16753  17.517   2.866   7.415  0.0142  0.0870 -0.2091
 1068loPI   C4A16754  17.558   2.811   7.871  0.0785  0.1336 -0.0754
 1068loPI   C5A16755  17.564   3.077   8.102  0.2542 -0.2615  0.1845
 1068loPI   C6A16756  17.516   3.100   8.549 -0.1902 -0.1296  0.0240
 1068loPI   C1B16757  17.401   3.264   6.585 -0.3418  0.0518  0.1340
 1068loPI   C2B16758  17.461   3.411   6.976 -0.3384  0.0430 -0.0943
 1068loPI   C3B16759  17.431   3.340   7.388 -0.0224 -0.4320 -0.2683
 1068loPI   C4B16760  17.511   3.459   7.826 -0.2089 -0.1494  0.3713
 1069loPI    C116761  12.738   9.117   5.311  0.0016 -0.2088  0.0825
 1069loPI    C216762  13.029   9.389   5.270 -0.2254  0.0173 -0.0594
 1069loPI    C316763  12.840   9.249   4.947 -0.3564 -0.0373  0.0404
 1069loPI   PO416764  12.873   8.982   5.534 -0.0516 -0.0213 -0.0355
 1069loPI   GL116765  12.794   9.129   5.807  0.0277  0.0232 -0.2824
 1069loPI   GL216766  12.999   9.320   5.861  0.2236 -0.2177  0.1716
 1069loPI   C1A16767  12.780   8.931   6.144  0.4787  0.1764 -0.3383
 1069loPI   C2A16768  12.827   8.911   6.563 -0.2402 -0.0793  0.0705
 1069loPI   C3A16769  12.849   9.057   7.022  0.1595 -0.5508  0.4060
 1069loPI   C4A16770  12.897   8.965   7.479  0.0275 -0.0095 -0.1377
 1069loPI   C5A16771  13.014   8.819   7.969 -0.1165 -0.1342 -0.1985
 1069loPI   C6A16772  12.597   8.683   8.149  0.1145  0.0406  0.2632
 1069loPI   C1B16773  13.177   9.312   6.256 -0.0641  0.4532  0.1373
 1069loPI   C2B16774  13.212   9.237   6.709  0.1906  0.1551  0.0562
 1069loPI   C3B16775  13.296   9.182   7.186  0.0150 -0.2644  0.5317
 1069loPI   C4B16776  13.278   9.231   7.583  0.3612  0.0586  0.1269
 1070loPI    C116777   1.399   1.776   5.496 -0.0118 -0.0899  0.0075
 1070loPI    C216778   1.355   1.790   5.098 -0.0099  0.2248  0.0155
 1070loPI    C316779   1.286   1.449   5.296 -0.3066  0.1444 -0.2196
 1070loPI   PO416780   1.243   1.977   5.664 -0.1125 -0.0384  0.0528
 1070loPI   GL116781   1.176   2.150   6.107  0.2401 -0.0481  0.1823
 1070loPI   GL216782   0.941   2.397   6.177  0.1198  0.1032  0.2819
 1070loPI   C1A16783   1.065   2.176   6.595 -0.4220 -0.1795 -0.1647
 1070loPI   C2A16784   1.107   2.075   7.006 -0.2600 -0.1619  0.1821
 1070loPI   C3A16785   1.083   2.030   7.437  0.1716  0.2057  0.2084
 1070loPI   C4A16786   1.073   2.133   7.949  0.0923 -0.1818  0.2740
 1070loPI   C5A16787   0.933   1.915   8.309  0.0328  0.1461 -0.2937
 1070loPI   C6A16788   0.958   1.454   8.303  0.1241 -0.1749  0.1638
 1070loPI   C1B16789   0.996   2.628   6.415 -0.0210  0.0877  0.3864
 1070loPI   C2B16790   1.001   2.568   6.867 -0.2159 -0.1441  0.0399
 1070loPI   C3B16791   0.902   2.604   7.277  0.0929  0.0802 -0.0743
 1070loPI   C4B16792   0.993   2.484   7.651 -0.2886  0.0370  0.0232
 1071loPI    C116793   3.074  16.614   5.801  0.0174  0.1023 -0.0544
 1071loPI    C216794   2.975  16.900   5.540 -0.0305  0.2306  0.1027
 1071loPI    C316795   3.109  16.547   5.408 -0.0572  0.2927 -0.0946
 1071loPI   PO416796   3.207  16.746   5.978 -0.1056  0.2233  0.1313
 1071loPI   GL116797   2.979  16.788   6.296  0.1436  0.0880 -0.2486
 1071loPI   GL216798   3.263  17.123   6.396  0.2666  0.2682  0.0412
 1071loPI   C1A16799   3.200  16.533   6.674  0.0584 -0.1202 -0.0288
 1071loPI   C2A16800   3.182  16.559   7.106  0.1386  0.0816 -0.0854
 1071loPI   C3A16801   3.227  16.582   7.536 -0.3424  0.1492 -0.1948
 1071loPI   C4A16802   3.216  16.522   8.026 -0.2152 -0.0904  0.3225
 1071loPI   C5A16803   3.219  16.643   8.417 -0.0351  0.2528 -0.3008
 1071loPI   C6A16804   3.103  16.756   8.720  0.0710 -0.1430 -0.0669
 1071loPI   C1B16805   3.207  16.992   6.888  0.0058  0.1245  0.0540
 1071loPI   C2B16806   3.068  17.082   7.359 -0.0268 -0.0921  0.4845
 1071loPI   C3B16807   2.860  16.867   7.740 -0.0689  0.1349 -0.2385
 1071loPI   C4B16808   2.882  16.911   8.135 -0.0149  0.0585 -0.1385
 1072loPI    C116809  16.856   3.601   5.418 -0.1652  0.1042 -0.0704
 1072loPI    C216810  17.165   3.456   5.211  0.0257  0.0580  0.2409
 1072loPI    C316811  17.113   3.852   5.242 -0.1159  0.0654 -0.0538
 1072loPI   PO416812  16.919   3.481   5.624  0.3541 -0.0765  0.2134
 1072loPI   GL116813  16.998   3.526   5.981  0.2008  0.0828 -0.1627
 1072loPI   GL216814  16.637   3.594   6.028  0.0893  0.1863  0.1619
 1072loPI   C1A16815  17.063   3.694   6.367 -0.2165  0.2224  0.2198
 1072loPI   C2A16816  16.953   3.647   6.799  0.4391 -0.3230  0.0613
 1072loPI   C3A16817  16.908   3.656   7.225 -0.2465 -0.3582  0.0734
 1072loPI   C4A16818  16.998   3.573   7.661  0.1048 -0.1734 -0.0852
 1072loPI   C5A16819  17.020   3.504   8.155  0.1013  0.1275 -0.0244
 1072loPI   C6A16820  16.796   3.681   8.531 -0.5654 -0.2018 -0.2553
 1072loPI   C1B16821  16.615   3.431   6.497 -0.1380 -0.0400  0.1552
 1072loPI   C2B16822  16.536   3.395   6.836 -0.1918  0.1270  0.1054
 1072loPI   C3B16823  16.479   3.375   7.144 -0.1427  0.0076  0.0478
 1072loPI   C4B16824  16.476   3.402   7.576 -0.1498 -0.1206  0.0218
 1073loPI    C116825  12.710   7.646   5.180 -0.0778  0.2108 -0.0290
 1073loPI    C216826  12.916   7.851   4.906  0.1645 -0.0086 -0.0158
 1073loPI    C316827  12.518   7.886   4.925  0.1681  0.1846 -0.2433
 1073loPI   PO416828  12.829   7.531   5.315 -0.0566  0.3263  0.0147
 1073loPI   GL116829  12.874   7.667   5.847 -0.1869 -0.0960 -0.0496
 1073loPI   GL216830  13.143   7.610   5.707 -0.0598  0.0668 -0.0590
 1073loPI   C1A16831  13.267   7.742   6.184 -0.1063 -0.3668  0.0096
 1073loPI   C2A16832  13.360   7.650   6.566  0.3643 -0.0164  0.2133
 1073loPI   C3A16833  13.379   7.687   7.010  0.3131 -0.1734 -0.0396
 1073loPI   C4A16834  13.397   7.619   7.427  0.1473  0.2977  0.0737
 1073loPI   C5A16835  13.366   7.679   7.880  0.3669 -0.1725 -0.1428
 1073loPI   C6A16836  12.985   7.817   7.999  0.0740  0.0952 -0.1838
 1073loPI   C1B16837  13.297   7.221   5.995 -0.0563 -0.0012 -0.1759
 1073loPI   C2B16838  13.359   7.155   6.523  0.0247  0.2608 -0.3052
 1073loPI   C3B16839  13.345   7.210   6.948 -0.4253 -0.1483  0.0130
 1073loPI   C4B16840  13.460   7.157   7.360  0.0162 -0.0004  0.2515
 1074loPI    C116841   3.196   3.221   6.026 -0.1536  0.3086  0.1963
 1074loPI    C216842   3.536   3.430   6.020 -0.0451  0.1324  0.1309
 1074loPI    C316843   3.281   3.455   5.713  0.1323 -0.0970 -0.0385
 1074loPI   PO416844   3.168   3.230   6.231 -0.1426 -0.0286 -0.2657
 1074loPI   GL116845   3.281   3.164   6.593 -0.0972 -0.2208 -0.1226
 1074loPI   GL216846   3.440   3.207   6.859  0.1875 -0.0265  0.0126
 1074loPI   C1A16847   2.987   3.134   6.972 -0.1787 -0.0794  0.1154
 1074loPI   C2A16848   2.632   3.375   7.011  0.1888 -0.0442  0.0521
 1074loPI   C3A16849   2.346   3.481   7.317  0.0325  0.2284  0.1378
 1074loPI   C4A16850   2.443   3.459   7.728 -0.1483 -0.0824 -0.2496
 1074loPI   C5A16851   2.329   3.675   8.114 -0.0643 -0.0980  0.0783
 1074loPI   C6A16852   2.093   3.886   8.388 -0.0584 -0.1794  0.1841
 1074loPI   C1B16853   3.715   3.242   7.215 -0.3618  0.0035 -0.0071
 1074loPI   C2B16854   4.178   3.375   7.416 -0.0791 -0.0605 -0.1392
 1074loPI   C3B16855   4.569   3.539   7.308 -0.0885 -0.0082  0.0312
 1074loPI   C4B16856   4.704   3.743   6.922  0.1909  0.2296 -0.1550
 1075loPI    C116857  11.799  11.256   5.458  0.0848 -0.0187 -0.1169
 1075loPI    C216858  11.566  11.408   5.170 -0.1715 -0.3039 -0.0652
 1075loPI    C316859  11.805  11.097   5.091  0.1326 -0.0683 -0.0946
 1075loPI   PO416860  11.645  11.214   5.645 -0.2203  0.0878 -0.1720
 1075loPI   GL116861  11.382  11.444   5.936 -0.3619  0.3891  0.0175
 1075loPI   GL216862  11.324  11.756   5.981 -0.1881  0.0122 -0.0370
 1075loPI   C1A16863  11.458  11.224   6.297  0.1652 -0.0969 -0.0915
 1075loPI   C2A16864  11.500  11.129   6.728  0.1118  0.2135  0.3742
 1075loPI   C3A16865  11.467  11.094   7.154  0.0903 -0.0510  0.1848
 1075loPI   C4A16866  11.509  11.237   7.596  0.0224 -0.0428  0.0509
 1075loPI   C5A16867  11.444  11.206   7.966  0.0989  0.0511 -0.0513
 1075loPI   C6A16868  11.312  11.312   8.489  0.0048  0.0353  0.2179
 1075loPI   C1B16869  11.475  11.739   6.424 -0.0233  0.2844 -0.2881
 1075loPI   C2B16870  11.512  11.734   6.928 -0.0849 -0.0656  0.0258
 1075loPI   C3B16871  11.520  11.738   7.318 -0.2068 -0.0196 -0.1804
 1075loPI   C4B16872  11.498  11.733   7.788 -0.2511  0.0441  0.2014
 1076loPI    C116873  11.729   4.094   5.566 -0.1746 -0.0481  0.0126
 1076loPI    C216874  11.880   4.428   5.727  0.0907 -0.0663 -0.1927
 1076loPI    C316875  11.630   4.451   5.415 -0.0950 -0.0495 -0.0437
 1076loPI   PO416876  11.659   3.958   5.756 -0.2414 -0.0701 -0.3284
 1076loPI   GL116877  11.496   3.855   6.153 -0.2694  0.1816 -0.3632
 1076loPI   GL216878  11.245   3.919   6.073 -0.0518  0.2593 -0.0128
 1076loPI   C1A16879  11.571   3.555   6.546 -0.0649 -0.1178  0.1108
 1076loPI   C2A16880  11.664   3.506   6.956 -0.0525  0.1463  0.0208
 1076loPI   C3A16881  11.757   3.467   7.365  0.0006 -0.4183 -0.1563
 1076loPI   C4A16882  11.792   3.465   7.855  0.1335  0.2275 -0.1928
 1076loPI   C5A16883  11.870   3.378   8.200  0.0782  0.0093 -0.0598
 1076loPI   C6A16884  12.029   3.214   8.542 -0.1262 -0.2315  0.3215
 1076loPI   C1B16885  11.071   3.695   6.491 -0.0314 -0.1956  0.2154
 1076loPI   C2B16886  11.160   3.775   6.855 -0.3388  0.2524 -0.1104
 1076loPI   C3B16887  11.190   3.761   7.270 -0.2871  0.0962 -0.0863
 1076loPI   C4B16888  11.291   3.684   7.691 -0.0975  0.2167 -0.0391
 1077loPI    C116889  14.177   3.230   5.612  0.1351  0.0338 -0.0291
 1077loPI    C216890  14.569   3.263   5.688  0.1289 -0.2702  0.1528
 1077loPI    C316891  14.444   3.167   5.320  0.2242 -0.1683  0.0932
 1077loPI   PO416892  14.125   3.071   5.844  0.0703 -0.1479 -0.0312
 1077loPI   GL116893  13.863   2.998   6.095 -0.2316 -0.0510 -0.1411
 1077loPI   GL216894  13.795   2.651   6.249 -0.1379  0.1172  0.0162
 1077loPI   C1A16895  13.827   3.241   6.584  0.0011 -0.1529 -0.3501
 1077loPI   C2A16896  13.783   3.334   6.990  0.3173 -0.0869 -0.0203
 1077loPI   C3A16897  13.940   3.280   7.467 -0.0363  0.0286  0.1625
 1077loPI   C4A16898  13.968   3.276   7.940 -0.0452  0.1215  0.4111
 1077loPI   C5A16899  14.370   3.361   8.182  0.0556  0.4966 -0.0864
 1077loPI   C6A16900  14.539   3.432   8.578 -0.2558  0.0598 -0.0458
 1077loPI   C1B16901  13.894   2.770   6.623 -0.3195  0.1465 -0.3394
 1077loPI   C2B16902  13.873   2.873   7.079  0.2383  0.0760  0.1770
 1077loPI   C3B16903  13.980   2.801   7.509  0.2091  0.1129  0.1972
 1077loPI   C4B16904  13.958   2.622   7.925  0.3600 -0.1750 -0.0723
 1078loPI    C116905   3.254  13.538   5.379  0.2066 -0.1305  0.1735
 1078loPI    C216906   3.630  13.571   5.247  0.0628  0.2220 -0.1667
 1078loPI    C316907   3.382  13.305   5.080  0.1011  0.1324 -0.0816
 1078loPI   PO416908   3.215  13.691   5.515  0.0847  0.0474 -0.1943
 1078loPI   GL116909   3.189  13.644   5.983  0.2979  0.2937 -0.0275
 1078loPI   GL216910   3.262  14.006   6.075  0.0355 -0.0896 -0.0455
 1078loPI   C1A16911   3.022  13.777   6.451 -0.0582 -0.0682  0.0938
 1078loPI   C2A16912   2.970  13.853   7.024  0.1003 -0.2848  0.2067
 1078loPI   C3A16913   2.988  13.773   7.402  0.2410 -0.1747 -0.0159
 1078loPI   C4A16914   3.015  13.804   7.837 -0.2716 -0.0298 -0.0696
 1078loPI   C5A16915   3.109  14.132   8.196 -0.2913 -0.2275 -0.0898
 1078loPI   C6A16916   3.312  14.217   8.688 -0.1167  0.0130 -0.0267
 1078loPI   C1B16917   3.394  14.024   6.544 -0.1423  0.0018  0.0477
 1078loPI   C2B16918   3.395  14.046   6.940 -0.1409 -0.0877 -0.1636
 1078loPI   C3B16919   3.369  14.075   7.365 -0.0648  0.0760  0.0296
 1078loPI   C4B16920   3.414  14.139   7.769  0.2659  0.3185  0.0773
 1079loPI    C116921  10.792   0.459   5.528 -0.0599  0.2820  0.1241
 1079loPI    C216922  10.553   0.359   5.223  0.1032 -0.1035  0.1165
 1079loPI    C316923  10.866   0.600   5.162 -0.0043  0.0148  0.0296
 1079loPI   PO416924  10.721   0.455   5.687 -0.1012  0.0401 -0.2972
 1079loPI   GL116925  10.482   0.150   6.066  0.2776  0.2364  0.0210
 1079loPI   GL216926  10.795   0.328   6.196  0.1500  0.1289 -0.0559
 1079loPI   C1A16927  10.481   0.117   6.502  0.1432  0.3197  0.0007
 1079loPI   C2A16928  10.470   0.135   6.908 -0.0744  0.3224 -0.1335
 1079loPI   C3A16929  10.469   0.008   7.339  0.2458  0.3914  0.1345
 1079loPI   C4A16930  10.373  -0.029   7.808  0.0219  0.0769  0.3593
 1079loPI   C5A16931  10.446  -0.165   8.145  0.1177 -0.1304 -0.3302
 1079loPI   C6A16932  10.438  -0.467   8.518  0.0782 -0.1276 -0.0248
 1079loPI   C1B16933  10.890   0.318   6.688  0.0779 -0.3234 -0.1281
 1079loPI   C2B16934  10.971   0.363   7.054  0.1339 -0.2541  0.0345
 1079loPI   C3B16935  10.965   0.245   7.489 -0.0327 -0.2615  0.1703
 1079loPI   C4B16936  10.913   0.227   7.905 -0.1076 -0.0761 -0.1875
 1080loPI    C116937   5.930   0.029   5.771  0.1744 -0.0722 -0.0308
 1080loPI    C216938   5.946   0.236   5.429 -0.2462 -0.1959 -0.1314
 1080loPI    C316939   6.062  -0.147   5.437 -0.1100 -0.1547 -0.1022
 1080loPI   PO416940   5.750   0.017   5.889 -0.0249 -0.1623 -0.2668
 1080loPI   GL116941   5.583   0.192   6.372  0.0497  0.0083 -0.1823
 1080loPI   GL216942   5.587   0.353   6.637 -0.0960 -0.0800  0.0257
 1080loPI   C1A16943   5.663  -0.096   6.785 -0.0238  0.1445 -0.1945
 1080loPI   C2A16944   5.776  -0.173   7.189 -0.2825 -0.2225 -0.2430
 1080loPI   C3A16945   5.885  -0.107   7.509  0.0628  0.2261  0.2437
 1080loPI   C4A16946   5.841  -0.206   8.014  0.0388 -0.1776  0.1786
 1080loPI   C5A16947   5.675  -0.212   8.462 -0.0643 -0.0595  0.2391
 1080loPI   C6A16948   5.891  -0.211   8.764 -0.2197  0.2195 -0.0813
 1080loPI   C1B16949   5.741   0.306   7.042 -0.0305 -0.2327  0.1695
 1080loPI   C2B16950   5.631   0.432   7.424 -0.0576  0.2935 -0.0622
 1080loPI   C3B16951   5.670   0.528   7.854 -0.1688 -0.0483  0.0520
 1080loPI   C4B16952   5.697   0.296   8.217 -0.4310 -0.1790  0.2046
 1081loPI    C116953   0.273   4.702   5.299  0.2382 -0.0002  0.1609
 1081loPI    C216954   0.114   4.992   5.075  0.1323 -0.1135  0.0884
 1081loPI    C316955   0.404   4.759   4.926  0.0752 -0.1764  0.0752
 1081loPI   PO416956   0.116   4.488   5.375 -0.2529  0.0447  0.0349
 1081loPI   GL116957   0.176   4.467   5.873  0.1275 -0.2245 -0.1011
 1081loPI   GL216958  -0.045   4.608   5.958  0.3473 -0.0875 -0.1535
 1081loPI   C1A16959   0.378   4.444   6.271  0.1332 -0.0880 -0.1733
 1081loPI   C2A16960   0.403   4.509   6.623  0.1925  0.0343 -0.0353
 1081loPI   C3A16961   0.464   4.339   7.070 -0.1675 -0.1852  0.0672
 1081loPI   C4A16962   0.504   4.402   7.451  0.0764 -0.0325 -0.0526
 1081loPI   C5A16963   0.440   4.238   7.836 -0.0960 -0.0698  0.0755
 1081loPI   C6A16964   0.506   4.161   8.279  0.1358 -0.2355 -0.0433
 1081loPI   C1B16965  -0.050   4.635   6.382 -0.1432  0.3103  0.0283
 1081loPI   C2B16966  -0.037   4.713   6.723  0.1298 -0.0716  0.1038
 1081loPI   C3B16967  -0.031   4.691   7.133 -0.0302  0.3107  0.0581
 1081loPI   C4B16968   0.038   4.643   7.520 -0.0210  0.1514  0.2490
 1082loPI    C116969   3.737  11.600   5.563 -0.1607 -0.2248  0.0482
 1082loPI    C216970   3.998  11.388   5.346 -0.1186 -0.2383  0.1119
 1082loPI    C316971   3.610  11.385   5.250 -0.0150  0.2907 -0.3802
 1082loPI   PO416972   3.681  11.469   5.791 -0.4822 -0.1845  0.0621
 1082loPI   GL116973   3.756  11.063   6.044 -0.4298 -0.2463  0.1368
 1082loPI   GL216974   3.542  10.987   6.292  0.0404 -0.2517  0.1219
 1082loPI   C1A16975   3.956  11.228   6.351 -0.0072 -0.2443 -0.1470
 1082loPI   C2A16976   3.943  11.304   6.826 -0.1085 -0.3943 -0.2113
 1082loPI   C3A16977   3.912  11.170   7.163  0.1121  0.1415 -0.1910
 1082loPI   C4A16978   3.932  11.248   7.649  0.1269  0.0907  0.2388
 1082loPI   C5A16979   3.919  11.172   8.111 -0.1675 -0.1114 -0.1407
 1082loPI   C6A16980   4.008  11.269   8.609  0.0369  0.0551 -0.0228
 1082loPI   C1B16981   3.337  10.850   6.625  0.0795  0.2647  0.2411
 1082loPI   C2B16982   3.473  10.977   7.045  0.1824 -0.1366  0.0914
 1082loPI   C3B16983   3.510  11.002   7.403  0.0336  0.0693 -0.0882
 1082loPI   C4B16984   3.479  11.094   7.844 -0.0504 -0.0233  0.1556
 1083loPI    C116985   8.492  11.257   5.491 -0.1429  0.1394  0.1671
 1083loPI    C216986   8.776  11.234   5.771  0.0515 -0.0477 -0.0414
 1083loPI    C316987   8.873  11.333   5.396 -0.1533 -0.1449 -0.1212
 1083loPI   PO416988   8.285  11.219   5.648 -0.4322  0.2365  0.1399
 1083loPI   GL116989   8.423  11.150   6.052  0.0206 -0.0020 -0.2072
 1083loPI   GL216990   8.276  11.382   6.194 -0.2495  0.1960 -0.0010
 1083loPI   C1A16991   8.690  11.164   6.359 -0.3982 -0.1301  0.0545
 1083loPI   C2A16992   8.865  11.217   6.760 -0.0119  0.1925  0.0346
 1083loPI   C3A16993   8.789  11.107   7.105 -0.1434 -0.3773  0.0320
 1083loPI   C4A16994   8.821  11.150   7.584  0.0142 -0.1709  0.0291
 1083loPI   C5A16995   8.825  11.004   8.022  0.0409  0.0486  0.0470
 1083loPI   C6A16996   8.406  10.725   8.275 -0.0845 -0.0515 -0.1800
 1083loPI   C1B16997   8.282  11.331   6.584  0.0423 -0.1469 -0.0744
 1083loPI   C2B16998   8.322  11.387   7.002  0.1167  0.1050  0.1212
 1083loPI   C3B16999   8.351  11.294   7.425  0.1334 -0.1238 -0.1257
 1083loPI   C4B17000   8.391  11.332   7.852  0.0587  0.1072  0.1060
 1084loPI    C117001   0.970  13.136   5.322  0.0128 -0.0102  0.1434
 1084loPI    C217002   1.336  13.081   5.170  0.0414  0.1164  0.1650
 1084loPI    C317003   1.016  13.067   4.930  0.0814  0.2539  0.1029
 1084loPI   PO417004   0.978  13.162   5.554 -0.0009 -0.0169 -0.1623
 1084loPI   GL117005   1.060  13.171   5.989  0.1411 -0.0243  0.3251
 1084loPI   GL217006   0.815  13.063   6.129 -0.3727  0.1091 -0.2102
 1084loPI   C1A17007   1.207  13.255   6.513 -0.1319  0.0093 -0.0672
 1084loPI   C2A17008   1.203  13.252   6.964  0.0708 -0.1149  0.1383
 1084loPI   C3A17009   1.191  13.273   7.270  0.2211  0.0402 -0.2073
 1084loPI   C4A17010   1.204  13.314   7.711  0.0775 -0.2303 -0.3061
 1084loPI   C5A17011   1.064  13.214   8.128 -0.2517 -0.3081  0.0647
 1084loPI   C6A17012   0.859  13.268   8.586  0.2036  0.1727  0.0450
 1084loPI   C1B17013   0.838  13.001   6.526  0.0067  0.1670  0.1328
 1084loPI   C2B17014   0.746  13.019   6.911  0.1074 -0.1981  0.2322
 1084loPI   C3B17015   0.729  13.028   7.316 -0.1388  0.4579  0.1395
 1084loPI   C4B17016   0.833  12.990   7.756  0.3051  0.0463  0.0681
 1085loPI    C117017  16.618  17.685   5.481 -0.1133  0.1283  0.1321
 1085loPI    C217018  16.268  17.514   5.388 -0.0464 -0.0140  0.1385
 1085loPI    C317019  16.492  17.682   5.101 -0.1559  0.1466  0.1461
 1085loPI   PO417020  16.526  17.709   5.733  0.0842 -0.0363  0.4581
 1085loPI   GL117021  16.292  17.835   6.109 -0.0007  0.2546  0.0742
 1085loPI   GL217022  16.049  17.680   6.110 -0.1831  0.0325  0.1749
 1085loPI   C1A17023  16.362  17.960   6.508  0.0779 -0.2512  0.1610
 1085loPI   C2A17024  16.346  17.910   6.892  0.1860  0.2230 -0.1201
 1085loPI   C3A17025  16.357  17.789   7.288 -0.1633 -0.0781  0.1964
 1085loPI   C4A17026  16.250  17.923   7.756  0.0035 -0.0960 -0.0599
 1085loPI   C5A17027  16.003  17.884   8.140  0.1895 -0.0365  0.1966
 1085loPI   C6A17028  15.753  17.610   8.261 -0.1260 -0.2952  0.0380
 1085loPI   C1B17029  15.942  17.579   6.561  0.0284 -0.1018 -0.2945
 1085loPI   C2B17030  15.823  17.551   7.013  0.0641  0.4334 -0.0563
 1085loPI   C3B17031  15.935  17.584   7.332  0.0886 -0.2652 -0.1237
 1085loPI   C4B17032  15.822  17.546   7.749 -0.0645 -0.2613 -0.0694
 1086loPI    C117033   7.727  10.355   5.555  0.1985 -0.0612 -0.2011
 1086loPI    C217034   7.635  10.069   5.291  0.0549 -0.0603 -0.1524
 1086loPI    C317035   7.874  10.370   5.183  0.2159 -0.2039 -0.2005
 1086loPI   PO417036   7.506  10.405   5.707  0.0103  0.1602 -0.1456
 1086loPI   GL117037   7.397  10.348   6.096 -0.3717 -0.2431 -0.0129
 1086loPI   GL217038   7.322  10.030   6.148 -0.1514  0.0083  0.0832
 1086loPI   C1A17039   7.294  10.273   6.606 -0.2893  0.0840 -0.0767
 1086loPI   C2A17040   7.385  10.278   7.000 -0.1613 -0.1079  0.1954
 1086loPI   C3A17041   7.401  10.420   7.450 -0.1336 -0.1026  0.0858
 1086loPI   C4A17042   7.451  10.336   7.886  0.2654  0.1887 -0.0050
 1086loPI   C5A17043   7.363  10.035   8.237  0.2272  0.2099 -0.0749
 1086loPI   C6A17044   7.109   9.928   8.555  0.0577 -0.2206  0.7052
 1086loPI   C1B17045   7.365   9.788   6.635 -0.1299  0.6016 -0.0525
 1086loPI   C2B17046   7.457   9.751   7.010 -0.1744 -0.1727  0.1107
 1086loPI   C3B17047   7.557   9.893   7.382  0.0034  0.2660  0.0907
 1086loPI   C4B17048   7.541   9.810   7.812  0.2214 -0.0995  0.1467
 1087loPI    C117049  11.936  12.335   5.432 -0.0249  0.0092 -0.1303
 1087loPI    C217050  11.773  12.111   5.144 -0.0663  0.0986 -0.1765
 1087loPI    C317051  11.651  12.489   5.197 -0.1740  0.0321  0.0625
 1087loPI   PO417052  11.963  12.127   5.681 -0.1248  0.0169 -0.1587
 1087loPI   GL117053  11.749  12.014   6.080  0.1975  0.1686  0.3162
 1087loPI   GL217054  11.762  12.321   6.077  0.0280 -0.1478 -0.3345
 1087loPI   C1A17055  11.849  12.017   6.566 -0.1943 -0.1630 -0.1226
 1087loPI   C2A17056  11.892  11.988   7.044 -0.0331 -0.1778  0.1390
 1087loPI   C3A17057  11.981  12.060   7.427 -0.4184 -0.1289 -0.2169
 1087loPI   C4A17058  12.056  12.057   7.886 -0.2172  0.0660  0.0932
 1087loPI   C5A17059  11.952  11.971   8.266 -0.1871  0.0388 -0.1344
 1087loPI   C6A17060  11.629  11.658   8.333 -0.0040  0.0478 -0.1606
 1087loPI   C1B17061  11.879  12.556   6.467 -0.0327 -0.2804  0.1206
 1087loPI   C2B17062  11.848  12.534   6.936 -0.0723  0.0846 -0.0891
 1087loPI   C3B17063  11.883  12.580   7.388  0.1244 -0.2052 -0.2037
 1087loPI   C4B17064  11.921  12.601   7.797  0.0353  0.0238  0.1813
 1088loPI    C117065   3.032   9.714   5.551  0.1470 -0.0251  0.1863
 1088loPI    C217066   2.742   9.623   5.811  0.0504  0.0924  0.1206
 1088loPI    C317067   2.708   9.947   5.579  0.1558  0.0117 -0.0086
 1088loPI   PO417068   3.252   9.749   5.605  0.0792 -0.3254  0.0431
 1088loPI   GL117069   3.401   9.806   6.073 -0.1611 -0.0942  0.0031
 1088loPI   GL217070   3.190   9.992   6.158  0.0927  0.1339  0.3299
 1088loPI   C1A17071   3.490   9.841   6.468  0.3422  0.1704 -0.0270
 1088loPI   C2A17072   3.531   9.838   6.918 -0.0166  0.1567 -0.0026
 1088loPI   C3A17073   3.562  10.028   7.325 -0.0542  0.1011  0.1085
 1088loPI   C4A17074   3.529   9.966   7.841 -0.0618  0.0476 -0.0876
 1088loPI   C5A17075   3.527  10.077   8.181 -0.1454  0.0496 -0.3105
 1088loPI   C6A17076   3.643  10.381   8.541  0.1501  0.1027 -0.0460
 1088loPI   C1B17077   3.005  10.055   6.559  0.0886 -0.0665  0.0039
 1088loPI   C2B17078   3.062  10.138   6.992 -0.2330 -0.1734 -0.2722
 1088loPI   C3B17079   3.073  10.221   7.461  0.1130  0.1876 -0.0461
 1088loPI   C4B17080   3.124  10.250   7.933 -0.1367  0.1594  0.0131
 1089loPI    C117081   5.831   6.249   5.788 -0.0562 -0.0512  0.1224
 1089loPI    C217082   5.506   6.476   5.842 -0.0584 -0.0510  0.1083
 1089loPI    C317083   5.547   6.262   5.507  0.0065  0.0322  0.0625
 1089loPI   PO417084   5.965   6.295   6.051  0.0661 -0.1739 -0.1827
 1089loPI   GL117085   5.950   6.365   6.468 -0.0559  0.2468 -0.1149
 1089loPI   GL217086   5.625   6.498   6.350  0.0453 -0.1325  0.1672
 1089loPI   C1A17087   5.977   6.401   6.890 -0.0340 -0.1397  0.2991
 1089loPI   C2A17088   5.870   6.430   7.302 -0.0217 -0.1724 -0.1827
 1089loPI   C3A17089   5.652   6.431   7.577  0.1312 -0.1744 -0.4722
 1089loPI   C4A17090   5.551   6.802   7.863  0.0899  0.1759 -0.0207
 1089loPI   C5A17091   5.294   7.000   8.141 -0.0264 -0.1018  0.1392
 1089loPI   C6A17092   5.150   7.416   8.423  0.1884 -0.0318 -0.1423
 1089loPI   C1B17093   5.484   6.548   6.773 -0.3371  0.2999  0.4204
 1089loPI   C2B17094   5.524   6.775   7.207 -0.5722  0.1412  0.1840
 1089loPI   C3B17095   5.875   6.894   7.510  0.1683  0.1475  0.2085
 1089loPI   C4B17096   6.298   6.936   7.718 -0.2647 -0.3091  0.4242
 1090loPI    C117097  12.423   0.299   5.377 -0.0466 -0.0491  0.2370
 1090loPI    C217098  12.232  -0.003   5.557 -0.1014 -0.0792  0.1291
 1090loPI    C317099  12.517  -0.079   5.287  0.0379 -0.0342  0.2620
 1090loPI   PO417100  12.513   0.496   5.599 -0.1756  0.1406  0.0318
 1090loPI   GL117101  12.529   0.740   5.902 -0.0145  0.1885 -0.0145
 1090loPI   GL217102  12.706   0.451   6.056 -0.4004 -0.0715  0.0186
 1090loPI   C1A17103  12.626   0.894   6.227  0.2422 -0.1971 -0.2486
 1090loPI   C2A17104  12.607   0.998   6.575 -0.0079  0.0158  0.1398
 1090loPI   C3A17105  12.630   0.919   7.063 -0.3776 -0.0657  0.0343
 1090loPI   C4A17106  12.641   0.798   7.474  0.3452  0.1233  0.0951
 1090loPI   C5A17107  12.730   0.723   7.832  0.2517  0.0302  0.0110
 1090loPI   C6A17108  12.802   0.802   8.275 -0.0077 -0.1699 -0.1339
 1090loPI   C1B17109  12.670   0.462   6.489 -0.0231  0.0354 -0.0615
 1090loPI   C2B17110  12.648   0.416   6.902 -0.0924  0.1019 -0.1873
 1090loPI   C3B17111  12.731   0.296   7.334  0.0810  0.2159  0.0119
 1090loPI   C4B17112  12.676   0.236   7.753  0.0482 -0.0575 -0.0325
 1091loPI    C117113   3.893   6.153   5.275 -0.0263 -0.1575 -0.0202
 1091loPI    C217114   3.729   6.088   4.915  0.1794 -0.0768 -0.1301
 1091loPI    C317115   4.087   5.932   5.003  0.0739 -0.2010  0.0859
 1091loPI   PO417116   3.726   6.039   5.578  0.3540 -0.1584  0.0268
 1091loPI   GL117117   3.509   6.197   5.924  0.0276  0.2137 -0.0117
 1091loPI   GL217118   3.241   6.031   5.868  0.0178  0.0919 -0.1307
 1091loPI   C1A17119   3.658   6.314   6.295 -0.2573  0.4816 -0.0498
 1091loPI   C2A17120   3.577   6.322   6.754  0.2457  0.0254 -0.2013
 1091loPI   C3A17121   3.701   6.266   7.190 -0.2215  0.1299 -0.1377
 1091loPI   C4A17122   3.520   6.262   7.673  0.0711  0.0119 -0.0625
 1091loPI   C5A17123   3.110   6.191   7.958  0.3199 -0.1927 -0.0855
 1091loPI   C6A17124   3.071   6.350   8.435 -0.2391  0.1441 -0.0304
 1091loPI   C1B17125   3.254   5.983   6.279 -0.1346  0.0767  0.0229
 1091loPI   C2B17126   3.142   6.040   6.741  0.0501  0.0921 -0.0224
 1091loPI   C3B17127   3.232   6.092   7.128 -0.1935  0.2400  0.0777
 1091loPI   C4B17128   3.060   6.054   7.509  0.0522 -0.0327  0.0573
 1092loPI    C117129  10.224   6.594   5.158 -0.1000  0.1805 -0.0485
 1092loPI    C217130   9.889   6.601   4.940 -0.1632 -0.0364  0.0391
 1092loPI    C317131  10.165   6.319   4.874 -0.0122  0.1211 -0.0095
 1092loPI   PO417132  10.166   6.723   5.420  0.1064 -0.0072 -0.1381
 1092loPI   GL117133  10.069   6.890   5.935  0.2882 -0.1541 -0.0362
 1092loPI   GL217134   9.920   7.073   6.144  0.1496 -0.0605 -0.0096
 1092loPI   C1A17135  10.390   6.896   6.316 -0.2581  0.0098  0.4535
 1092loPI   C2A17136  10.452   7.024   6.729 -0.0727 -0.1078 -0.0584
 1092loPI   C3A17137  10.671   7.053   7.174  0.1124  0.2544 -0.3191
 1092loPI   C4A17138  10.641   7.105   7.569  0.1077 -0.1873 -0.3446
 1092loPI   C5A17139  10.772   7.105   7.945  0.0661  0.0029 -0.1963
 1092loPI   C6A17140  11.178   6.954   8.190 -0.0766 -0.0551  0.0348
 1092loPI   C1B17141   9.964   7.348   6.440 -0.2495  0.4676 -0.3080
 1092loPI   C2B17142  10.106   7.374   6.854 -0.2050  0.2233  0.1773
 1092loPI   C3B17143  10.205   7.291   7.244 -0.1900 -0.0135 -0.1421
 1092loPI   C4B17144  10.290   7.385   7.678  0.0080 -0.0432 -0.1626
 1093loPI    C117145   4.788  13.245   5.705  0.1154  0.1338  0.2344
 1093loPI    C217146   4.644  13.588   5.852 -0.1780  0.1455 -0.0685
 1093loPI    C317147   4.846  13.587   5.506 -0.0149  0.0369  0.0259
 1093loPI   PO417148   4.845  13.144   5.957 -0.2316  0.3408  0.1558
 1093loPI   GL117149   4.835  13.342   6.303  0.0972  0.2221  0.0686
 1093loPI   GL217150   4.894  13.578   6.293 -0.0634 -0.0587  0.1152
 1093loPI   C1A17151   4.799  13.382   6.795 -0.1094 -0.1107 -0.3016
 1093loPI   C2A17152   4.771  13.345   7.289  0.0982 -0.0803  0.0562
 1093loPI   C3A17153   4.763  13.383   7.716 -0.0749 -0.2883  0.1025
 1093loPI   C4A17154   4.785  13.561   8.111 -0.3661 -0.1850 -0.0606
 1093loPI   C5A17155   4.995  13.767   8.394 -0.2688  0.0057  0.1259
 1093loPI   C6A17156   4.930  14.126   8.564 -0.1088 -0.1862  0.0357
 1093loPI   C1B17157   5.136  13.680   6.622  0.1730  0.0413  0.1716
 1093loPI   C2B17158   5.089  13.680   7.100 -0.0741  0.3487  0.0162
 1093loPI   C3B17159   5.160  13.656   7.559  0.0743 -0.2690 -0.2604
 1093loPI   C4B17160   5.217  13.585   7.959 -0.0583 -0.0132  0.1328
 1094loPI    C117161  11.575  16.966   5.435 -0.0814  0.0996  0.1043
 1094loPI    C217162  11.569  17.352   5.329 -0.0153  0.1260  0.1954
 1094loPI    C317163  11.610  17.069   5.050 -0.1924  0.1784  0.1149
 1094loPI   PO417164  11.612  17.032   5.752 -0.1321  0.0432  0.0887
 1094loPI   GL117165  11.944  17.043   6.033  0.0911  0.1823 -0.0196
 1094loPI   GL217166  11.810  16.694   6.081 -0.0765  0.0223  0.1722
 1094loPI   C1A17167  11.796  17.269   6.440 -0.1649  0.0486 -0.3075
 1094loPI   C2A17168  11.829  17.179   6.780  0.0602 -0.1179 -0.1459
 1094loPI   C3A17169  11.778  17.272   7.241 -0.0600  0.0001  0.0789
 1094loPI   C4A17170  11.812  17.198   7.634 -0.1425  0.3810 -0.0953
 1094loPI   C5A17171  11.968  17.215   8.058 -0.1329  0.0371 -0.0719
 1094loPI   C6A17172  12.150  17.616   8.227 -0.3577  0.0749 -0.1308
 1094loPI   C1B17173  11.695  16.741   6.413 -0.0608  0.1520  0.2043
 1094loPI   C2B17174  11.761  16.662   6.838  0.0519 -0.0875  0.1739
 1094loPI   C3B17175  11.860  16.693   7.285 -0.1889 -0.1891  0.1307
 1094loPI   C4B17176  11.809  16.697   7.700  0.1190  0.1610 -0.0416
 1095loPI    C117177  15.014   8.470   4.984 -0.1804  0.0192 -0.0392
 1095loPI    C217178  15.161   8.827   4.882  0.0230 -0.0425  0.0316
 1095loPI    C317179  15.376   8.497   4.818 -0.2619 -0.1787 -0.2541
 1095loPI   PO417180  14.917   8.485   5.173  0.0816  0.0614  0.0814
 1095loPI   GL117181  14.871   8.610   5.623 -0.0647  0.0423  0.3076
 1095loPI   GL217182  14.778   8.963   5.753 -0.1814 -0.3214  0.1450
 1095loPI   C1A17183  15.060   8.709   6.120  0.1277  0.0367 -0.1672
 1095loPI   C2A17184  15.054   8.934   6.527  0.0921  0.2446  0.0041
 1095loPI   C3A17185  15.122   8.849   6.859 -0.2567  0.0741 -0.0701
 1095loPI   C4A17186  15.132   8.747   7.151 -0.5028  0.1306  0.3081
 1095loPI   C5A17187  15.174   8.769   7.585 -0.0402 -0.0179  0.0802
 1095loPI   C6A17188  15.326   8.653   7.945 -0.1166  0.0473  0.1074
 1095loPI   C1B17189  14.902   9.222   6.080  0.0193  0.1626 -0.4614
 1095loPI   C2B17190  15.038   9.398   6.433  0.0959  0.1578  0.0047
 1095loPI   C3B17191  15.177   9.339   6.881  0.0342  0.1991  0.1105
 1095loPI   C4B17192  15.094   9.249   7.335 -0.1339 -0.1779  0.0079
 1096loPI    C117193   1.547  11.250   5.313  0.1964  0.0503 -0.1896
 1096loPI    C217194   1.502  11.030   4.982 -0.1536  0.1114 -0.1870
 1096loPI    C317195   1.303  11.374   5.021  0.0868  0.2345 -0.0216
 1096loPI   PO417196   1.424  11.079   5.563 -0.2268 -0.0255  0.1305
 1096loPI   GL117197   1.364  11.153   5.987 -0.0338 -0.0909  0.0072
 1096loPI   GL217198   1.619  10.905   5.995  0.1395 -0.1253 -0.1769
 1096loPI   C1A17199   1.227  11.151   6.359  0.2552 -0.0442 -0.1933
 1096loPI   C2A17200   1.172  11.181   6.724  0.0177  0.1597 -0.1418
 1096loPI   C3A17201   1.192  11.166   7.131 -0.1417  0.1666  0.2411
 1096loPI   C4A17202   1.276  11.284   7.506  0.3763  0.2085 -0.0184
 1096loPI   C5A17203   1.212  11.393   7.988  0.4742  0.2235 -0.1015
 1096loPI   C6A17204   1.182  11.420   8.526 -0.0104 -0.0182  0.1089
 1096loPI   C1B17205   1.607  10.909   6.510 -0.2848  0.1475  0.0470
 1096loPI   C2B17206   1.635  10.994   6.841 -0.2085 -0.1435  0.0875
 1096loPI   C3B17207   1.708  10.983   7.191  0.0778  0.0221 -0.3314
 1096loPI   C4B17208   1.746  11.040   7.550  0.2706  0.0408  0.0434
 1097loPI    C117209   8.801  10.381   5.602 -0.1826 -0.1091  0.0590
 1097loPI    C217210   8.471  10.400   5.377 -0.0355  0.0991 -0.1424
 1097loPI    C317211   8.824  10.316   5.208  0.0245 -0.0705  0.0638
 1097loPI   PO417212   8.666  10.344   5.846 -0.1181  0.0209  0.0061
 1097loPI   GL117213   8.636  10.145   6.247  0.2111  0.2488 -0.2704
 1097loPI   GL217214   8.351  10.060   6.218  0.3248 -0.3556  0.0726
 1097loPI   C1A17215   8.772  10.222   6.676  0.3110 -0.1546 -0.0733
 1097loPI   C2A17216   8.893  10.163   7.124  0.2034  0.0127  0.2287
 1097loPI   C3A17217   8.810  10.032   7.473  0.0915  0.3478 -0.1462
 1097loPI   C4A17218   8.863  10.002   7.921  0.1159 -0.0038  0.2747
 1097loPI   C5A17219   8.623   9.725   8.163 -0.1142  0.0049 -0.0634
 1097loPI   C6A17220   8.303   9.699   8.362 -0.2545 -0.0128 -0.1289
 1097loPI   C1B17221   8.249  10.221   6.644  0.0386  0.1112  0.0647
 1097loPI   C2B17222   8.358  10.301   7.088 -0.1247  0.0083  0.0232
 1097loPI   C3B17223   8.378  10.351   7.561 -0.2807 -0.0708 -0.0076
 1097loPI   C4B17224   8.354  10.365   7.947 -0.0415  0.0059  0.1272
 1098loPI    C117225  14.553   3.683   5.313 -0.4339 -0.0675  0.1089
 1098loPI    C217226  14.405   3.923   5.029  0.3197  0.0808 -0.1823
 1098loPI    C317227  14.473   3.537   4.949 -0.0367 -0.0238 -0.0009
 1098loPI   PO417228  14.454   3.789   5.581  0.0074  0.1666 -0.2319
 1098loPI   GL117229  14.476   3.598   6.083  0.0980 -0.2025  0.2189
 1098loPI   GL217230  14.362   3.300   6.212 -0.1587  0.0202 -0.0502
 1098loPI   C1A17231  14.831   3.885   6.182 -0.0831 -0.2979  0.1372
 1098loPI   C2A17232  14.761   3.928   6.525 -0.0767 -0.2074 -0.1778
 1098loPI   C3A17233  14.768   3.798   7.038 -0.0095 -0.1894 -0.0423
 1098loPI   C4A17234  14.788   3.813   7.541  0.2234  0.0859  0.0205
 1098loPI   C5A17235  14.790   3.767   7.960  0.1973  0.4027  0.2773
 1098loPI   C6A17236  14.571   3.836   8.297 -0.4193 -0.1578  0.0768
 1098loPI   C1B17237  14.282   3.445   6.547  0.2121 -0.0729  0.2632
 1098loPI   C2B17238  14.225   3.548   6.968 -0.0628  0.2605  0.2010
 1098loPI   C3B17239  14.350   3.540   7.295 -0.1445  0.2374 -0.2749
 1098loPI   C4B17240  14.369   3.558   7.693 -0.1373  0.0031  0.0328
 1099loPI    C117241  17.485  13.639   5.608  0.0233  0.0055  0.1169
 1099loPI    C217242  17.628  13.602   5.236  0.0318  0.2020  0.0993
 1099loPI    C317243  17.319  13.377   5.355  0.1548 -0.0023  0.0377
 1099loPI   PO417244  17.696  13.727   5.784 -0.1917 -0.0814 -0.0517
 1099loPI   GL117245  17.877  13.419   6.056  0.0421 -0.2507  0.0099
 1099loPI   GL217246  17.824  13.173   6.085  0.0273 -0.0892  0.1524
 1099loPI   C1A17247  17.780  13.554   6.433 -0.0407  0.3956 -0.1577
 1099loPI   C2A17248  17.727  13.517   6.868  0.0475 -0.2090 -0.1191
 1099loPI   C3A17249  17.741  13.573   7.314  0.2587  0.4914 -0.2544
 1099loPI   C4A17250  17.749  13.509   7.775 -0.0123 -0.2123  0.0014
 1099loPI   C5A17251  17.747  13.479   8.244 -0.3312  0.3519  0.2053
 1099loPI   C6A17252  17.853  13.823   8.500  0.0072 -0.2404 -0.2230
 1099loPI   C1B17253  17.737  13.038   6.544  0.0469 -0.0816 -0.0389
 1099loPI   C2B17254  17.723  13.074   7.054 -0.1449  0.3062  0.2935
 1099loPI   C3B17255  17.797  12.952   7.513  0.0946 -0.1706 -0.2246
 1099loPI   C4B17256  17.661  12.976   7.894  0.2629  0.0329 -0.1935
 1100loPI    C117257   8.409  13.549   5.573 -0.1185 -0.1986  0.0608
 1100loPI    C217258   8.536  13.584   5.196 -0.0969 -0.2761  0.0607
 1100loPI    C317259   8.331  13.882   5.366 -0.2157 -0.2916 -0.0536
 1100loPI   PO417260   8.578  13.467   5.714  0.0426  0.3321  0.0900
 1100loPI   GL117261   8.527  13.178   6.095  0.2471  0.0028  0.2676
 1100loPI   GL217262   8.308  13.311   6.130  0.2104  0.0812 -0.0565
 1100loPI   C1A17263   8.721  13.131   6.552  0.2894 -0.3815 -0.0395
 1100loPI   C2A17264   8.879  13.142   6.903  0.2464  0.0906 -0.0256
 1100loPI   C3A17265   8.835  13.151   7.314 -0.1203 -0.0967  0.0172
 1100loPI   C4A17266   8.795  13.076   7.723 -0.2346  0.5454  0.1570
 1100loPI   C5A17267   8.742  13.053   8.182 -0.3332  0.0022 -0.1194
 1100loPI   C6A17268   8.656  13.038   8.683  0.1577 -0.1427 -0.2209
 1100loPI   C1B17269   8.303  13.435   6.622  0.1303  0.0675 -0.0643
 1100loPI   C2B17270   8.397  13.407   7.116 -0.1162  0.3780 -0.2467
 1100loPI   C3B17271   8.425  13.369   7.574  0.2324  0.2105  0.0076
 1100loPI   C4B17272   8.442  13.382   8.010  0.2262  0.0577 -0.0354
 1101loPI    C117273  16.038   3.549   5.348  0.2719  0.0931  0.1051
 1101loPI    C217274  15.886   3.267   5.108  0.2463  0.0864  0.1291
 1101loPI    C317275  16.188   3.497   4.981  0.0988  0.2189  0.0148
 1101loPI   PO417276  15.889   3.464   5.581  0.3638  0.1015  0.2226
 1101loPI   GL117277  15.889   3.197   5.915  0.0385  0.1139  0.0748
 1101loPI   GL217278  16.239   3.272   6.032 -0.0798 -0.2978 -0.1315
 1101loPI   C1A17279  15.708   3.366   6.201  0.0236  0.0353  0.0413
 1101loPI   C2A17280  15.704   3.322   6.670 -0.0450  0.1276  0.1975
 1101loPI   C3A17281  15.669   3.406   7.166  0.1830 -0.0071  0.3707
 1101loPI   C4A17282  15.723   3.326   7.547 -0.1859  0.0983 -0.1991
 1101loPI   C5A17283  15.762   3.297   7.992  0.1001 -0.2105  0.1030
 1101loPI   C6A17284  15.562   3.054   8.310  0.0342  0.0209 -0.1405
 1101loPI   C1B17285  16.121   3.092   6.501  0.0463  0.1242  0.1281
 1101loPI   C2B17286  16.061   3.074   6.979 -0.0762 -0.2222  0.1279
 1101loPI   C3B17287  16.149   3.088   7.399 -0.1507 -0.0465  0.0950
 1101loPI   C4B17288  16.271   3.067   7.889 -0.0462  0.2137  0.0243
 1102loPI    C117289  11.808  15.494   5.329 -0.0467  0.1157  0.0567
 1102loPI    C217290  11.917  15.149   5.159 -0.3618  0.0629 -0.0444
 1102loPI    C317291  12.028  15.496   4.995  0.0694  0.0138  0.1317
 1102loPI   PO417292  11.831  15.428   5.587  0.0662 -0.1616 -0.1752
 1102loPI   GL117293  11.761  15.275   6.013  0.2195 -0.2477 -0.0691
 1102loPI   GL217294  11.480  15.369   6.235 -0.1774  0.0923  0.2145
 1102loPI   C1A17295  11.816  15.150   6.416 -0.0140 -0.0136 -0.4564
 1102loPI   C2A17296  11.836  15.066   6.813  0.1608  0.3507  0.2471
 1102loPI   C3A17297  11.892  15.080   7.231 -0.1712  0.0714  0.0659
 1102loPI   C4A17298  11.892  15.144   7.714  0.0413  0.0367 -0.0045
 1102loPI   C5A17299  11.927  15.251   8.166 -0.0795  0.2287  0.0270
 1102loPI   C6A17300  11.668  15.517   8.418 -0.2612  0.0142  0.0348
 1102loPI   C1B17301  11.466  15.398   6.696  0.0120  0.0129 -0.0653
 1102loPI   C2B17302  11.488  15.352   7.251  0.0101 -0.4911 -0.0767
 1102loPI   C3B17303  11.468  15.354   7.601 -0.1576  0.0292  0.1881
 1102loPI   C4B17304  11.285  15.313   7.981 -0.2612  0.0055 -0.0648
 1103loPI    C117305   9.075  15.040   5.727  0.2643 -0.0906  0.0944
 1103loPI    C217306   9.266  14.866   5.422  0.0059 -0.0161 -0.1138
 1103loPI    C317307   8.955  15.108   5.351  0.1091  0.2135  0.1950
 1103loPI   PO417308   9.045  14.871   5.964  0.1141  0.0807 -0.0221
 1103loPI   GL117309   9.061  14.544   6.155 -0.1395 -0.2314  0.1601
 1103loPI   GL217310   9.113  14.274   6.142 -0.3515  0.0669 -0.3827
 1103loPI   C1A17311   9.159  14.601   6.601  0.1155 -0.1397  0.1137
 1103loPI   C2A17312   9.202  14.512   7.052  0.1856  0.3736 -0.2084
 1103loPI   C3A17313   9.191  14.479   7.477  0.2117  0.0189 -0.0446
 1103loPI   C4A17314   9.225  14.500   7.822 -0.0520  0.2440  0.2128
 1103loPI   C5A17315   9.147  14.404   8.289  0.3142  0.1451 -0.2847
 1103loPI   C6A17316   8.711  14.277   8.522 -0.1613 -0.1508  0.1494
 1103loPI   C1B17317   9.100  14.065   6.566  0.0481  0.1208 -0.0642
 1103loPI   C2B17318   9.222  14.011   6.956 -0.1630  0.4601  0.0137
 1103loPI   C3B17319   9.241  13.961   7.441  0.0085  0.4159 -0.1104
 1103loPI   C4B17320   9.136  14.006   7.812  0.0609  0.2042 -0.1529
 1104loPI    C117321  12.709  11.244   5.294 -0.1308 -0.0385 -0.1738
 1104loPI    C217322  13.074  11.365   5.183 -0.0829 -0.0379 -0.0184
 1104loPI    C317323  12.761  11.426   4.941  0.0228 -0.0578 -0.1618
 1104loPI   PO417324  12.764  11.228   5.589 -0.2251 -0.0521  0.1953
 1104loPI   GL117325  12.603  11.035   5.948 -0.1611 -0.2295  0.0076
 1104loPI   GL217326  12.419  11.280   6.051 -0.0365  0.1165 -0.2491
 1104loPI   C1A17327  12.883  11.099   6.255  0.2814  0.4423  0.0530
 1104loPI   C2A17328  12.814  11.053   6.711  0.1782  0.3235 -0.1899
 1104loPI   C3A17329  12.853  10.986   7.219 -0.1233  0.1516 -0.1092
 1104loPI   C4A17330  12.815  11.044   7.651  0.3998 -0.5580 -0.0027
 1104loPI   C5A17331  12.855  11.110   8.090  0.0279 -0.1053  0.1456
 1104loPI   C6A17332  12.884  10.863   8.429  0.3663  0.2315  0.0660
 1104loPI   C1B17333  12.405  11.155   6.446  0.2357 -0.2563  0.1959
 1104loPI   C2B17334  12.361  11.223   6.889 -0.2871  0.1111  0.0755
 1104loPI   C3B17335  12.345  11.326   7.345 -0.2747  0.1858  0.0667
 1104loPI   C4B17336  12.399  11.355   7.857  0.0172  0.0057  0.4035
 1105loPI    C117337  16.903  10.101   4.957  0.1170  0.0764  0.1369
 1105loPI    C217338  16.936   9.827   4.668  0.0111  0.1568  0.0480
 1105loPI    C317339  16.601  10.042   4.702  0.1119  0.3090  0.0874
 1105loPI   PO417340  16.947   9.951   5.217 -0.0205 -0.0076  0.0564
 1105loPI   GL117341  16.964   9.901   5.648 -0.1611  0.3194 -0.0168
 1105loPI   GL217342  16.959   9.759   5.896  0.0352  0.1438  0.0289
 1105loPI   C1A17343  16.951  10.251   6.039  0.3124  0.0960  0.1304
 1105loPI   C2A17344  16.939  10.368   6.430 -0.2105  0.1907 -0.2829
 1105loPI   C3A17345  16.875  10.383   6.822 -0.1020  0.1334 -0.1632
 1105loPI   C4A17346  16.957  10.407   7.306 -0.1265 -0.0252 -0.1484
 1105loPI   C5A17347  16.975  10.504   7.771 -0.0502 -0.2889  0.0432
 1105loPI   C6A17348  16.790  10.645   8.303  0.1966 -0.2212  0.0234
 1105loPI   C1B17349  16.923   9.803   6.284  0.2248  0.0225  0.0543
 1105loPI   C2B17350  16.942   9.880   6.699  0.3459  0.0320  0.2644
 1105loPI   C3B17351  16.933   9.880   7.177 -0.1382 -0.0307 -0.1949
 1105loPI   C4B17352  17.066   9.818   7.584 -0.0356  0.1619  0.0571
 1106loPI    C117353  15.268   8.020   5.024 -0.4633 -0.0230 -0.1458
 1106loPI    C217354  15.540   8.050   4.732 -0.2793 -0.0471  0.0212
 1106loPI    C317355  15.151   8.030   4.642 -0.2255 -0.0282 -0.2203
 1106loPI   PO417356  15.345   8.160   5.176 -0.2274  0.1863 -0.2077
 1106loPI   GL117357  15.221   8.182   5.584 -0.1075 -0.3133 -0.2004
 1106loPI   GL217358  15.518   8.287   5.638  0.1526 -0.3526  0.0990
 1106loPI   C1A17359  15.011   8.258   5.961  0.0337  0.2062 -0.2953
 1106loPI   C2A17360  15.085   8.263   6.462 -0.2038 -0.1848 -0.0366
 1106loPI   C3A17361  15.170   8.298   6.906 -0.1037  0.0920 -0.0539
 1106loPI   C4A17362  15.211   8.278   7.320  0.2592  0.1061 -0.3867
 1106loPI   C5A17363  15.175   8.182   7.762 -0.0995  0.5570 -0.0703
 1106loPI   C6A17364  15.099   8.289   8.166 -0.0252  0.1763 -0.0753
 1106loPI   C1B17365  15.459   8.054   5.981  0.1459  0.0607 -0.0537
 1106loPI   C2B17366  15.542   8.046   6.409 -0.0950  0.1162 -0.2311
 1106loPI   C3B17367  15.597   8.056   6.913  0.2653 -0.1037  0.0959
 1106loPI   C4B17368  15.583   7.958   7.302 -0.3176 -0.0162  0.3115
 1107loPI    C117369   6.155   4.115   6.213  0.0818 -0.0465  0.1695
 1107loPI    C217370   5.948   3.788   6.111  0.0546 -0.1146  0.4331
 1107loPI    C317371   6.308   3.857   5.949 -0.2032  0.0484 -0.0941
 1107loPI   PO417372   5.946   4.155   6.537  0.1255  0.1124 -0.0418
 1107loPI   GL117373   5.911   3.952   6.867  0.0178  0.1668 -0.0401
 1107loPI   GL217374   5.718   3.666   6.975  0.3955  0.1189 -0.2008
 1107loPI   C1A17375   6.149   4.119   7.254  0.0855 -0.0559 -0.1931
 1107loPI   C2A17376   5.959   4.300   7.643 -0.0868 -0.1625  0.1357
 1107loPI   C3A17377   5.758   4.414   8.089 -0.0026  0.0803 -0.1003
 1107loPI   C4A17378   5.739   4.494   8.437  0.1589 -0.3042  0.0800
 1107loPI   C5A17379   5.871   4.657   8.744 -0.0295 -0.0947  0.0998
 1107loPI   C6A17380   6.054   4.626   9.149  0.1121 -0.0933  0.0444
 1107loPI   C1B17381   6.190   3.617   7.142 -0.4669 -0.1088 -0.2274
 1107loPI   C2B17382   6.535   3.913   7.060  0.2622  0.1624  0.2267
 1107loPI   C3B17383   6.906   4.305   7.227  0.1665  0.4295 -0.0762
 1107loPI   C4B17384   6.823   4.717   7.277 -0.1877 -0.2700 -0.1748
 1108loPI    C117385  13.871   9.121   5.329  0.1063  0.0590  0.1039
 1108loPI    C217386  13.804   8.732   5.266 -0.0545  0.0931  0.0599
 1108loPI    C317387  14.063   8.930   5.035  0.0695  0.0001  0.1178
 1108loPI   PO417388  13.876   9.120   5.589 -0.3661 -0.1349  0.2657
 1108loPI   GL117389  13.908   8.933   5.953  0.4358 -0.0230  0.1200
 1108loPI   GL217390  13.651   9.046   6.019 -0.2495 -0.0610 -0.1425
 1108loPI   C1A17391  14.057   8.724   6.254  0.0005 -0.0581 -0.0632
 1108loPI   C2A17392  14.102   8.692   6.712 -0.0308  0.1570 -0.0534
 1108loPI   C3A17393  14.202   8.731   7.030  0.1591  0.0663 -0.0119
 1108loPI   C4A17394  14.277   8.705   7.467  0.0821 -0.0827 -0.0553
 1108loPI   C5A17395  14.295   8.738   7.925  0.1561 -0.1038 -0.0144
 1108loPI   C6A17396  14.317   8.633   8.275 -0.0491 -0.0574  0.0611
 1108loPI   C1B17397  13.672   9.009   6.551  0.0082 -0.1547  0.2393
 1108loPI   C2B17398  13.761   8.965   7.046  0.0239 -0.0575  0.0013
 1108loPI   C3B17399  13.778   8.940   7.542 -0.0037  0.0014 -0.0785
 1108loPI   C4B17400  13.537   9.052   7.938 -0.1755  0.1483 -0.0749
 1109loPI    C117401  10.716   3.143   5.491 -0.0652  0.0420  0.1113
 1109loPI    C217402  10.997   2.891   5.356 -0.1436  0.1101 -0.1855
 1109loPI    C317403  10.654   2.935   5.155 -0.3023  0.1482  0.0879
 1109loPI   PO417404  10.893   3.289   5.739  0.2209  0.1135 -0.1748
 1109loPI   GL117405  10.912   3.203   6.213 -0.1183 -0.0335 -0.2446
 1109loPI   GL217406  11.106   2.897   6.231 -0.0535 -0.0207 -0.0112
 1109loPI   C1A17407  11.162   3.213   6.570 -0.4309 -0.0786 -0.2276
 1109loPI   C2A17408  11.198   3.203   6.973 -0.1346  0.4730  0.2201
 1109loPI   C3A17409  11.259   3.165   7.452  0.2254 -0.1860  0.0292
 1109loPI   C4A17410  11.014   3.274   7.922 -0.0518  0.0362  0.1793
 1109loPI   C5A17411  11.099   3.193   8.335 -0.0133 -0.1759  0.0648
 1109loPI   C6A17412  10.999   3.083   8.699  0.1066  0.1680 -0.3157
 1109loPI   C1B17413  11.170   2.654   6.558  0.0563 -0.1778 -0.1113
 1109loPI   C2B17414  11.213   2.702   7.009  0.0162 -0.2118  0.3586
 1109loPI   C3B17415  11.374   2.660   7.404 -0.1152 -0.2440 -0.3420
 1109loPI   C4B17416  11.572   2.659   7.885  0.0698 -0.0994 -0.0505
 1110loPI    C117417   1.995   8.288   5.198  0.1472 -0.1010  0.0511
 1110loPI    C217418   1.628   8.344   5.048  0.2422  0.0395 -0.1328
 1110loPI    C317419   1.841   8.023   4.941  0.1285 -0.1042  0.0657
 1110loPI   PO417420   2.092   8.338   5.486  0.6133  0.0795 -0.1169
 1110loPI   GL117421   2.057   8.260   5.913  0.1659 -0.0847  0.3583
 1110loPI   GL217422   2.268   7.954   5.800  0.1884 -0.4207 -0.0449
 1110loPI   C1A17423   2.096   8.480   6.226 -0.2167  0.1791 -0.2813
 1110loPI   C2A17424   2.110   8.547   6.698 -0.1214 -0.1362  0.0950
 1110loPI   C3A17425   2.085   8.598   7.180  0.1726 -0.0750  0.3050
 1110loPI   C4A17426   2.143   8.716   7.675  0.0828  0.1665  0.2301
 1110loPI   C5A17427   2.451   8.665   8.043 -0.0761 -0.0320 -0.3034
 1110loPI   C6A17428   2.869   8.617   8.174 -0.1436 -0.1127 -0.1279
 1110loPI   C1B17429   2.148   7.967   6.302  0.3222  0.0841 -0.1737
 1110loPI   C2B17430   2.188   8.054   6.758  0.3744 -0.1122 -0.0193
 1110loPI   C3B17431   2.129   8.072   7.106  0.1044  0.1768 -0.0030
 1110loPI   C4B17432   2.194   8.055   7.496  0.0475 -0.0325 -0.2868
 1111loPI    C117433   0.473   2.569   5.729  0.0413  0.0240 -0.0676
 1111loPI    C217434   0.360   2.837   5.454 -0.1485  0.0086 -0.0061
 1111loPI    C317435   0.336   2.446   5.373  0.0449  0.0078 -0.0634
 1111loPI   PO417436   0.631   2.656   5.831  0.0764 -0.0708 -0.1182
 1111loPI   GL117437   0.591   2.785   6.262 -0.1225 -0.0852 -0.0671
 1111loPI   GL217438   0.720   3.089   6.264  0.2356 -0.0344 -0.1748
 1111loPI   C1A17439   0.541   2.871   6.716  0.0130 -0.1979 -0.1397
 1111loPI   C2A17440   0.484   2.941   7.042 -0.0026  0.2987 -0.0583
 1111loPI   C3A17441   0.519   2.810   7.508 -0.1877 -0.1389  0.2949
 1111loPI   C4A17442   0.563   2.662   7.949 -0.1738  0.2991 -0.1270
 1111loPI   C5A17443   1.020   2.565   8.186 -0.1466  0.0504  0.1258
 1111loPI   C6A17444   1.178   2.403   8.597 -0.0611  0.0596 -0.0958
 1111loPI   C1B17445   0.973   3.097   6.710  0.0686  0.6175 -0.0343
 1111loPI   C2B17446   0.919   3.096   7.191 -0.1430 -0.2059 -0.1237
 1111loPI   C3B17447   0.983   3.075   7.681 -0.3691 -0.1790  0.1912
 1111loPI   C4B17448   1.048   3.160   8.114  0.0718  0.2579  0.0601
 1112loPI    C117449  10.278  12.620   5.635 -0.2987  0.0716 -0.0395
 1112loPI    C217450  10.079  12.529   5.300 -0.0251 -0.1495 -0.1462
 1112loPI    C317451  10.479  12.541   5.298 -0.0252 -0.0097  0.1394
 1112loPI   PO417452  10.075  12.645   5.840  0.1162 -0.0164 -0.0461
 1112loPI   GL117453  10.173  12.580   6.167  0.1633 -0.2410 -0.0234
 1112loPI   GL217454  10.555  12.638   6.046  0.1538  0.1032  0.3793
 1112loPI   C1A17455  10.108  12.476   6.611  0.1327  0.0857  0.1755
 1112loPI   C2A17456  10.149  12.437   7.086 -0.2993 -0.0178 -0.1003
 1112loPI   C3A17457  10.171  12.441   7.492  0.1222 -0.0793  0.1983
 1112loPI   C4A17458  10.167  12.574   7.901 -0.1064  0.0695 -0.1724
 1112loPI   C5A17459  10.177  12.986   8.019  0.2361 -0.2277  0.2116
 1112loPI   C6A17460   9.972  13.169   8.376 -0.1267 -0.1462  0.4207
 1112loPI   C1B17461  10.552  12.759   6.461  0.0254  0.1299 -0.1097
 1112loPI   C2B17462  10.560  12.712   6.859  0.3566  0.0822 -0.2811
 1112loPI   C3B17463  10.595  12.735   7.295 -0.1525 -0.2379  0.2047
 1112loPI   C4B17464  10.678  12.787   7.712 -0.0333  0.2151 -0.1895
 1113loPI    C117465  11.319  12.222   5.453 -0.2319  0.1518 -0.2499
 1113loPI    C217466  11.060  11.937   5.561  0.0772 -0.1040 -0.1692
 1113loPI    C317467  11.267  11.901   5.220  0.1483  0.0035 -0.1378
 1113loPI   PO417468  11.436  12.216   5.672 -0.0267  0.0259 -0.1441
 1113loPI   GL117469  11.235  12.227   6.023 -0.4355 -0.0271 -0.0654
 1113loPI   GL217470  10.999  12.085   6.093  0.2570  0.0344 -0.2469
 1113loPI   C1A17471  11.419  12.231   6.437  0.1376  0.4713  0.0374
 1113loPI   C2A17472  11.494  12.246   6.857  0.2294  0.2034 -0.1582
 1113loPI   C3A17473  11.460  12.253   7.235  0.2247  0.2195  0.2114
 1113loPI   C4A17474  11.549  12.272   7.619 -0.0832 -0.1106 -0.1386
 1113loPI   C5A17475  11.533  12.281   8.061 -0.1642 -0.2407 -0.1535
 1113loPI   C6A17476  11.526  12.090   8.524  0.2633 -0.2500 -0.2660
 1113loPI   C1B17477  10.963  11.957   6.462  0.1142 -0.1785  0.0381
 1113loPI   C2B17478  11.008  11.987   6.888  0.1033  0.0464  0.1506
 1113loPI   C3B17479  11.048  11.968   7.327  0.1382  0.1620 -0.1418
 1113loPI   C4B17480  11.079  12.007   7.801  0.0046  0.0291 -0.1967
 1114loPI    C117481   9.388  15.341   5.438 -0.2578 -0.1096 -0.2484
 1114loPI    C217482   9.737  15.203   5.298 -0.0360  0.0291  0.1507
 1114loPI    C317483   9.509  15.440   5.070  0.1522 -0.0239 -0.0963
 1114loPI   PO417484   9.493  15.445   5.661 -0.0185  0.3654 -0.2101
 1114loPI   GL117485   9.391  15.571   6.017 -0.0684  0.0762  0.0637
 1114loPI   GL217486   9.314  15.247   6.091 -0.0193  0.1761 -0.1528
 1114loPI   C1A17487   9.543  15.540   6.428 -0.1822 -0.1277 -0.1664
 1114loPI   C2A17488   9.570  15.393   6.881  0.1441 -0.1717 -0.3329
 1114loPI   C3A17489   9.626  15.320   7.353 -0.1506 -0.0686  0.3340
 1114loPI   C4A17490   9.701  15.233   7.784  0.1422  0.0497 -0.2111
 1114loPI   C5A17491   9.558  15.078   8.218  0.1650  0.1863 -0.2128
 1114loPI   C6A17492   9.541  14.894   8.626 -0.0965 -0.3198  0.1402
 1114loPI   C1B17493   9.153  15.229   6.526  0.1795 -0.4302  0.0316
 1114loPI   C2B17494   9.197  15.077   6.932  0.0399 -0.0719  0.2381
 1114loPI   C3B17495   9.173  15.114   7.360 -0.2818  0.1123 -0.2004
 1114loPI   C4B17496   9.242  14.948   7.637  0.1085  0.1041  0.1198
 1115loPI    C117497   7.774   1.542   5.967  0.2178 -0.0130  0.1022
 1115loPI    C217498   7.946   1.902   5.932 -0.1708  0.1723  0.0463
 1115loPI    C317499   7.850   1.693   5.604 -0.0199  0.0521  0.0777
 1115loPI   PO417500   7.845   1.488   6.234  0.3450  0.3964 -0.2897
 1115loPI   GL117501   8.207   1.351   6.550 -0.1959 -0.1037  0.0917
 1115loPI   GL217502   8.465   1.604   6.599  0.0160  0.0535 -0.0383
 1115loPI   C1A17503   8.331   1.144   6.835 -0.1726  0.2644  0.2638
 1115loPI   C2A17504   8.330   1.205   7.298 -0.1529 -0.3647 -0.1068
 1115loPI   C3A17505   8.569   1.154   7.600  0.1502  0.0084  0.0235
 1115loPI   C4A17506   8.583   0.950   7.906  0.3151  0.0531  0.1971
 1115loPI   C5A17507   8.580   1.144   8.274 -0.0036 -0.2767  0.2403
 1115loPI   C6A17508   8.226   1.240   8.523 -0.2820 -0.5241 -0.0594
 1115loPI   C1B17509   8.503   1.780   7.041  0.0827  0.0454  0.1907
 1115loPI   C2B17510   8.596   2.187   7.280  0.4362 -0.1567 -0.0421
 1115loPI   C3B17511   8.745   2.162   7.763  0.2538  0.1571 -0.0336
 1115loPI   C4B17512   8.659   1.909   8.085 -0.0290 -0.3598  0.1981
 1116loPI    C117513  11.738  17.834   5.563  0.0479 -0.0158 -0.1806
 1116loPI    C217514  11.355  17.721   5.546  0.0948 -0.1770 -0.1808
 1116loPI    C317515  11.555  17.802   5.209  0.1472 -0.3901 -0.2027
 1116loPI   PO417516  11.691  17.992   5.777  0.0093 -0.3439 -0.3185
 1116loPI   GL117517  11.545  18.075   6.136  0.2902  0.2343 -0.0407
 1116loPI   GL217518  11.368  17.959   6.376 -0.1241 -0.1721 -0.0432
 1116loPI   C1A17519  11.788  18.215   6.394  0.0230 -0.1360  0.1185
 1116loPI   C2A17520  11.756  18.195   6.858  0.0804  0.0025  0.2792
 1116loPI   C3A17521  11.817  18.194   7.336 -0.0697 -0.1235 -0.1324
 1116loPI   C4A17522  11.887  18.233   7.850 -0.1233  0.2755  0.0034
 1116loPI   C5A17523  11.851  18.073   8.232  0.0887  0.0998 -0.4589
 1116loPI   C6A17524  11.731  17.803   8.610  0.0915 -0.1021 -0.1737
 1116loPI   C1B17525  11.295  18.036   6.795 -0.0940 -0.0196  0.4141
 1116loPI   C2B17526  11.370  17.956   7.221 -0.2984 -0.0446  0.2354
 1116loPI   C3B17527  11.412  17.977   7.755  0.1123 -0.0284  0.0016
 1116loPI   C4B17528  11.373  17.974   8.106  0.1031  0.1933  0.0634
 1117loPI    C117529  15.409  14.675   5.214 -0.0081  0.0128 -0.1288
 1117loPI    C217530  15.234  15.002   5.064  0.0983  0.2191  0.1857
 1117loPI    C317531  15.562  14.853   4.890 -0.0582  0.1665 -0.0692
 1117loPI   PO417532  15.363  14.723   5.522 -0.1363  0.0632  0.0078
 1117loPI   GL117533  15.407  14.449   5.830  0.1140  0.1417  0.0563
 1117loPI   GL217534  15.532  14.765   6.016 -0.0018  0.0911  0.1281
 1117loPI   C1A17535  15.421  14.358   6.209 -0.1221  0.2276 -0.0681
 1117loPI   C2A17536  15.500  14.283   6.664 -0.0859 -0.2759 -0.2226
 1117loPI   C3A17537  15.469  14.162   6.963 -0.1056 -0.1701 -0.0276
 1117loPI   C4A17538  15.479  14.082   7.368  0.2186 -0.0389  0.1216
 1117loPI   C5A17539  15.497  14.215   7.827 -0.0723  0.3453  0.0033
 1117loPI   C6A17540  15.579  13.973   8.250  0.0652  0.0769  0.0306
 1117loPI   C1B17541  15.495  14.788   6.505 -0.0228  0.2107  0.4643
 1117loPI   C2B17542  15.519  14.736   6.946 -0.0894  0.3289  0.1117
 1117loPI   C3B17543  15.468  14.608   7.325 -0.0723  0.1381  0.0063
 1117loPI   C4B17544  15.451  14.738   7.791  0.0573 -0.4434  0.0462
 1118loPI    C117545   6.841   1.016   5.948 -0.1814 -0.0950 -0.0952
 1118loPI    C217546   6.984   0.659   5.841 -0.1676 -0.1118 -0.0212
 1118loPI    C317547   7.105   0.988   5.649 -0.1379 -0.1408 -0.0526
 1118loPI   PO417548   6.912   1.068   6.172 -0.0501 -0.1945  0.1796
 1118loPI   GL117549   7.051   1.170   6.633 -0.1309  0.2009  0.1854
 1118loPI   GL217550   6.868   1.403   6.698 -0.2655 -0.1746 -0.4998
 1118loPI   C1A17551   7.021   0.860   6.957  0.0543 -0.2160  0.3201
 1118loPI   C2A17552   6.946   0.989   7.405  0.0838 -0.0228 -0.3990
 1118loPI   C3A17553   7.136   1.223   7.790  0.0472 -0.0932 -0.1130
 1118loPI   C4A17554   7.175   1.165   8.181 -0.2797 -0.0043  0.0460
 1118loPI   C5A17555   7.258   0.859   8.362 -0.1027 -0.1222 -0.0214
 1118loPI   C6A17556   7.131   0.473   8.555  0.2970 -0.2021  0.2724
 1118loPI   C1B17557   6.927   1.390   7.088  0.2199 -0.2326  0.0720
 1118loPI   C2B17558   7.106   1.612   7.438  0.1428  0.1380  0.0837
 1118loPI   C3B17559   7.268   1.806   7.790 -0.0664 -0.1623 -0.2227
 1118loPI   C4B17560   7.515   1.716   8.095  0.0273 -0.0131  0.0627
 1119loPI    C117561  10.548   2.239   5.444 -0.0284  0.1154 -0.0717
 1119loPI    C217562  10.568   2.180   5.049  0.1641 -0.0694 -0.0362
 1119loPI    C317563  10.782   2.472   5.219 -0.0270  0.1012 -0.0849
 1119loPI   PO417564  10.615   2.061   5.567  0.0825 -0.1296 -0.1664
 1119loPI   GL117565  10.656   2.030   5.981 -0.1671  0.1120 -0.0682
 1119loPI   GL217566  10.640   2.364   5.953  0.3717 -0.1225 -0.0983
 1119loPI   C1A17567  10.654   1.879   6.285  0.1871 -0.0047  0.1006
 1119loPI   C2A17568  10.902   1.828   6.695  0.2671 -0.1419  0.1635
 1119loPI   C3A17569  10.830   1.815   7.168  0.3741 -0.4371 -0.3141
 1119loPI   C4A17570  11.001   1.892   7.519  0.3570 -0.1744 -0.0597
 1119loPI   C5A17571  10.900   1.870   7.910  0.0244  0.2602  0.0001
 1119loPI   C6A17572  10.885   1.917   8.379 -0.0977 -0.1133  0.1374
 1119loPI   C1B17573  10.750   2.422   6.397 -0.0695  0.3439 -0.3590
 1119loPI   C2B17574  10.829   2.380   6.836 -0.0200  0.0980 -0.0719
 1119loPI   C3B17575  10.895   2.384   7.330  0.0141  0.0382  0.2955
 1119loPI   C4B17576  10.996   2.375   7.747  0.3338  0.0307 -0.0866
 1120loPI    C117577   3.351   1.146   5.757 -0.0907 -0.0829  0.0234
 1120loPI    C217578   3.369   1.427   5.474 -0.2084  0.0471  0.1433
 1120loPI    C317579   3.214   1.068   5.390  0.0937 -0.0403 -0.0553
 1120loPI   PO417580   3.277   1.255   5.959 -0.0844 -0.3313 -0.0952
 1120loPI   GL117581   3.211   1.534   6.289 -0.1510  0.0893  0.1353
 1120loPI   GL217582   3.334   1.775   6.456 -0.2852 -0.0729  0.1264
 1120loPI   C1A17583   2.997   1.381   6.643 -0.4385  0.1856 -0.6217
 1120loPI   C2A17584   2.973   1.312   7.020  0.0195  0.2668 -0.2217
 1120loPI   C3A17585   2.973   1.237   7.476  0.1522  0.0652 -0.2436
 1120loPI   C4A17586   2.969   1.168   7.904 -0.0473 -0.2360  0.2166
 1120loPI   C5A17587   2.932   1.015   8.334  0.0060 -0.2076 -0.3493
 1120loPI   C6A17588   2.853   0.647   8.613 -0.3213 -0.0770 -0.0153
 1120loPI   C1B17589   3.454   1.644   6.886  0.0710  0.2386 -0.1503
 1120loPI   C2B17590   3.324   1.541   7.268  0.0623 -0.1450  0.3222
 1120loPI   C3B17591   3.401   1.498   7.732 -0.2034 -0.0275 -0.3260
 1120loPI   C4B17592   3.529   1.301   8.076 -0.0828  0.0702  0.0948
 1121loPI    C117593  13.579  12.029   5.180  0.1385  0.0467 -0.1849
 1121loPI    C217594  13.235  11.838   5.107  0.0364  0.1186  0.0976
 1121loPI    C317595  13.415  12.043   4.815 -0.1261  0.0267 -0.0692
 1121loPI   PO417596  13.465  12.149   5.427 -0.3108 -0.0299 -0.2359
 1121loPI   GL117597  13.391  12.113   5.927  0.1323  0.0520 -0.1640
 1121loPI   GL217598  13.725  12.031   5.852  0.3798  0.3497  0.3924
 1121loPI   C1A17599  13.301  11.879   6.290  0.2403 -0.1244  0.2412
 1121loPI   C2A17600  13.349  11.794   6.722  0.1208 -0.0019 -0.1660
 1121loPI   C3A17601  13.265  11.858   7.267 -0.2073  0.1477  0.1407
 1121loPI   C4A17602  13.266  11.762   7.673  0.1306 -0.1653 -0.0588
 1121loPI   C5A17603  13.358  11.968   8.021  0.0435 -0.4012 -0.2470
 1121loPI   C6A17604  13.068  11.924   8.406 -0.1038 -0.0961 -0.0332
 1121loPI   C1B17605  13.717  12.158   6.341  0.4594 -0.0856 -0.2919
 1121loPI   C2B17606  13.777  12.060   6.811 -0.3404 -0.2437 -0.2160
 1121loPI   C3B17607  13.686  12.080   7.145 -0.0454  0.2000 -0.0644
 1121loPI   C4B17608  13.771  11.964   7.541  0.1405 -0.1612  0.1070
 1122loPI    C117609  17.896   6.477   5.245  0.0564  0.0561 -0.0388
 1122loPI    C217610  17.968   6.088   5.187 -0.0063  0.0466 -0.0537
 1122loPI    C317611  18.102   6.359   4.924  0.1394  0.0450  0.0184
 1122loPI   PO417612  17.990   6.523   5.494 -0.0867 -0.0454 -0.2036
 1122loPI   GL117613  17.749   6.554   5.925  0.1724  0.3983 -0.0318
 1122loPI   GL217614  17.384   6.424   5.917  0.0774  0.1317  0.0428
 1122loPI   C1A17615  17.815   6.776   6.296 -0.1862 -0.0635 -0.1422
 1122loPI   C2A17616  17.874   6.731   6.772  0.0328  0.2536 -0.2823
 1122loPI   C3A17617  17.856   6.861   7.175  0.0759  0.0160  0.3337
 1122loPI   C4A17618  17.790   6.758   7.530  0.0645  0.3328  0.0204
 1122loPI   C5A17619  17.867   7.022   7.813  0.1162 -0.1644 -0.3801
 1122loPI   C6A17620  18.125   7.280   8.099  0.0960  0.2345 -0.1046
 1122loPI   C1B17621  17.338   6.500   6.362 -0.0780  0.0299  0.0508
 1122loPI   C2B17622  17.359   6.582   6.708  0.2027 -0.1561  0.2290
 1122loPI   C3B17623  17.471   6.522   7.016  0.4004 -0.1126 -0.1131
 1122loPI   C4B17624  17.430   6.469   7.318  0.2431  0.0120  0.1475
 1123loPI    C117625   3.297   6.909   5.420 -0.0639 -0.0093 -0.0282
 1123loPI    C217626   3.630   7.020   5.227 -0.0289 -0.2314 -0.0978
 1123loPI    C317627   3.275   7.047   5.045 -0.0356 -0.1097 -0.0671
 1123loPI   PO417628   3.290   6.999   5.596 -0.4061  0.1105 -0.4824
 1123loPI   GL117629   3.125   6.844   5.938 -0.0587 -0.4521  0.0058
 1123loPI   GL217630   3.166   6.530   5.842  0.1929  0.3299 -0.1609
 1123loPI   C1A17631   3.069   6.973   6.395  0.0414 -0.1476 -0.4029
 1123loPI   C2A17632   3.177   7.010   6.888 -0.2372 -0.0036 -0.0186
 1123loPI   C3A17633   3.249   7.041   7.328  0.0436  0.0052 -0.0649
 1123loPI   C4A17634   3.101   7.206   7.725  0.1286 -0.2644  0.0739
 1123loPI   C5A17635   2.754   7.203   8.090 -0.2489 -0.0949 -0.0267
 1123loPI   C6A17636   2.623   7.328   8.491  0.1875 -0.2137 -0.0615
 1123loPI   C1B17637   3.179   6.503   6.320  0.0423  0.0840  0.0814
 1123loPI   C2B17638   3.088   6.532   6.802  0.0864  0.1512 -0.1436
 1123loPI   C3B17639   3.172   6.586   7.228  0.1534 -0.0540  0.1425
 1123loPI   C4B17640   3.053   6.565   7.579 -0.1268 -0.1696  0.2082
 1124loPI    C117641   6.225  14.239   5.564  0.0446  0.0315  0.2218
 1124loPI    C217642   5.854  14.142   5.447  0.0739  0.1573  0.0197
 1124loPI    C317643   6.162  14.093   5.196  0.1640  0.2583  0.1094
 1124loPI   PO417644   6.174  14.212   5.842  0.1533 -0.3258  0.1296
 1124loPI   GL117645   6.175  14.119   6.181  0.0990 -0.0042  0.1198
 1124loPI   GL217646   6.068  13.815   6.286  0.2501 -0.0112  0.0976
 1124loPI   C1A17647   6.112  14.234   6.592  0.0025 -0.1218  0.2029
 1124loPI   C2A17648   6.053  14.192   7.048 -0.1630  0.0395 -0.1466
 1124loPI   C3A17649   6.184  14.174   7.436  0.2560  0.2538  0.1445
 1124loPI   C4A17650   6.127  14.201   7.881 -0.1426 -0.1276  0.0568
 1124loPI   C5A17651   6.326  14.077   8.284 -0.0547  0.2577 -0.0696
 1124loPI   C6A17652   6.710  13.913   8.338 -0.0182 -0.1423 -0.1603
 1124loPI   C1B17653   6.137  13.640   6.688  0.1552  0.0119  0.2289
 1124loPI   C2B17654   6.095  13.710   7.161  0.0176 -0.2296  0.0815
 1124loPI   C3B17655   6.061  13.735   7.650  0.0642  0.0885  0.0408
 1124loPI   C4B17656   6.121  13.655   7.973  0.1749  0.0696  0.0474
 1125loPI    C117657  13.924  16.598   5.710 -0.0141 -0.0050 -0.1433
 1125loPI    C217658  13.538  16.503   5.755 -0.0315  0.0744 -0.1243
 1125loPI    C317659  13.699  16.521   5.389 -0.1008  0.2542 -0.1469
 1125loPI   PO417660  14.152  16.518   5.876 -0.1007 -0.2676 -0.1116
 1125loPI   GL117661  14.072  16.487   6.371  0.3325  0.0793 -0.0053
 1125loPI   GL217662  13.835  16.345   6.210 -0.1308 -0.0745 -0.2488
 1125loPI   C1A17663  14.121  16.431   6.777 -0.2098  0.0703  0.0439
 1125loPI   C2A17664  14.185  16.350   7.203 -0.2816 -0.3890 -0.1808
 1125loPI   C3A17665  14.172  16.367   7.582 -0.0977  0.0937 -0.2378
 1125loPI   C4A17666  14.061  16.390   8.042 -0.1565 -0.0369 -0.3302
 1125loPI   C5A17667  13.916  16.653   8.372  0.1507 -0.1176  0.1298
 1125loPI   C6A17668  13.963  16.910   8.711 -0.3633  0.1542  0.1329
 1125loPI   C1B17669  13.641  16.274   6.618 -0.3163  0.1438  0.0543
 1125loPI   C2B17670  13.653  16.277   7.078 -0.1419  0.2148 -0.3137
 1125loPI   C3B17671  13.644  16.153   7.493 -0.1586  0.1024 -0.1067
 1125loPI   C4B17672  13.652  16.109   7.883 -0.2472  0.1762  0.1308
 1126loPI    C117673  13.320   2.711   5.401 -0.1593  0.1655 -0.0720
 1126loPI    C217674  13.228   3.058   5.224 -0.0344  0.2182 -0.0348
 1126loPI    C317675  13.086   2.714   5.077  0.2267  0.2426 -0.3579
 1126loPI   PO417676  13.375   2.893   5.676  0.0391 -0.0841  0.1522
 1126loPI   GL117677  13.388   3.039   6.009  0.2642  0.2688  0.1732
 1126loPI   GL217678  13.056   3.113   5.923  0.1372 -0.1736 -0.0199
 1126loPI   C1A17679  13.419   3.000   6.452 -0.0721  0.0882  0.0589
 1126loPI   C2A17680  13.383   3.012   6.918  0.2273 -0.1047 -0.1146
 1126loPI   C3A17681  13.435   3.061   7.355 -0.0682 -0.0232  0.1767
 1126loPI   C4A17682  13.569   3.009   7.680  0.1628  0.1864  0.0410
 1126loPI   C5A17683  13.529   2.836   8.174 -0.0368 -0.0061 -0.2173
 1126loPI   C6A17684  13.670   2.480   8.326  0.1226 -0.0668  0.2672
 1126loPI   C1B17685  13.009   3.244   6.320 -0.2528  0.2094  0.1063
 1126loPI   C2B17686  12.956   3.249   6.759  0.0874  0.0231 -0.0190
 1126loPI   C3B17687  12.924   3.264   7.197 -0.3621  0.0422  0.1465
 1126loPI   C4B17688  13.080   3.138   7.673  0.3133 -0.2706 -0.4099
 1127loPI    C117689   9.279  17.491   5.401  0.0138  0.2517 -0.0722
 1127loPI    C217690   9.581  17.229   5.393 -0.2303 -0.0341 -0.0930
 1127loPI    C317691   9.329  17.255   5.083 -0.2905  0.1277 -0.0318
 1127loPI   PO417692   9.171  17.482   5.678 -0.1694 -0.0308 -0.2277
 1127loPI   GL117693   9.171  17.571   6.080  0.0613  0.0282 -0.0007
 1127loPI   GL217694   9.415  17.502   6.302  0.0581 -0.0163  0.1412
 1127loPI   C1A17695   9.030  17.287   6.399  0.1084 -0.0438 -0.1207
 1127loPI   C2A17696   9.216  17.167   6.782  0.3191  0.2799  0.0577
 1127loPI   C3A17697   9.171  17.131   7.254  0.1235 -0.2670 -0.0303
 1127loPI   C4A17698   9.162  17.091   7.721 -0.2772 -0.2205  0.4002
 1127loPI   C5A17699   9.118  17.036   8.124 -0.4533 -0.2035 -0.0670
 1127loPI   C6A17700   9.108  17.057   8.504  0.1874  0.1726  0.2017
 1127loPI   C1B17701   9.605  17.470   6.677  0.0538  0.0935 -0.0199
 1127loPI   C2B17702   9.598  17.460   7.111 -0.1593 -0.0654 -0.1395
 1127loPI   C3B17703   9.561  17.285   7.575  0.0132 -0.2270  0.0827
 1127loPI   C4B17704   9.552  17.307   8.004 -0.0976 -0.1042  0.1639
 1128loPI    C117705   3.928  17.904   5.886 -0.0393 -0.1585  0.0304
 1128loPI    C217706   3.693  18.205   5.767  0.0990 -0.0384  0.0588
 1128loPI    C317707   3.648  17.841   5.608 -0.1210 -0.0220  0.0808
 1128loPI   PO417708   3.954  17.888   6.119 -0.1567 -0.1477  0.1518
 1128loPI   GL117709   3.914  17.877   6.552 -0.1750  0.3871 -0.1815
 1128loPI   GL217710   3.684  18.110   6.549 -0.0461  0.1773  0.0867
 1128loPI   C1A17711   4.074  17.661   6.913 -0.1235  0.0266  0.1020
 1128loPI   C2A17712   4.051  17.647   7.341 -0.0803 -0.0879  0.0955
 1128loPI   C3A17713   3.886  17.610   7.670 -0.1770  0.0049  0.1680
 1128loPI   C4A17714   3.887  17.836   8.025  0.0539  0.0846  0.4415
 1128loPI   C5A17715   3.863  17.945   8.408 -0.1033  0.0122 -0.3981
 1128loPI   C6A17716   3.893  18.314   8.681 -0.1899  0.0877 -0.0403
 1128loPI   C1B17717   3.543  17.817   6.883 -0.2227 -0.1270 -0.0947
 1128loPI   C2B17718   3.542  17.844   7.358 -0.1414 -0.0180  0.4405
 1128loPI   C3B17719   3.409  17.748   7.807 -0.0787  0.0541 -0.1621
 1128loPI   C4B17720   3.458  17.638   8.244  0.1023  0.0217 -0.4666
 1129loPI    C117721   3.228   4.947   5.678 -0.1278 -0.3784  0.0266
 1129loPI    C217722   3.345   4.892   5.299 -0.1154 -0.1227 -0.0089
 1129loPI    C317723   3.594   4.805   5.600 -0.0158 -0.0470 -0.0692
 1129loPI   PO417724   3.125   5.253   5.752 -0.0512  0.4383  0.1237
 1129loPI   GL117725   3.086   5.583   6.023 -0.2749 -0.0392 -0.1773
 1129loPI   GL217726   3.288   5.355   6.187 -0.0995 -0.2251 -0.3411
 1129loPI   C1A17727   2.791   5.730   6.401 -0.0286 -0.1390 -0.2161
 1129loPI   C2A17728   2.704   5.771   6.847  0.0939 -0.1314  0.2224
 1129loPI   C3A17729   2.738   5.690   7.291 -0.0680  0.0302  0.0225
 1129loPI   C4A17730   2.804   5.798   7.791  0.0599  0.1112  0.0098
 1129loPI   C5A17731   2.656   6.040   8.178 -0.1222  0.0061  0.0945
 1129loPI   C6A17732   2.664   6.181   8.562  0.0290 -0.0355 -0.2020
 1129loPI   C1B17733   3.324   5.528   6.612  0.1336 -0.1496  0.0881
 1129loPI   C2B17734   3.182   5.562   6.996 -0.0714  0.3483 -0.1544
 1129loPI   C3B17735   3.174   5.548   7.433 -0.1285 -0.0524 -0.0589
 1129loPI   C4B17736   3.042   5.366   7.861 -0.0947 -0.0313 -0.0125
 1130loPI    C117737   3.479  10.189   5.616  0.1796  0.0499 -0.0453
 1130loPI    C217738   3.811  10.172   5.393  0.2105  0.0314  0.0021
 1130loPI    C317739   3.464  10.037   5.246  0.2252  0.0451 -0.0452
 1130loPI   PO417740   3.549  10.161   5.820  0.2398  0.5244 -0.0204
 1130loPI   GL117741   3.446  10.435   6.203 -0.2349 -0.1878 -0.1459
 1130loPI   GL217742   3.666  10.511   6.270  0.0033  0.1178 -0.0531
 1130loPI   C1A17743   3.460  10.283   6.635  0.2594 -0.0063  0.0238
 1130loPI   C2A17744   3.542  10.443   7.119  0.2758  0.1565  0.2926
 1130loPI   C3A17745   3.495  10.524   7.629 -0.2435 -0.2566 -0.4047
 1130loPI   C4A17746   3.563  10.607   8.042 -0.1231 -0.0884 -0.0756
 1130loPI   C5A17747   3.551  10.889   8.320  0.0297 -0.0212  0.0709
 1130loPI   C6A17748   3.413  11.004   8.595  0.1206 -0.0263 -0.0151
 1130loPI   C1B17749   3.820  10.630   6.635  0.1530  0.0739  0.0471
 1130loPI   C2B17750   3.949  10.704   6.935  0.2928  0.1995 -0.2213
 1130loPI   C3B17751   3.973  10.681   7.390 -0.2406 -0.2248  0.4607
 1130loPI   C4B17752   4.021  10.734   7.814 -0.0402 -0.0550  0.2768
 1131loPI    C117753   0.710   5.747   5.172  0.0630 -0.1424 -0.0668
 1131loPI    C217754   0.716   6.039   4.899  0.1181 -0.1565 -0.0807
 1131loPI    C317755   1.048   5.949   5.104  0.0877 -0.1742 -0.0390
 1131loPI   PO417756   0.421   5.828   5.456  0.0440 -0.0542 -0.2584
 1131loPI   GL117757   0.341   5.889   5.939 -0.0577 -0.0963  0.2210
 1131loPI   GL217758   0.117   5.697   6.098 -0.1194 -0.0309  0.0939
 1131loPI   C1A17759   0.429   6.029   6.388 -0.2246 -0.1017  0.0854
 1131loPI   C2A17760   0.412   6.001   6.863  0.4408 -0.1473 -0.0159
 1131loPI   C3A17761   0.432   6.043   7.203 -0.2610  0.3298 -0.1246
 1131loPI   C4A17762   0.439   6.075   7.574  0.1229  0.0885  0.1480
 1131loPI   C5A17763   0.149   6.394   7.943  0.1898  0.1233 -0.0456
 1131loPI   C6A17764  -0.224   6.666   8.152 -0.3733  0.0774 -0.0657
 1131loPI   C1B17765   0.020   5.790   6.552  0.2534 -0.2027 -0.2796
 1131loPI   C2B17766   0.029   5.639   6.954  0.1279 -0.5106  0.0452
 1131loPI   C3B17767   0.068   5.715   7.345 -0.0399  0.2543  0.3152
 1131loPI   C4B17768  -0.012   5.881   7.715 -0.0470 -0.1516 -0.1099
 1132loPI    C117769  14.722   0.020   5.290 -0.0407 -0.0547 -0.1121
 1132loPI    C217770  14.562   0.372   5.188 -0.0699 -0.1031 -0.2349
 1132loPI    C317771  14.760   0.157   4.916  0.2102 -0.0413 -0.0835
 1132loPI   PO417772  14.789   0.097   5.572 -0.0738 -0.0711  0.2130
 1132loPI   GL117773  14.689   0.171   5.937  0.2233 -0.0781 -0.1847
 1132loPI   GL217774  14.804   0.423   6.165  0.2233 -0.2231 -0.3546
 1132loPI   C1A17775  14.544   0.073   6.377  0.0860 -0.0949  0.0830
 1132loPI   C2A17776  14.453  -0.127   6.779 -0.1480 -0.1821  0.0200
 1132loPI   C3A17777  14.458  -0.199   7.209 -0.0878 -0.1872 -0.1592
 1132loPI   C4A17778  14.532  -0.190   7.654  0.4645  0.2922  0.1603
 1132loPI   C5A17779  14.528  -0.274   8.002 -0.0694 -0.0969 -0.0817
 1132loPI   C6A17780  14.536  -0.596   8.466  0.1406  0.0426  0.2944
 1132loPI   C1B17781  14.757   0.554   6.721 -0.1082 -0.4089 -0.0622
 1132loPI   C2B17782  14.911   0.575   7.224 -0.1054 -0.1712  0.1052
 1132loPI   C3B17783  14.929   0.619   7.640 -0.1837  0.3923  0.2052
 1132loPI   C4B17784  15.103   0.525   8.124  0.0488 -0.0741  0.1079
 1133loPI    C117785   1.515   9.882   5.426  0.2284  0.2378  0.1575
 1133loPI    C217786   1.854   9.676   5.373 -0.0479 -0.1020 -0.3701
 1133loPI    C317787   1.762   9.977   5.126 -0.1266 -0.0025 -0.2211
 1133loPI   PO417788   1.557  10.006   5.712  0.0192  0.2977  0.3029
 1133loPI   GL117789   1.759   9.999   6.103  0.1663 -0.1567  0.3479
 1133loPI   GL217790   1.659   9.735   6.260 -0.2056  0.0251  0.0386
 1133loPI   C1A17791   1.652  10.398   6.474  0.3399 -0.2591  0.1498
 1133loPI   C2A17792   1.714  10.403   6.899 -0.0391  0.2780  0.0886
 1133loPI   C3A17793   1.755  10.495   7.413 -0.2433 -0.1411  0.1728
 1133loPI   C4A17794   1.729  10.390   7.849  0.2200  0.2513  0.0460
 1133loPI   C5A17795   1.558  10.572   8.281  0.2664  0.3351 -0.2967
 1133loPI   C6A17796   1.744  10.788   8.635  0.2528 -0.0744 -0.2137
 1133loPI   C1B17797   1.713   9.923   6.655 -0.2107  0.0320 -0.3876
 1133loPI   C2B17798   1.700   9.875   7.001 -0.3418 -0.0694 -0.3004
 1133loPI   C3B17799   1.785   9.932   7.448  0.2452  0.1531  0.2761
 1133loPI   C4B17800   1.845   9.941   7.895 -0.1764 -0.1601 -0.0517
 1134loPI    C117801  11.480  14.976   5.402 -0.2279  0.4536  0.3446
 1134loPI    C217802  11.150  15.197   5.357 -0.1415  0.4902 -0.1724
 1134loPI    C317803  11.236  14.910   5.092 -0.0557  0.0818  0.2821
 1134loPI   PO417804  11.496  14.985   5.685 -0.4014 -0.0847 -0.0028
 1134loPI   GL117805  11.464  14.716   6.086 -0.0698  0.2148 -0.1416
 1134loPI   GL217806  11.777  14.743   6.092  0.0955  0.1399  0.4205
 1134loPI   C1A17807  11.353  14.911   6.506  0.1044 -0.0481 -0.3287
 1134loPI   C2A17808  11.386  14.864   7.004 -0.2018 -0.3039  0.1113
 1134loPI   C3A17809  11.469  14.871   7.477 -0.2078 -0.0627 -0.3361
 1134loPI   C4A17810  11.499  14.858   7.871 -0.3249 -0.1997 -0.0358
 1134loPI   C5A17811  11.625  14.910   8.340 -0.0013 -0.1123  0.3813
 1134loPI   C6A17812  11.961  14.787   8.749 -0.0762  0.0775 -0.1795
 1134loPI   C1B17813  11.854  14.681   6.395 -0.2035  0.2709 -0.1813
 1134loPI   C2B17814  11.768  14.555   6.803 -0.1459 -0.2592  0.2858
 1134loPI   C3B17815  11.884  14.541   7.230  0.1682 -0.1451  0.0933
 1134loPI   C4B17816  11.849  14.627   7.590 -0.3580  0.2356 -0.1290
 1135loPI    C117817   2.514  14.402   5.345  0.0528  0.0499  0.3200
 1135loPI    C217818   2.904  14.448   5.422  0.0877  0.1300  0.1029
 1135loPI    C317819   2.773  14.452   5.044 -0.0679 -0.3312  0.1458
 1135loPI   PO417820   2.449  14.432   5.646 -0.0499 -0.1759  0.1154
 1135loPI   GL117821   2.462  14.489   5.989  0.0210 -0.1896 -0.1294
 1135loPI   GL217822   2.890  14.386   5.993 -0.2334 -0.0542  0.1154
 1135loPI   C1A17823   2.541  14.451   6.357  0.0055  0.1901 -0.0864
 1135loPI   C2A17824   2.453  14.584   6.814 -0.1725 -0.0803 -0.2063
 1135loPI   C3A17825   2.461  14.592   7.293  0.4328 -0.0304 -0.0127
 1135loPI   C4A17826   2.483  14.558   7.621  0.1808  0.0160 -0.0301
 1135loPI   C5A17827   2.497  14.566   8.074  0.0817 -0.0706  0.0062
 1135loPI   C6A17828   2.451  14.845   8.458  0.0038 -0.0457 -0.1195
 1135loPI   C1B17829   3.004  14.250   6.377  0.0224 -0.0300  0.1757
 1135loPI   C2B17830   2.927  14.371   6.843 -0.2610  0.2280  0.1475
 1135loPI   C3B17831   2.933  14.261   7.309  0.0537  0.5589  0.0527
 1135loPI   C4B17832   2.887  14.338   7.732 -0.2917 -0.0463 -0.0706
 1136loPI    C117833   8.577   2.018   6.042  0.0039 -0.1079  0.3306
 1136loPI    C217834   8.756   1.732   5.829  0.4130  0.2219  0.2175
 1136loPI    C317835   8.407   1.884   5.706  0.3200 -0.0463  0.1422
 1136loPI   PO417836   8.548   2.035   6.251  0.0188  0.2517  0.0155
 1136loPI   GL117837   8.795   1.942   6.542 -0.3270 -0.0579 -0.2086
 1136loPI   GL217838   8.847   2.337   6.544 -0.2533 -0.1983  0.3754
 1136loPI   C1A17839   8.930   2.023   6.949 -0.0053 -0.0604 -0.1282
 1136loPI   C2A17840   9.061   1.884   7.339  0.1229 -0.1786 -0.2584
 1136loPI   C3A17841   9.166   1.749   7.761 -0.1345 -0.0552  0.1776
 1136loPI   C4A17842   9.540   1.672   7.981 -0.1955 -0.0811 -0.2328
 1136loPI   C5A17843   9.993   1.757   8.199 -0.0723 -0.1154  0.3139
 1136loPI   C6A17844  10.412   1.869   8.223  0.0556 -0.1312 -0.0548
 1136loPI   C1B17845   8.840   2.505   6.990 -0.0795 -0.0948  0.1186
 1136loPI   C2B17846   9.003   2.470   7.368  0.1547 -0.0481  0.0223
 1136loPI   C3B17847   9.196   2.311   7.684  0.3858 -0.1866 -0.0503
 1136loPI   C4B17848   9.200   2.087   8.114  0.2506  0.1554 -0.0995
 1137loPI    C117849  16.413   1.111   5.412 -0.0645  0.0526  0.0807
 1137loPI    C217850  16.435   1.332   5.079 -0.0858 -0.2736 -0.1426
 1137loPI    C317851  16.434   0.933   5.054 -0.0752 -0.3025  0.2523
 1137loPI   PO417852  16.572   1.197   5.580 -0.0210 -0.1241 -0.1393
 1137loPI   GL117853  16.680   1.290   5.988 -0.1481  0.0248  0.1331
 1137loPI   GL217854  16.862   1.393   6.021 -0.2124  0.1325 -0.0182
 1137loPI   C1A17855  16.581   1.330   6.400  0.0466  0.1058  0.0154
 1137loPI   C2A17856  16.679   1.368   6.796 -0.0687 -0.1898 -0.1679
 1137loPI   C3A17857  16.724   1.282   7.250 -0.0655 -0.3677  0.0359
 1137loPI   C4A17858  16.604   1.296   7.667 -0.0539  0.0915 -0.2057
 1137loPI   C5A17859  16.720   1.450   8.115 -0.1443  0.1180  0.0561
 1137loPI   C6A17860  16.760   1.504   8.613 -0.0715  0.1380 -0.1592
 1137loPI   C1B17861  17.041   1.491   6.496 -0.2391 -0.0312  0.2763
 1137loPI   C2B17862  17.122   1.564   6.965 -0.1866  0.3957 -0.1461
 1137loPI   C3B17863  17.090   1.635   7.316 -0.2078  0.0165  0.2932
 1137loPI   C4B17864  17.036   1.554   7.688  0.0238 -0.2502  0.1760
 1138loPI    C117865   0.725  16.246   5.513 -0.1815 -0.0613 -0.0227
 1138loPI    C217866   1.011  16.270   5.235 -0.1765 -0.0367 -0.0154
 1138loPI    C317867   0.733  15.984   5.210 -0.1527 -0.0593 -0.0237
 1138loPI   PO417868   0.942  16.264   5.767 -0.0139 -0.4635  0.0663
 1138loPI   GL117869   0.913  16.351   6.231 -0.0366  0.1095  0.0394
 1138loPI   GL217870   1.169  16.308   6.414  0.0432  0.2405 -0.0602
 1138loPI   C1A17871   0.725  16.125   6.465 -0.1519 -0.0806 -0.2889
 1138loPI   C2A17872   0.439  15.902   6.680  0.0555 -0.2143 -0.2307
 1138loPI   C3A17873   0.207  15.883   7.125  0.1001 -0.1701  0.0922
 1138loPI   C4A17874   0.112  15.859   7.443  0.0430  0.0813  0.2769
 1138loPI   C5A17875   0.156  15.923   7.789  0.0767  0.0277  0.1469
 1138loPI   C6A17876   0.158  16.098   8.208  0.3268 -0.1488  0.2763
 1138loPI   C1B17877   1.267  16.399   6.768 -0.0913  0.4381 -0.1312
 1138loPI   C2B17878   1.209  16.519   7.188  0.2432 -0.1462  0.1911
 1138loPI   C3B17879   1.054  16.431   7.604  0.2669 -0.0930  0.1926
 1138loPI   C4B17880   0.980  16.483   8.092  0.0088 -0.3645  0.0795
 1139loPI    C117881  13.318   8.981   5.144 -0.3021 -0.1985 -0.0645
 1139loPI    C217882  13.234   8.921   4.758 -0.1598 -0.1076 -0.1102
 1139loPI    C317883  13.609   9.000   4.871 -0.2626  0.2423  0.0005
 1139loPI   PO417884  13.268   8.734   5.283  0.1276 -0.1174  0.1763
 1139loPI   GL117885  13.497   8.732   5.703  0.1060 -0.1478  0.0183
 1139loPI   GL217886  13.223   8.819   5.915  0.2442  0.0562  0.0890
 1139loPI   C1A17887  13.627   8.508   6.082  0.0475 -0.0069  0.2124
 1139loPI   C2A17888  13.684   8.478   6.474  0.1072 -0.2828  0.1783
 1139loPI   C3A17889  13.733   8.452   6.970  0.0780  0.2053  0.3486
 1139loPI   C4A17890  13.850   8.397   7.470  0.2425  0.0790  0.0605
 1139loPI   C5A17891  13.819   8.561   7.910  0.2929 -0.0755 -0.0190
 1139loPI   C6A17892  13.987   8.989   8.196 -0.3343  0.1461 -0.3660
 1139loPI   C1B17893  13.258   8.807   6.276 -0.1485  0.0812  0.1271
 1139loPI   C2B17894  13.274   8.735   6.764  0.2310  0.0828 -0.0777
 1139loPI   C3B17895  13.325   8.725   7.199 -0.1674 -0.2890  0.0372
 1139loPI   C4B17896  13.372   8.692   7.669  0.1067  0.0373  0.1092
 1140loPI    C117897   0.816   8.170   5.090 -0.1230  0.1343  0.0712
 1140loPI    C217898   0.455   8.190   4.918 -0.1262  0.1940  0.0848
 1140loPI    C317899   0.721   8.483   4.860 -0.0609  0.1248  0.0325
 1140loPI   PO417900   0.813   8.053   5.239  0.2377  0.1548 -0.2611
 1140loPI   GL117901   0.878   8.264   5.670 -0.0021  0.0972  0.2131
 1140loPI   GL217902   1.051   8.034   5.717  0.0381 -0.1095 -0.1560
 1140loPI   C1A17903   0.802   8.399   6.091  0.0200  0.1799 -0.1420
 1140loPI   C2A17904   0.753   8.287   6.587 -0.0093  0.1027 -0.3931
 1140loPI   C3A17905   0.903   8.249   6.998 -0.0108  0.2047 -0.3771
 1140loPI   C4A17906   0.747   8.328   7.392 -0.3969  0.0395 -0.0928
 1140loPI   C5A17907   0.745   8.271   7.841  0.3514  0.3446 -0.0555
 1140loPI   C6A17908   0.765   8.249   8.241 -0.1040  0.1205 -0.0110
 1140loPI   C1B17909   1.199   8.046   6.157  0.1793 -0.3670 -0.0036
 1140loPI   C2B17910   1.216   7.982   6.601 -0.1005  0.0711  0.2330
 1140loPI   C3B17911   1.275   7.964   6.973  0.2539  0.1201  0.2228
 1140loPI   C4B17912   1.233   8.144   7.406 -0.0151  0.2941 -0.4100
 1141loPI    C117913   2.597   8.803   5.176  0.1909 -0.1280 -0.0499
 1141loPI    C217914   2.700   8.764   4.792 -0.1328 -0.0104 -0.1521
 1141loPI    C317915   2.393   8.555   4.938  0.0339 -0.1084  0.0631
 1141loPI   PO417916   2.788   8.700   5.405 -0.1653 -0.0242  0.2638
 1141loPI   GL117917   2.628   8.485   5.674 -0.2394 -0.0194  0.2329
 1141loPI   GL217918   2.987   8.471   5.982  0.3921 -0.1112 -0.0890
 1141loPI   C1A17919   2.560   8.261   6.066  0.3748 -0.0603 -0.1661
 1141loPI   C2A17920   2.537   8.231   6.414  0.0087 -0.0659 -0.1863
 1141loPI   C3A17921   2.631   8.320   6.856  0.0232  0.3000  0.2262
 1141loPI   C4A17922   2.576   8.275   7.306  0.1017  0.0820  0.3682
 1141loPI   C5A17923   2.808   8.383   7.727 -0.1098  0.2623 -0.1586
 1141loPI   C6A17924   2.921   8.137   8.088  0.0089 -0.0193 -0.0310
 1141loPI   C1B17925   2.955   8.510   6.502 -0.0057 -0.0075  0.0735
 1141loPI   C2B17926   3.016   8.616   6.983 -0.0158 -0.1506  0.2026
 1141loPI   C3B17927   3.009   8.636   7.334  0.2893  0.3183 -0.2310
 1141loPI   C4B17928   3.217   8.682   7.766 -0.2873  0.0615  0.0519
 1142loPI    C117929   1.342  12.141   5.367  0.1004 -0.1383 -0.0062
 1142loPI    C217930   1.071  11.874   5.243 -0.0331 -0.0225  0.0335
 1142loPI    C317931   1.084  12.239   5.078 -0.0831  0.0658  0.2219
 1142loPI   PO417932   1.236  12.255   5.662 -0.1413 -0.2550  0.1781
 1142loPI   GL117933   1.453  12.089   5.990 -0.3873 -0.0908 -0.0475
 1142loPI   GL217934   1.167  12.185   6.161 -0.3831 -0.1217  0.1135
 1142loPI   C1A17935   1.687  11.990   6.333  0.1402  0.5003  0.3873
 1142loPI   C2A17936   1.720  11.914   6.755  0.1367 -0.4869  0.2177
 1142loPI   C3A17937   1.736  11.992   7.196 -0.1630  0.0606  0.0078
 1142loPI   C4A17938   1.664  12.010   7.665 -0.0905 -0.1039 -0.2435
 1142loPI   C5A17939   1.947  11.928   8.039 -0.0462  0.0201 -0.2163
 1142loPI   C6A17940   2.212  11.620   8.128 -0.4192 -0.3790 -0.1591
 1142loPI   C1B17941   1.326  12.245   6.529 -0.2005  0.0858 -0.0284
 1142loPI   C2B17942   1.255  12.244   6.988 -0.1497 -0.1287  0.2210
 1142loPI   C3B17943   1.261  12.243   7.477  0.0198  0.0348  0.1970
 1142loPI   C4B17944   1.162  12.309   7.943 -0.2479  0.0759 -0.1640
 1143loPI    C117945   7.561  10.845   5.412 -0.1225  0.2872 -0.0379
 1143loPI    C217946   7.337  10.543   5.277  0.0672  0.0263  0.2171
 1143loPI    C317947   7.361  10.883   5.068 -0.2430 -0.0887 -0.0141
 1143loPI   PO417948   7.534  10.923   5.766 -0.0416 -0.0690  0.0835
 1143loPI   GL117949   7.209  10.877   5.979 -0.2428  0.1206  0.0850
 1143loPI   GL217950   6.989  11.062   5.962 -0.1925  0.2319 -0.4015
 1143loPI   C1A17951   7.435  10.807   6.372  0.1867  0.2615 -0.1938
 1143loPI   C2A17952   7.361  10.742   6.825  0.1349 -0.0187 -0.0994
 1143loPI   C3A17953   7.469  10.880   7.223 -0.0022  0.2004  0.2283
 1143loPI   C4A17954   7.492  10.951   7.669 -0.0693  0.0249 -0.0268
 1143loPI   C5A17955   7.435  10.735   8.166  0.0474 -0.0062 -0.3169
 1143loPI   C6A17956   7.595  10.682   8.633  0.2829  0.1165  0.0018
 1143loPI   C1B17957   6.962  11.074   6.486  0.1967 -0.2541 -0.2051
 1143loPI   C2B17958   6.997  11.008   6.941  0.1524  0.2468 -0.0958
 1143loPI   C3B17959   7.072  11.053   7.466  0.2329  0.0083  0.2582
 1143loPI   C4B17960   7.109  11.161   7.895  0.2001 -0.0910  0.3790
 1144loPI    C117961  12.313  14.804   5.304  0.0359  0.2233 -0.0065
 1144loPI    C217962  12.588  14.684   5.039 -0.0102  0.1467 -0.0200
 1144loPI    C317963  12.236  14.827   4.912 -0.0400  0.0917 -0.0002
 1144loPI   PO417964  12.512  14.781   5.564 -0.1632  0.0980 -0.0653
 1144loPI   GL117965  12.731  14.948   5.946 -0.0560 -0.1216 -0.1805
 1144loPI   GL217966  12.739  14.507   5.947 -0.0638 -0.3416 -0.0892
 1144loPI   C1A17967  12.695  15.166   6.349 -0.1306  0.1185  0.0091
 1144loPI   C2A17968  12.748  15.095   6.854  0.2494  0.3210  0.1139
 1144loPI   C3A17969  12.741  15.038   7.231  0.1748 -0.0435  0.2839
 1144loPI   C4A17970  12.851  15.022   7.758  0.0707  0.0378 -0.3957
 1144loPI   C5A17971  12.706  14.665   8.010  0.2520 -0.2139 -0.0646
 1144loPI   C6A17972  12.803  14.245   7.953  0.2236 -0.0032  0.1415
 1144loPI   C1B17973  12.705  14.624   6.386 -0.1563  0.0135  0.2416
 1144loPI   C2B17974  12.728  14.515   6.819  0.0345  0.0931  0.1185
 1144loPI   C3B17975  12.853  14.532   7.139 -0.1938 -0.2455 -0.0015
 1144loPI   C4B17976  12.765  14.590   7.479 -0.1070  0.1374  0.4517
 1145loPI    C117977   6.653   3.002   6.162 -0.0960 -0.1819  0.0399
 1145loPI    C217978   6.375   2.927   5.884  0.1280 -0.0018 -0.2385
 1145loPI    C317979   6.710   2.708   5.897 -0.0468 -0.2580  0.1343
 1145loPI   PO417980   6.545   2.975   6.437  0.0541  0.0720 -0.2580
 1145loPI   GL117981   6.588   2.781   6.893  0.1229  0.1806  0.1032
 1145loPI   GL217982   6.884   2.955   6.955  0.1328  0.1514 -0.1749
 1145loPI   C1A17983   6.149   2.773   7.111  0.0551 -0.1214  0.0021
 1145loPI   C2A17984   6.035   2.619   7.551 -0.0146 -0.0195  0.1390
 1145loPI   C3A17985   6.014   2.618   7.932  0.0645 -0.0721 -0.2120
 1145loPI   C4A17986   5.815   2.612   8.214 -0.2583 -0.1998  0.0462
 1145loPI   C5A17987   5.617   2.361   8.458  0.0420  0.3172  0.2171
 1145loPI   C6A17988   5.694   1.978   8.697  0.3900 -0.3554 -0.1153
 1145loPI   C1B17989   7.083   2.931   7.316  0.0597 -0.1114 -0.5365
 1145loPI   C2B17990   7.013   3.083   7.690  0.0095 -0.2185 -0.3772
 1145loPI   C3B17991   7.113   3.174   8.194  0.2113 -0.2011  0.3760
 1145loPI   C4B17992   7.189   2.998   8.532  0.0188 -0.2223  0.0622
 1146loPI    C117993   1.779  17.638   5.503  0.0805  0.0281 -0.0829
 1146loPI    C217994   1.511  17.581   5.212 -0.0945 -0.1311  0.1065
 1146loPI    C317995   1.673  17.943   5.266  0.1645 -0.1669 -0.3760
 1146loPI   PO417996   1.736  17.674   5.742  0.2924  0.1775 -0.2459
 1146loPI   GL117997   1.865  17.446   6.162 -0.1474  0.1803  0.0669
 1146loPI   GL217998   1.660  17.168   6.239  0.2678  0.1931 -0.0553
 1146loPI   C1A17999   1.752  17.768   6.504 -0.0405  0.2570 -0.3119
 1146loPI   C2A18000   1.690  17.807   6.922 -0.1102  0.1131  0.0794
 1146loPI   C3A18001   1.649  17.674   7.391  0.2015 -0.0285 -0.0450
 1146loPI   C4A18002   1.474  17.781   7.709 -0.1780  0.1561  0.0119
 1146loPI   C5A18003   1.102  18.002   7.987 -0.0952 -0.0933  0.0466
 1146loPI   C6A18004   0.939  18.339   8.211 -0.1385 -0.0865  0.1760
 1146loPI   C1B18005   1.714  17.217   6.716 -0.1467  0.0776 -0.0440
 1146loPI   C2B18006   1.686  17.166   7.125 -0.0125 -0.1821 -0.0100
 1146loPI   C3B18007   1.533  17.163   7.546 -0.0221  0.1852  0.0276
 1146loPI   C4B18008   1.477  17.260   8.018  0.0883  0.1301  0.0405
 1147loPI    C118009   4.122   5.030   5.608 -0.3806  0.0927 -0.0952
 1147loPI    C218010   4.055   4.705   5.386 -0.0315 -0.1440  0.1352
 1147loPI    C318011   4.197   5.037   5.216 -0.1049 -0.2071 -0.0522
 1147loPI   PO418012   3.966   4.858   5.921  0.1763  0.1435 -0.1195
 1147loPI   GL118013   3.931   5.108   6.253 -0.0323 -0.1561 -0.4437
 1147loPI   GL218014   4.061   5.419   6.239  0.1359  0.1732  0.0852
 1147loPI   C1A18015   3.784   5.322   6.656 -0.0036 -0.0693 -0.1482
 1147loPI   C2A18016   3.776   5.318   7.115  0.4252 -0.0183  0.0264
 1147loPI   C3A18017   3.549   5.283   7.507 -0.2110  0.0597 -0.3969
 1147loPI   C4A18018   3.328   4.973   7.737  0.0431  0.1054  0.1573
 1147loPI   C5A18019   3.369   4.813   8.142 -0.0987 -0.2879 -0.1003
 1147loPI   C6A18020   3.530   4.637   8.642  0.0047  0.1834  0.0343
 1147loPI   C1B18021   4.231   5.659   6.553  0.0771  0.0839  0.0536
 1147loPI   C2B18022   4.262   5.620   7.008  0.0493  0.1962  0.0856
 1147loPI   C3B18023   4.111   5.563   7.413 -0.0899 -0.2839  0.1991
 1147loPI   C4B18024   4.010   5.193   7.738  0.0220 -0.1895 -0.0734
 1148loPI    C118025  13.951   1.785   5.511  0.1205  0.0376 -0.0689
 1148loPI    C218026  13.751   1.511   5.299 -0.2727  0.2376  0.0319
 1148loPI    C318027  13.734   1.896   5.193  0.0743  0.2583  0.0378
 1148loPI   PO418028  13.931   1.774   5.770 -0.3598  0.0675  0.0315
 1148loPI   GL118029  14.049   2.027   6.081  0.1375 -0.1668 -0.4144
 1148loPI   GL218030  13.841   2.150   6.180  0.0659  0.2033  0.2383
 1148loPI   C1A18031  14.332   2.022   6.530 -0.1534 -0.0641  0.3350
 1148loPI   C2A18032  14.446   2.101   6.956 -0.1274  0.0941  0.2208
 1148loPI   C3A18033  14.413   1.933   7.400 -0.0265  0.0323  0.1758
 1148loPI   C4A18034  14.499   1.924   7.861 -0.1344 -0.1850  0.0908
 1148loPI   C5A18035  14.419   1.994   8.259  0.2012  0.1097 -0.1291
 1148loPI   C6A18036  14.349   1.889   8.674  0.2412  0.1396  0.0233
 1148loPI   C1B18037  13.816   2.239   6.527 -0.2337 -0.1046  0.1386
 1148loPI   C2B18038  13.852   2.361   6.881 -0.3057 -0.1205  0.0249
 1148loPI   C3B18039  13.879   2.227   7.312 -0.2367 -0.3482  0.1186
 1148loPI   C4B18040  14.041   2.177   7.747  0.1524  0.0922  0.0206
 1149loPI    C118041   7.813   7.487   6.018 -0.0501 -0.0233 -0.0156
 1149loPI    C218042   7.811   7.532   5.620  0.0989  0.0833 -0.0051
 1149loPI    C318043   8.143   7.610   5.828  0.1030 -0.2334  0.1116
 1149loPI   PO418044   7.636   7.463   6.071  0.0134 -0.3066  0.0173
 1149loPI   GL118045   7.303   7.333   6.364 -0.0308 -0.0230  0.0417
 1149loPI   GL218046   7.284   7.621   6.456 -0.1448 -0.0231  0.2020
 1149loPI   C1A18047   7.428   7.289   6.814  0.2118 -0.2803  0.1276
 1149loPI   C2A18048   7.281   7.354   7.211  0.0625  0.1779  0.0792
 1149loPI   C3A18049   7.000   7.368   7.515 -0.1363  0.0256 -0.4485
 1149loPI   C4A18050   6.896   7.390   7.982 -0.0817  0.4276  0.0160
 1149loPI   C5A18051   6.458   7.595   8.171  0.0529 -0.0128  0.0234
 1149loPI   C6A18052   5.960   7.714   8.088  0.2352 -0.0435  0.1520
 1149loPI   C1B18053   7.336   7.779   6.859 -0.2043 -0.0164  0.1216
 1149loPI   C2B18054   7.188   7.896   7.271  0.3103  0.2533 -0.1471
 1149loPI   C3B18055   6.857   7.998   7.530 -0.1653  0.1792  0.0750
 1149loPI   C4B18056   6.805   8.020   7.962 -0.1296 -0.0362 -0.0941
 1150loPI    C118057  11.877   2.558   5.535  0.0183 -0.0363  0.0668
 1150loPI    C218058  12.198   2.458   5.318 -0.0076  0.2067 -0.0883
 1150loPI    C318059  11.832   2.369   5.185 -0.0058 -0.1532  0.1326
 1150loPI   PO418060  11.933   2.438   5.781  0.1073 -0.1389  0.1926
 1150loPI   GL118061  12.133   2.601   6.094 -0.0068  0.1961  0.2001
 1150loPI   GL218062  12.172   2.262   6.188  0.1496 -0.1390 -0.1317
 1150loPI   C1A18063  12.060   2.747   6.503  0.1580 -0.0948 -0.1228
 1150loPI   C2A18064  12.067   2.783   6.901  0.2096 -0.1796 -0.1327
 1150loPI   C3A18065  12.185   2.665   7.266  0.2279  0.0566  0.1110
 1150loPI   C4A18066  12.161   2.675   7.687 -0.1036  0.2321 -0.1642
 1150loPI   C5A18067  12.092   2.879   8.049  0.0622  0.1845  0.3847
 1150loPI   C6A18068  11.789   2.747   8.360  0.2699  0.1170  0.2317
 1150loPI   C1B18069  12.085   2.184   6.626 -0.0370  0.1407  0.0771
 1150loPI   C2B18070  12.140   2.120   7.123  0.1223 -0.1131 -0.1657
 1150loPI   C3B18071  12.219   2.029   7.603 -0.2548  0.0548  0.6233
 1150loPI   C4B18072  12.405   1.934   8.014 -0.3843  0.1379 -0.0153
 1151loPI    C118073   7.245   6.807   5.943 -0.1369  0.1118  0.1382
 1151loPI    C218074   7.487   7.054   5.741  0.0128 -0.0669  0.0961
 1151loPI    C318075   7.173   6.887   5.557 -0.0531  0.0424  0.1080
 1151loPI   PO418076   7.255   6.901   6.120  0.2787  0.1858 -0.0955
 1151loPI   GL118077   7.114   6.883   6.557 -0.3361  0.0070  0.0980
 1151loPI   GL218078   7.478   6.804   6.590  0.2313 -0.0012  0.1509
 1151loPI   C1A18079   7.157   6.821   6.960  0.0120 -0.2112  0.1561
 1151loPI   C2A18080   7.120   6.731   7.436 -0.1183  0.1742  0.0537
 1151loPI   C3A18081   7.146   6.519   7.843 -0.0458  0.0135 -0.2190
 1151loPI   C4A18082   7.373   6.273   8.156 -0.0614  0.3691  0.0942
 1151loPI   C5A18083   7.542   6.088   8.531  0.1028  0.0064  0.1019
 1151loPI   C6A18084   7.273   5.832   8.873  0.0303 -0.0231  0.0218
 1151loPI   C1B18085   7.672   6.839   6.857 -0.0302 -0.0349  0.0105
 1151loPI   C2B18086   7.573   6.959   7.255 -0.1653  0.2315 -0.2597
 1151loPI   C3B18087   7.403   7.136   7.655 -0.1234 -0.1943 -0.0218
 1151loPI   C4B18088   7.245   6.980   8.102  0.0779  0.2889  0.3447
 1152loPI    C118089  14.404  16.168   5.599  0.0312 -0.1407 -0.0557
 1152loPI    C218090  14.515  16.241   5.222 -0.2339  0.0584 -0.0974
 1152loPI    C318091  14.127  16.248   5.322 -0.1709 -0.0706  0.1630
 1152loPI   PO418092  14.612  16.287   5.730 -0.4317 -0.1788  0.0190
 1152loPI   GL118093  14.585  16.433   6.144  0.0035 -0.1525 -0.0239
 1152loPI   GL218094  14.496  16.788   6.318  0.0899  0.2846  0.0421
 1152loPI   C1A18095  14.578  16.249   6.547 -0.1753 -0.1129 -0.0757
 1152loPI   C2A18096  14.618  16.201   6.950  0.1506  0.4308  0.2860
 1152loPI   C3A18097  14.568  16.156   7.425 -0.4926 -0.1620  0.3286
 1152loPI   C4A18098  14.533  16.084   7.858 -0.0559  0.0324  0.0482
 1152loPI   C5A18099  14.779  15.928   8.148  0.0868 -0.0017  0.1206
 1152loPI   C6A18100  15.065  15.572   8.313  0.1529  0.0078 -0.2860
 1152loPI   C1B18101  14.480  16.827   6.686  0.0799  0.4366  0.3238
 1152loPI   C2B18102  14.493  16.709   7.035 -0.4839  0.2212 -0.1279
 1152loPI   C3B18103  14.647  16.702   7.471 -0.0864  0.0008 -0.0010
 1152loPI   C4B18104  14.553  16.650   7.887  0.0365  0.4383  0.0115
 1153loPI    C118105   3.638  15.771   5.524 -0.1290 -0.0806 -0.1150
 1153loPI    C218106   3.595  15.431   5.318  0.0684 -0.0687 -0.1786
 1153loPI    C318107   3.678  15.772   5.126  0.0580 -0.0200 -0.0971
 1153loPI   PO418108   3.476  15.772   5.672 -0.1609 -0.0553 -0.2281
 1153loPI   GL118109   3.496  15.501   5.952  0.0856  0.1361  0.0029
 1153loPI   GL218110   3.786  15.629   6.077  0.0062 -0.1875  0.1004
 1153loPI   C1A18111   3.323  15.533   6.401  0.0180 -0.0197 -0.2391
 1153loPI   C2A18112   3.303  15.547   6.766 -0.1781 -0.0645  0.2623
 1153loPI   C3A18113   3.337  15.558   7.169 -0.1260  0.5057  0.0567
 1153loPI   C4A18114   3.320  15.597   7.606  0.1057  0.0347 -0.3454
 1153loPI   C5A18115   3.115  15.766   7.956 -0.2231 -0.1697  0.0443
 1153loPI   C6A18116   2.720  15.986   8.170 -0.2780 -0.0468 -0.2277
 1153loPI   C1B18117   3.748  15.768   6.544  0.0084  0.2265  0.1321
 1153loPI   C2B18118   3.776  15.866   6.968 -0.0365  0.1036  0.1321
 1153loPI   C3B18119   3.698  15.857   7.379 -0.1063 -0.2031  0.0702
 1153loPI   C4B18120   3.630  16.030   7.699  0.0437 -0.3340  0.1522
 1154loPI    C118121  15.810  15.693   5.428  0.0836  0.1068 -0.0750
 1154loPI    C218122  16.134  15.495   5.301 -0.0885 -0.2211 -0.0155
 1154loPI    C318123  15.901  15.687   5.038  0.1238 -0.0260 -0.0642
 1154loPI   PO418124  15.831  15.818   5.654 -0.2400 -0.1245  0.0722
 1154loPI   GL118125  15.624  15.589   5.910 -0.0782  0.1722 -0.0669
 1154loPI   GL218126  15.367  15.742   6.133  0.1607 -0.4866  0.1394
 1154loPI   C1A18127  15.844  15.530   6.274  0.1194  0.2841  0.1859
 1154loPI   C2A18128  15.938  15.509   6.703 -0.2545 -0.2651 -0.1162
 1154loPI   C3A18129  15.934  15.475   7.161  0.4360 -0.0656  0.1350
 1154loPI   C4A18130  15.900  15.377   7.538 -0.2765 -0.0933 -0.0662
 1154loPI   C5A18131  15.827  15.376   7.901 -0.0924 -0.0021 -0.2812
 1154loPI   C6A18132  15.839  15.122   8.366 -0.1475  0.0689 -0.3438
 1154loPI   C1B18133  15.442  15.694   6.568 -0.2057 -0.1351  0.1193
 1154loPI   C2B18134  15.568  15.760   6.979  0.1740 -0.2076 -0.0532
 1154loPI   C3B18135  15.456  15.666   7.432 -0.1867  0.0893 -0.1193
 1154loPI   C4B18136  15.353  15.604   7.882 -0.1045 -0.1712 -0.0297
 1155loPI    C118137  17.524   0.050   5.483 -0.1689  0.2736 -0.1183
 1155loPI    C218138  17.829   0.174   5.257  0.1201 -0.1843  0.0066
 1155loPI    C318139  17.521  -0.018   5.089 -0.1247  0.3063 -0.1242
 1155loPI   PO418140  17.510   0.221   5.726 -0.0892  0.1091  0.0452
 1155loPI   GL118141  17.400   0.118   6.073  0.2065 -0.2497  0.0415
 1155loPI   GL218142  17.303   0.469   6.222  0.0741 -0.1016 -0.1046
 1155loPI   C1A18143  17.256   0.045   6.490 -0.1770  0.0314  0.4302
 1155loPI   C2A18144  17.194   0.053   6.985 -0.1178 -0.2146 -0.0662
 1155loPI   C3A18145  17.239   0.035   7.341 -0.0691 -0.0167 -0.3477
 1155loPI   C4A18146  17.211   0.113   7.701 -0.1693  0.0532  0.1953
 1155loPI   C5A18147  17.194   0.089   8.101  0.0208  0.0228  0.2449
 1155loPI   C6A18148  17.084  -0.148   8.490 -0.2480  0.1402  0.1988
 1155loPI   C1B18149  17.185   0.478   6.710 -0.2040  0.1163  0.1711
 1155loPI   C2B18150  17.260   0.543   7.065  0.0507  0.0697 -0.2174
 1155loPI   C3B18151  17.177   0.580   7.522  0.1758  0.3185 -0.0924
 1155loPI   C4B18152  17.125   0.589   7.921 -0.0106  0.1059 -0.2958
 1156loPI    C118153  13.882   5.904   5.079  0.2685 -0.1759 -0.1619
 1156loPI    C218154  13.572   5.961   4.833  0.2579  0.0479 -0.0987
 1156loPI    C318155  13.722   5.594   4.883 -0.0728 -0.0829 -0.0382
 1156loPI   PO418156  13.910   5.935   5.217 -0.1198  0.1756  0.3128
 1156loPI   GL118157  13.836   6.060   5.687  0.0209  0.1152 -0.1391
 1156loPI   GL218158  14.027   5.796   5.774 -0.2000  0.3091 -0.1067
 1156loPI   C1A18159  13.829   6.473   6.053 -0.0090 -0.2565  0.0763
 1156loPI   C2A18160  13.754   6.469   6.432  0.2320  0.1649 -0.2757
 1156loPI   C3A18161  13.837   6.357   6.874  0.1281 -0.1124  0.1744
 1156loPI   C4A18162  13.775   6.322   7.299  0.2587 -0.1762 -0.0008
 1156loPI   C5A18163  13.731   6.335   7.697 -0.1687  0.1432 -0.3380
 1156loPI   C6A18164  13.521   6.122   8.025  0.0120  0.1203  0.0207
 1156loPI   C1B18165  13.912   5.912   6.177 -0.0014 -0.0112 -0.1154
 1156loPI   C2B18166  13.833   5.917   6.590  0.1247  0.2875 -0.4415
 1156loPI   C3B18167  13.867   5.864   7.113  0.2194 -0.2506  0.2243
 1156loPI   C4B18168  13.909   5.887   7.537  0.0097  0.0647  0.0935
 1157loPI    C118169   8.765  15.963   5.503  0.0164 -0.3795 -0.1788
 1157loPI    C218170   8.743  15.643   5.263 -0.0120 -0.2345 -0.3719
 1157loPI    C318171   8.594  15.995   5.143  0.0501 -0.1392 -0.1751
 1157loPI   PO418172   8.649  15.916   5.713  0.0681  0.1464 -0.0771
 1157loPI   GL118173   8.652  15.987   6.123  0.1608  0.0016  0.1922
 1157loPI   GL218174   8.910  15.730   6.142 -0.0749  0.0976  0.3376
 1157loPI   C1A18175   8.636  15.938   6.584 -0.0206 -0.0026  0.0149
 1157loPI   C2A18176   8.600  15.903   6.981  0.2300  0.1376  0.0452
 1157loPI   C3A18177   8.788  15.778   7.410 -0.1029 -0.0021  0.1410
 1157loPI   C4A18178   8.764  15.765   7.924 -0.0295 -0.0617  0.2165
 1157loPI   C5A18179   8.856  15.863   8.385 -0.2450  0.0744 -0.1317
 1157loPI   C6A18180   8.823  16.162   8.640  0.0548 -0.0155 -0.2523
 1157loPI   C1B18181   9.068  15.741   6.448  0.2423  0.0099  0.0982
 1157loPI   C2B18182   9.054  15.638   6.892 -0.0379  0.2385 -0.4264
 1157loPI   C3B18183   9.195  15.554   7.308  0.1324 -0.1984 -0.0460
 1157loPI   C4B18184   9.162  15.507   7.762 -0.0547 -0.0356  0.2154
 1158loPI    C118185  15.093   0.910   5.754  0.0151 -0.0387 -0.0271
 1158loPI    C218186  15.153   0.927   5.359 -0.2148  0.1139 -0.0575
 1158loPI    C318187  15.411   1.105   5.609 -0.0358 -0.0347 -0.1342
 1158loPI   PO418188  15.145   0.718   5.885  0.0541 -0.1906  0.1738
 1158loPI   GL118189  15.477   0.538   6.221  0.0285 -0.1572 -0.0403
 1158loPI   GL218190  15.282   0.330   6.135 -0.0213  0.0862  0.0181
 1158loPI   C1A18191  15.574   0.423   6.562  0.1569 -0.1155 -0.1247
 1158loPI   C2A18192  15.444   0.290   6.967 -0.1546 -0.1333  0.1432
 1158loPI   C3A18193  15.300   0.310   7.360  0.3755  0.1049 -0.0690
 1158loPI   C4A18194  15.372   0.327   7.786 -0.0252 -0.1821  0.0055
 1158loPI   C5A18195  15.586   0.183   8.217 -0.0875 -0.1964  0.5806
 1158loPI   C6A18196  15.874   0.352   8.545  0.1270  0.2638  0.0757
 1158loPI   C1B18197  15.138   0.214   6.499 -0.0593  0.0405 -0.2887
 1158loPI   C2B18198  14.869   0.097   6.851 -0.1105  0.0910 -0.1819
 1158loPI   C3B18199  14.845   0.068   7.306 -0.3756 -0.2977 -0.1243
 1158loPI   C4B18200  14.948   0.080   7.816 -0.3033  0.0922  0.0533
 1159loPI    C118201  16.614   5.355   5.214  0.0089 -0.0520 -0.0574
 1159loPI    C218202  16.693   4.987   5.079 -0.3218 -0.0758 -0.1978
 1159loPI    C318203  16.951   5.285   5.012  0.0659 -0.3270  0.1264
 1159loPI   PO418204  16.472   5.301   5.361  0.0575  0.0030 -0.0225
 1159loPI   GL118205  16.239   5.589   5.676 -0.0200  0.0345 -0.2413
 1159loPI   GL218206  16.565   5.497   5.792 -0.3474 -0.3650 -0.0172
 1159loPI   C1A18207  16.191   5.718   6.052 -0.1157  0.0199  0.1920
 1159loPI   C2A18208  16.049   5.615   6.438 -0.0263 -0.0647 -0.0734
 1159loPI   C3A18209  16.137   5.667   6.801  0.0515 -0.1233 -0.1309
 1159loPI   C4A18210  16.106   5.710   7.198  0.0799 -0.2170 -0.1312
 1159loPI   C5A18211  16.060   5.646   7.612 -0.2462 -0.1063  0.0172
 1159loPI   C6A18212  15.797   5.644   8.052  0.1053 -0.0037  0.0824
 1159loPI   C1B18213  16.569   5.412   6.253 -0.5321 -0.1748 -0.3068
 1159loPI   C2B18214  16.566   5.465   6.668 -0.0653 -0.0757 -0.0030
 1159loPI   C3B18215  16.567   5.496   7.087 -0.0635 -0.0658 -0.1522
 1159loPI   C4B18216  16.475   5.412   7.535  0.0506 -0.1795 -0.1335
 1160loPI    C118217   7.394  15.535   5.559  0.2354  0.0406 -0.1743
 1160loPI    C218218   7.036  15.548   5.381  0.1292  0.1449  0.0423
 1160loPI    C318219   7.370  15.593   5.164  0.0150 -0.0064 -0.1689
 1160loPI   PO418220   7.284  15.505   5.828 -0.0333 -0.2428  0.0773
 1160loPI   GL118221   7.370  15.262   6.207  0.0023  0.1237  0.1001
 1160loPI   GL218222   7.174  15.585   6.349 -0.1332 -0.0988  0.1299
 1160loPI   C1A18223   7.264  15.002   6.608  0.2081 -0.1187 -0.4741
 1160loPI   C2A18224   7.411  14.979   7.059 -0.0577  0.0015 -0.0199
 1160loPI   C3A18225   7.489  14.995   7.508  0.1058 -0.0896 -0.0305
 1160loPI   C4A18226   7.447  14.898   7.927  0.1807 -0.1171  0.1323
 1160loPI   C5A18227   7.462  14.675   8.316 -0.0539 -0.1609 -0.2148
 1160loPI   C6A18228   7.082  14.428   8.430  0.0394  0.2877 -0.4240
 1160loPI   C1B18229   7.334  15.558   6.776 -0.0537  0.1583 -0.0572
 1160loPI   C2B18230   7.369  15.508   7.195 -0.0721 -0.0480  0.3760
 1160loPI   C3B18231   7.390  15.509   7.553  0.0177  0.1752 -0.2313
 1160loPI   C4B18232   7.497  15.462   7.958 -0.1665 -0.0147  0.0300
 1161loPI    C118233  15.027   5.470   5.363  0.1425  0.0421 -0.1558
 1161loPI    C218234  14.954   5.248   5.038  0.0842  0.0811 -0.1695
 1161loPI    C318235  15.092   5.075   5.372 -0.1227 -0.0025 -0.1254
 1161loPI   PO418236  14.883   5.611   5.485  0.0675  0.1525  0.3072
 1161loPI   GL118237  14.915   5.830   5.853 -0.0388 -0.1141  0.0885
 1161loPI   GL218238  15.135   5.543   5.946  0.2565 -0.2378  0.1741
 1161loPI   C1A18239  14.658   5.974   6.183 -0.1909 -0.3064 -0.0664
 1161loPI   C2A18240  14.779   5.949   6.681 -0.0124  0.1831 -0.1269
 1161loPI   C3A18241  14.761   5.833   7.076 -0.0057 -0.2274 -0.1320
 1161loPI   C4A18242  14.732   5.975   7.582  0.2833 -0.2109  0.0644
 1161loPI   C5A18243  14.733   5.816   7.923 -0.0995  0.1247 -0.4052
 1161loPI   C6A18244  14.643   5.758   8.330  0.1399  0.0764 -0.0053
 1161loPI   C1B18245  15.160   5.658   6.308 -0.0886  0.2181 -0.0096
 1161loPI   C2B18246  15.205   5.705   6.821 -0.1013 -0.0375 -0.0073
 1161loPI   C3B18247  15.210   5.735   7.289 -0.0428  0.1736  0.2339
 1161loPI   C4B18248  15.215   5.559   7.705 -0.1640 -0.0843 -0.0029
 1162loPI    C118249   9.616   4.512   6.471 -0.1639 -0.0493 -0.0281
 1162loPI    C218250   9.707   4.447   6.087  0.0825  0.0286  0.0154
 1162loPI    C318251   9.498   4.174   6.292 -0.3014  0.1153 -0.2515
 1162loPI   PO418252   9.498   4.780   6.468  0.1971  0.1253  0.3292
 1162loPI   GL118253   9.715   5.079   6.727 -0.1228  0.0135  0.6205
 1162loPI   GL218254   9.842   4.834   6.781 -0.2917 -0.0553 -0.1275
 1162loPI   C1A18255   9.774   5.220   7.108 -0.0704  0.1511 -0.0232
 1162loPI   C2A18256   9.864   5.590   7.469  0.0318 -0.3003  0.0049
 1162loPI   C3A18257   9.735   5.664   7.804  0.4607  0.1459 -0.2400
 1162loPI   C4A18258   9.640   6.061   7.983  0.0968  0.0173  0.0762
 1162loPI   C5A18259   9.943   6.420   8.015  0.2718 -0.1265  0.3644
 1162loPI   C6A18260  10.273   6.596   8.134  0.1124 -0.1996 -0.0140
 1162loPI   C1B18261  10.084   4.782   7.021  0.0427  0.2405  0.3261
 1162loPI   C2B18262  10.281   4.693   7.415 -0.1548 -0.2599  0.2573
 1162loPI   C3B18263  10.367   4.708   7.833  0.0476  0.0007  0.2916
 1162loPI   C4B18264  10.389   4.585   8.256  0.3751 -0.0298  0.3050
 1163loPI    C118265  13.627  10.546   5.387 -0.0136 -0.0094  0.0526
 1163loPI    C218266  13.579  10.151   5.344  0.2926 -0.0467  0.0293
 1163loPI    C318267  13.742  10.365   5.049 -0.0416  0.1296 -0.0319
 1163loPI   PO418268  13.372  10.594   5.538 -0.2785 -0.2372  0.0178
 1163loPI   GL118269  13.150  10.651   5.833  0.0388 -0.1426  0.0829
 1163loPI   GL218270  13.238  10.900   6.026 -0.0455  0.1357  0.0715
 1163loPI   C1A18271  13.230  10.411   6.210  0.2689 -0.1118  0.3717
 1163loPI   C2A18272  13.261  10.264   6.672 -0.3238 -0.3584  0.0398
 1163loPI   C3A18273  13.299  10.155   7.097 -0.1492 -0.0432  0.4734
 1163loPI   C4A18274  13.338  10.252   7.576 -0.1877  0.0328  0.1743
 1163loPI   C5A18275  13.658  10.450   7.855  0.1267  0.1250 -0.0235
 1163loPI   C6A18276  13.757  10.910   8.073  0.1554 -0.0329 -0.0630
 1163loPI   C1B18277  13.246  10.867   6.473  0.0386  0.2161  0.1160
 1163loPI   C2B18278  13.270  10.764   6.887 -0.0246  0.0982  0.0810
 1163loPI   C3B18279  13.342  10.687   7.264  0.1964 -0.2400  0.2731
 1163loPI   C4B18280  13.276  10.747   7.685 -0.3191  0.0691 -0.0585
 1164loPI    C118281  17.639   5.284   5.307 -0.0719 -0.2035  0.0466
 1164loPI    C218282  17.461   5.182   4.964  0.0342  0.2229 -0.1417
 1164loPI    C318283  17.792   5.405   4.958  0.0819  0.1683  0.2382
 1164loPI   PO418284  17.491   5.365   5.467 -0.2318  0.1291 -0.0544
 1164loPI   GL118285  17.552   5.308   5.889  0.0697 -0.1301 -0.0353
 1164loPI   GL218286  17.127   5.333   5.874  0.2016  0.2059  0.2219
 1164loPI   C1A18287  17.577   5.457   6.202 -0.1129 -0.0824  0.2116
 1164loPI   C2A18288  17.457   5.468   6.594 -0.0198  0.1818  0.3524
 1164loPI   C3A18289  17.425   5.488   7.040  0.1448  0.1244 -0.1406
 1164loPI   C4A18290  17.430   5.401   7.509  0.3198 -0.1182 -0.0425
 1164loPI   C5A18291  17.371   5.156   7.909  0.1194 -0.2749  0.0887
 1164loPI   C6A18292  17.531   4.786   7.972 -0.0852 -0.0129  0.2740
 1164loPI   C1B18293  17.093   5.237   6.322 -0.1222  0.0077  0.1410
 1164loPI   C2B18294  17.029   5.277   6.765 -0.0552 -0.0262  0.0449
 1164loPI   C3B18295  16.966   5.192   7.187  0.2075  0.1481 -0.0319
 1164loPI   C4B18296  16.946   5.024   7.593 -0.2029  0.0502  0.1192
 1165loPI    C118297   4.064  13.951   5.765 -0.0345  0.0059  0.0994
 1165loPI    C218298   3.681  13.861   5.692  0.0118 -0.1038 -0.0115
 1165loPI    C318299   3.927  13.947   5.389  0.0936 -0.1081  0.0534
 1165loPI   PO418300   4.178  13.789   5.999  0.1808  0.1642  0.0932
 1165loPI   GL118301   4.053  13.778   6.400  0.1748  0.2070  0.0903
 1165loPI   GL218302   4.299  13.582   6.440 -0.0396 -0.1568  0.1151
 1165loPI   C1A18303   3.884  13.811   6.753  0.2006  0.1064 -0.0456
 1165loPI   C2A18304   3.843  13.878   7.116 -0.2147 -0.2218 -0.0393
 1165loPI   C3A18305   3.851  13.919   7.557  0.1154 -0.0431 -0.1190
 1165loPI   C4A18306   3.899  13.916   8.002 -0.0370 -0.1203  0.1982
 1165loPI   C5A18307   3.726  14.075   8.387  0.1973 -0.0478  0.0776
 1165loPI   C6A18308   3.734  13.972   8.775  0.2682  0.2602  0.2159
 1165loPI   C1B18309   4.269  13.613   6.889 -0.0520  0.3141  0.0200
 1165loPI   C2B18310   4.250  13.596   7.312 -0.1139  0.0130 -0.5946
 1165loPI   C3B18311   4.303  13.693   7.791  0.2124  0.2275 -0.0885
 1165loPI   C4B18312   4.321  13.795   8.180 -0.0035  0.0804  0.1104
 1166loPI    C118313   4.224  17.086   5.323 -0.2073 -0.0816  0.2161
 1166loPI    C218314   4.423  16.750   5.235  0.2096  0.1650  0.1863
 1166loPI    C318315   4.233  16.952   4.947  0.2609  0.1447  0.1381
 1166loPI   PO418316   4.352  17.067   5.610 -0.1502  0.1002 -0.0256
 1166loPI   GL118317   4.210  16.792   6.024  0.0547  0.1594  0.0664
 1166loPI   GL218318   4.474  16.915   6.123  0.0891 -0.0845 -0.1073
 1166loPI   C1A18319   4.063  16.713   6.413  0.0208  0.0389 -0.1037
 1166loPI   C2A18320   4.180  16.559   6.798 -0.1121  0.0176 -0.0788
 1166loPI   C3A18321   4.171  16.634   7.314  0.0747  0.0489 -0.1150
 1166loPI   C4A18322   4.166  16.695   7.773 -0.2831 -0.2663 -0.1023
 1166loPI   C5A18323   4.347  16.562   8.157  0.0660 -0.0576  0.0138
 1166loPI   C6A18324   4.608  16.566   8.567 -0.1337  0.2975  0.0380
 1166loPI   C1B18325   4.484  16.915   6.551 -0.2851 -0.4296 -0.3394
 1166loPI   C2B18326   4.543  16.921   6.994 -0.0661  0.1493 -0.1182
 1166loPI   C3B18327   4.566  16.861   7.371  0.1241 -0.1076  0.3237
 1166loPI   C4B18328   4.651  16.864   7.835  0.0220  0.3714 -0.1408
 1167loPI    C118329  12.948   0.050   5.542 -0.1348 -0.0095  0.0015
 1167loPI    C218330  12.913   0.287   5.222 -0.1866 -0.2273 -0.1566
 1167loPI    C318331  13.039  -0.091   5.179  0.1859 -0.1423  0.1293
 1167loPI   PO418332  12.759   0.070   5.660  0.1545  0.0351 -0.2141
 1167loPI   GL118333  12.474   0.039   6.099  0.6274  0.1215 -0.1073
 1167loPI   GL218334  12.163   0.125   6.006 -0.1142  0.4076 -0.2275
 1167loPI   C1A18335  12.624  -0.129   6.520 -0.0256  0.0018 -0.0655
 1167loPI   C2A18336  12.658  -0.227   6.864  0.0910 -0.0348 -0.0529
 1167loPI   C3A18337  12.694  -0.266   7.254 -0.1876 -0.1220 -0.1770
 1167loPI   C4A18338  12.783  -0.202   7.563 -0.0867  0.0440  0.0590
 1167loPI   C5A18339  12.768  -0.192   8.007 -0.0611  0.0758  0.1439
 1167loPI   C6A18340  12.623  -0.392   8.371  0.2989  0.1525 -0.2277
 1167loPI   C1B18341  12.218   0.140   6.483 -0.3851 -0.0790  0.0248
 1167loPI   C2B18342  12.208   0.066   6.841 -0.2411  0.0534 -0.0369
 1167loPI   C3B18343  12.327   0.031   7.308  0.1302 -0.1345  0.2999
 1167loPI   C4B18344  12.211  -0.010   7.726 -0.2346 -0.1147 -0.2521
 1168loPI    C118345   4.264   9.927   5.375 -0.1271 -0.2978  0.1292
 1168loPI    C218346   4.555   9.678   5.263 -0.0119 -0.0460 -0.1439
 1168loPI    C318347   4.237   9.733   5.027 -0.0657  0.0200 -0.0565
 1168loPI   PO418348   4.210   9.881   5.634 -0.0995  0.0737  0.2919
 1168loPI   GL118349   4.127   9.945   5.968  0.0799  0.0231 -0.0567
 1168loPI   GL218350   3.874  10.040   6.270  0.2273 -0.1646  0.0701
 1168loPI   C1A18351   4.342   9.832   6.429 -0.0517 -0.1736  0.1612
 1168loPI   C2A18352   4.392   9.811   6.803 -0.1470 -0.0386 -0.0164
 1168loPI   C3A18353   4.310   9.897   7.252  0.1675  0.2139  0.0780
 1168loPI   C4A18354   4.435   9.913   7.660  0.1454  0.0260  0.1050
 1168loPI   C5A18355   4.286   9.907   8.032  0.1220 -0.0223 -0.0605
 1168loPI   C6A18356   3.985   9.966   8.363  0.1384  0.2189 -0.0737
 1168loPI   C1B18357   3.870  10.118   6.797  0.1288 -0.0983 -0.2052
 1168loPI   C2B18358   3.984  10.262   7.151  0.0189 -0.0711 -0.1649
 1168loPI   C3B18359   4.008  10.147   7.564 -0.2261  0.0720 -0.2570
 1168loPI   C4B18360   3.915  10.265   7.929 -0.0801 -0.0558  0.3152
 1169loPI    C118361   7.136  15.979   5.740  0.1481  0.1918  0.0172
 1169loPI    C218362   6.859  16.169   5.523 -0.0422 -0.0586  0.0372
 1169loPI    C318363   7.206  16.062   5.355  0.0054  0.1711 -0.0135
 1169loPI   PO418364   6.999  15.959   6.015 -0.0555  0.2333 -0.1368
 1169loPI   GL118365   6.727  15.763   6.318  0.1966 -0.2668  0.0797
 1169loPI   GL218366   6.361  15.609   6.251  0.0266 -0.2682 -0.0985
 1169loPI   C1A18367   6.860  15.797   6.727 -0.2288 -0.0703 -0.0820
 1169loPI   C2A18368   6.943  15.806   7.184 -0.2046 -0.5193 -0.2086
 1169loPI   C3A18369   6.937  15.757   7.619 -0.0539 -0.2350  0.2832
 1169loPI   C4A18370   6.977  15.691   8.055  0.2361 -0.2695 -0.0183
 1169loPI   C5A18371   6.860  15.522   8.494 -0.1985 -0.0026  0.0186
 1169loPI   C6A18372   6.994  15.372   8.791  0.2043 -0.4322 -0.3567
 1169loPI   C1B18373   6.398  15.509   6.650  0.1626 -0.4336  0.2264
 1169loPI   C2B18374   6.480  15.433   7.122 -0.0810 -0.1167  0.2878
 1169loPI   C3B18375   6.516  15.477   7.631  0.1583  0.2912 -0.0918
 1169loPI   C4B18376   6.547  15.378   8.083  0.2652  0.0652  0.2324
 1170loPI    C118377   6.857  16.908   5.675  0.0571 -0.0446  0.2772
 1170loPI    C218378   6.660  16.712   5.388  0.0492  0.0592  0.2114
 1170loPI    C318379   7.059  16.726   5.382  0.0595 -0.1395  0.3375
 1170loPI   PO418380   6.706  16.837   5.962  0.4043  0.2702 -0.0970
 1170loPI   GL118381   6.854  16.594   6.373  0.1374  0.0672  0.0055
 1170loPI   GL218382   6.776  16.326   6.487 -0.0774 -0.1499  0.0725
 1170loPI   C1A18383   6.833  16.756   6.741  0.4903  0.0478 -0.1450
 1170loPI   C2A18384   6.737  16.792   7.040 -0.4389 -0.1956  0.1220
 1170loPI   C3A18385   6.762  16.842   7.509  0.1584 -0.2243 -0.0591
 1170loPI   C4A18386   6.932  16.754   7.997 -0.2575 -0.3596  0.0913
 1170loPI   C5A18387   7.058  16.650   8.447 -0.0300  0.1575  0.3202
 1170loPI   C6A18388   7.331  16.741   8.719  0.2262  0.0484 -0.0267
 1170loPI   C1B18389   6.862  16.258   6.931  0.3442  0.0550 -0.0422
 1170loPI   C2B18390   6.895  16.327   7.457  0.3149  0.0570  0.1830
 1170loPI   C3B18391   7.013  16.214   7.899  0.0052 -0.1262 -0.1109
 1170loPI   C4B18392   7.028  16.135   8.337  0.1140  0.0676  0.1878
 1171loPI    C118393   8.269   5.849   6.285 -0.2367 -0.1887 -0.0905
 1171loPI    C218394   8.508   6.137   6.145 -0.2255 -0.1977 -0.0898
 1171loPI    C318395   8.345   5.873   5.893 -0.0050 -0.3663 -0.0590
 1171loPI   PO418396   8.416   5.814   6.531  0.0700  0.4051 -0.0111
 1171loPI   GL118397   8.458   5.949   7.024  0.1374 -0.4062  0.1812
 1171loPI   GL218398   8.383   5.630   6.998 -0.1354  0.0770 -0.0046
 1171loPI   C1A18399   8.543   6.043   7.488  0.1711 -0.0953 -0.0950
 1171loPI   C2A18400   8.720   5.837   7.782  0.1880  0.3230  0.2353
 1171loPI   C3A18401   8.747   5.589   8.097  0.0319  0.0109 -0.1168
 1171loPI   C4A18402   8.985   5.497   8.423  0.1325  0.0545  0.0020
 1171loPI   C5A18403   8.969   5.274   8.751  0.0087  0.2046  0.1716
 1171loPI   C6A18404   8.537   5.200   8.879 -0.0224 -0.0952  0.1114
 1171loPI   C1B18405   8.375   5.577   7.347 -0.2505  0.0336  0.2086
 1171loPI   C2B18406   8.375   5.469   7.780  0.0115  0.3841 -0.1026
 1171loPI   C3B18407   8.528   5.170   7.976 -0.1196 -0.2456 -0.2683
 1171loPI   C4B18408   8.698   5.095   8.389 -0.3047 -0.0073  0.1694
 1172loPI    C118409  10.546  13.445   5.357  0.1544 -0.1108 -0.0503
 1172loPI    C218410  10.902  13.525   5.193 -0.0281  0.0614 -0.3738
 1172loPI    C318411  10.576  13.500   4.962 -0.2752  0.1933 -0.0486
 1172loPI   PO418412  10.578  13.470   5.619 -0.2818 -0.2162 -0.0341
 1172loPI   GL118413  10.840  13.477   5.943 -0.0786  0.2022  0.0768
 1172loPI   GL218414  10.903  13.140   5.994  0.4539  0.1808  0.1086
 1172loPI   C1A18415  10.967  13.632   6.232 -0.3553  0.0874 -0.0568
 1172loPI   C2A18416  10.973  13.588   6.669  0.1015  0.1956 -0.1732
 1172loPI   C3A18417  10.995  13.493   7.061 -0.2493 -0.1527 -0.4084
 1172loPI   C4A18418  11.013  13.486   7.564 -0.0393  0.3203  0.1720
 1172loPI   C5A18419  11.053  13.596   7.986  0.0646  0.4720  0.0907
 1172loPI   C6A18420  11.004  13.809   8.411  0.0111  0.0191 -0.1276
 1172loPI   C1B18421  10.963  13.003   6.482 -0.4433 -0.2684  0.1813
 1172loPI   C2B18422  10.978  13.045   6.869 -0.0650  0.1211 -0.1972
 1172loPI   C3B18423  11.029  13.019   7.327 -0.2519  0.2528  0.2072
 1172loPI   C4B18424  11.102  13.089   7.847 -0.1972  0.2085  0.1545
 1173loPI    C118425  15.008  11.683   5.504 -0.2299 -0.3395 -0.2698
 1173loPI    C218426  15.320  11.696   5.254 -0.1095  0.0862 -0.1043
 1173loPI    C318427  14.948  11.722   5.110 -0.0501  0.0850 -0.2603
 1173loPI   PO418428  15.077  11.506   5.620  0.0589  0.1680  0.0912
 1173loPI   GL118429  15.337  11.325   5.956 -0.1966 -0.1218 -0.0297
 1173loPI   GL218430  15.050  11.153   6.016 -0.1516  0.4315 -0.2890
 1173loPI   C1A18431  15.202  11.407   6.400  0.0353  0.0880  0.2531
 1173loPI   C2A18432  15.065  11.335   6.743 -0.0516  0.0502 -0.0338
 1173loPI   C3A18433  15.073  11.288   7.207  0.1745 -0.1029 -0.0638
 1173loPI   C4A18434  15.145  11.325   7.656  0.0958  0.3572 -0.1291
 1173loPI   C5A18435  14.988  11.584   8.099 -0.3444 -0.0079 -0.1486
 1173loPI   C6A18436  14.891  11.864   8.436  0.0376  0.1311  0.1381
 1173loPI   C1B18437  14.744  11.129   6.316  0.0729 -0.0061  0.2160
 1173loPI   C2B18438  14.617  10.979   6.642 -0.2098  0.1583 -0.3105
 1173loPI   C3B18439  14.639  10.929   7.130 -0.1400 -0.1670 -0.2126
 1173loPI   C4B18440  14.697  10.946   7.551  0.0749 -0.1697  0.1580
 1174loPI    C118441  13.824  17.676   5.452  0.0228 -0.0289  0.2331
 1174loPI    C218442  13.777  17.322   5.272  0.0176  0.1271 -0.0787
 1174loPI    C318443  13.477  17.586   5.275  0.0592  0.1739  0.0546
 1174loPI   PO418444  13.894  17.617   5.711 -0.2763  0.0712  0.0834
 1174loPI   GL118445  13.765  17.775   6.093 -0.0199  0.2128  0.1147
 1174loPI   GL218446  13.475  17.768   6.254  0.1940  0.2950 -0.0190
 1174loPI   C1A18447  13.893  18.075   6.437 -0.0642  0.0837  0.0988
 1174loPI   C2A18448  14.037  18.006   6.762  0.1718 -0.1214 -0.1241
 1174loPI   C3A18449  14.045  18.042   7.223  0.2526 -0.1755 -0.1539
 1174loPI   C4A18450  14.080  17.970   7.652  0.2171 -0.1330  0.0088
 1174loPI   C5A18451  14.027  17.917   8.038  0.0229 -0.1464 -0.1601
 1174loPI   C6A18452  13.917  18.075   8.556 -0.1484  0.4608  0.2458
 1174loPI   C1B18453  13.509  17.818   6.678 -0.0800 -0.2366  0.1098
 1174loPI   C2B18454  13.650  17.810   7.177  0.2502 -0.2551  0.3398
 1174loPI   C3B18455  13.683  17.729   7.570  0.2297 -0.4934  0.0097
 1174loPI   C4B18456  13.616  17.691   7.972 -0.0749 -0.1819 -0.1152
 1175loPI    C118457   8.493  15.185   5.579  0.1023  0.3254 -0.0094
 1175loPI    C218458   8.351  15.555   5.526 -0.1643  0.1902 -0.2719
 1175loPI    C318459   8.112  15.239   5.469  0.0208 -0.0220  0.0886
 1175loPI   PO418460   8.575  15.169   5.813  0.1902 -0.0664  0.1617
 1175loPI   GL118461   8.729  15.204   6.201  0.1303 -0.3650 -0.2348
 1175loPI   GL218462   8.713  14.992   6.525 -0.0506  0.1212  0.3365
 1175loPI   C1A18463   8.650  15.433   6.674 -0.0639  0.1605  0.0316
 1175loPI   C2A18464   8.724  15.220   7.123 -0.0862  0.2816  0.2456
 1175loPI   C3A18465   8.735  15.257   7.551 -0.0789  0.2439 -0.1225
 1175loPI   C4A18466   8.756  15.259   7.964 -0.0924  0.3331  0.0690
 1175loPI   C5A18467   8.757  15.252   8.397 -0.0637  0.0173 -0.0404
 1175loPI   C6A18468   8.685  15.129   8.743  0.0794  0.2505  0.1264
 1175loPI   C1B18469   8.724  14.749   6.964  0.2868  0.0299 -0.1736
 1175loPI   C2B18470   8.717  14.749   7.386 -0.1793  0.0235 -0.1815
 1175loPI   C3B18471   8.745  14.738   7.819 -0.0496 -0.1946  0.0034
 1175loPI   C4B18472   9.066  14.927   8.124  0.0001 -0.0334  0.3562
 1176loPI    C118473   1.121   8.517   5.207  0.2805 -0.0016  0.0474
 1176loPI    C218474   1.239   8.636   4.844  0.2247  0.1888  0.0909
 1176loPI    C318475   0.966   8.848   5.046 -0.1155 -0.1868  0.0366
 1176loPI   PO418476   1.287   8.461   5.418  0.0308  0.1624 -0.1313
 1176loPI   GL118477   1.283   8.517   5.831  0.1219  0.1974 -0.0924
 1176loPI   GL218478   1.151   8.762   6.048 -0.2397 -0.0449  0.1671
 1176loPI   C1A18479   1.589   8.326   6.128 -0.0855  0.1929  0.2564
 1176loPI   C2A18480   1.683   8.287   6.511 -0.0958 -0.1614 -0.1998
 1176loPI   C3A18481   1.664   8.296   6.974  0.0188 -0.0114 -0.0506
 1176loPI   C4A18482   1.676   8.327   7.353 -0.1671 -0.1220 -0.0297
 1176loPI   C5A18483   1.666   8.286   7.729 -0.1265 -0.1695 -0.4191
 1176loPI   C6A18484   2.035   8.411   8.071 -0.0064  0.0098  0.1844
 1176loPI   C1B18485   1.145   8.495   6.403 -0.0997 -0.1723 -0.1843
 1176loPI   C2B18486   1.252   8.565   6.761  0.1185 -0.4172 -0.3470
 1176loPI   C3B18487   1.268   8.573   7.218 -0.1674  0.1317  0.3681
 1176loPI   C4B18488   1.298   8.583   7.614 -0.2709  0.0932 -0.0947
 1177loPI    C118489   6.507   8.042   5.903  0.4144 -0.0414  0.2856
 1177loPI    C218490   6.363   7.899   5.558  0.0577  0.2144  0.3230
 1177loPI    C318491   6.754   7.868   5.640  0.0573 -0.3577  0.1504
 1177loPI   PO418492   6.293   8.153   6.017 -0.3092 -0.1336  0.3309
 1177loPI   GL118493   6.291   8.437   6.454 -0.0652 -0.2232 -0.1010
 1177loPI   GL218494   6.346   8.598   6.138  0.0142 -0.0447  0.0568
 1177loPI   C1A18495   6.549   8.573   6.750 -0.1606  0.0842  0.0686
 1177loPI   C2A18496   6.643   8.624   7.189 -0.0304 -0.0003  0.1714
 1177loPI   C3A18497   6.577   8.680   7.593 -0.3248  0.1420  0.0174
 1177loPI   C4A18498   6.330   8.389   7.737 -0.1971  0.0963 -0.0471
 1177loPI   C5A18499   6.253   7.951   7.602  0.0106 -0.0546 -0.5060
 1177loPI   C6A18500   6.511   7.438   7.673  0.0362  0.0981 -0.2169
 1177loPI   C1B18501   6.169   8.908   6.421  0.0339 -0.1135  0.1128
 1177loPI   C2B18502   6.152   8.939   6.872  0.0580  0.1756 -0.0153
 1177loPI   C3B18503   6.251   8.886   7.314  0.2581  0.0228  0.2185
 1177loPI   C4B18504   6.213   9.078   7.740  0.0939  0.1560  0.4784
 1178loPI    C118505  13.139   6.556   5.232 -0.0532  0.0364  0.1055
 1178loPI    C218506  12.961   6.876   5.071  0.1567  0.0222 -0.1619
 1178loPI    C318507  12.916   6.516   4.903 -0.0123 -0.0774  0.0914
 1178loPI   PO418508  13.281   6.734   5.396  0.2170 -0.1724  0.1977
 1178loPI   GL118509  13.386   6.826   5.775  0.0075  0.0477 -0.1251
 1178loPI   GL218510  13.349   6.380   5.728  0.0621 -0.1080 -0.1484
 1178loPI   C1A18511  13.355   6.675   6.132  0.1775 -0.4387  0.0780
 1178loPI   C2A18512  13.279   6.667   6.521  0.1006  0.1714  0.2690
 1178loPI   C3A18513  13.403   6.597   6.915  0.0673  0.0153 -0.0737
 1178loPI   C4A18514  13.399   6.611   7.315  0.0646  0.1005 -0.0032
 1178loPI   C5A18515  13.354   6.643   7.777  0.1133 -0.0293 -0.2096
 1178loPI   C6A18516  13.105   6.410   8.109 -0.3869 -0.1832  0.0268
 1178loPI   C1B18517  13.441   6.184   6.128 -0.1332  0.1805  0.0957
 1178loPI   C2B18518  13.391   6.140   6.553  0.3369 -0.2618  0.1173
 1178loPI   C3B18519  13.430   6.102   7.018  0.0364 -0.1941 -0.0829
 1178loPI   C4B18520  13.380   6.117   7.481 -0.0052 -0.1032 -0.0141
 1179loPI    C118521  16.201  12.414   5.274  0.0490  0.0302  0.2241
 1179loPI    C218522  16.370  12.669   5.017  0.0024 -0.1951 -0.0342
 1179loPI    C318523  16.269  12.301   4.897 -0.2404 -0.2228  0.2438
 1179loPI   PO418524  16.253  12.409   5.547 -0.0017 -0.0603 -0.0050
 1179loPI   GL118525  16.072  12.213   5.966  0.0076  0.2330 -0.1440
 1179loPI   GL218526  15.978  12.594   5.989  0.3326 -0.1211 -0.0770
 1179loPI   C1A18527  16.053  11.960   6.378 -0.1226  0.0940  0.4622
 1179loPI   C2A18528  15.939  11.812   6.842 -0.1468 -0.1069  0.1321
 1179loPI   C3A18529  15.941  11.842   7.257 -0.1296  0.0458  0.0345
 1179loPI   C4A18530  15.967  11.847   7.652  0.1112 -0.0424 -0.1211
 1179loPI   C5A18531  16.258  11.962   8.006 -0.0966 -0.1558  0.1681
 1179loPI   C6A18532  16.194  12.141   8.411 -0.0618  0.1160  0.1323
 1179loPI   C1B18533  15.967  12.441   6.402  0.0764 -0.0707 -0.1301
 1179loPI   C2B18534  15.936  12.281   6.818  0.1223  0.1103 -0.0630
 1179loPI   C3B18535  15.948  12.394   7.186  0.0873  0.2472  0.0159
 1179loPI   C4B18536  16.056  12.364   7.686 -0.3269  0.2248 -0.1029
 1180loPI    C118537   7.735   0.241   5.697 -0.1374 -0.0403  0.0841
 1180loPI    C218538   8.019   0.072   5.473 -0.1157  0.0070  0.0758
 1180loPI    C318539   7.682   0.203   5.303 -0.2180 -0.2069  0.1100
 1180loPI   PO418540   7.733   0.184   5.879  0.3986  0.1924 -0.5645
 1180loPI   GL118541   7.788   0.380   6.271  0.3361  0.1991  0.2321
 1180loPI   GL218542   7.580   0.026   6.289 -0.2879  0.2267  0.1064
 1180loPI   C1A18543   8.081   0.286   6.586 -0.2831 -0.2059  0.0110
 1180loPI   C2A18544   8.158   0.215   7.049  0.3173  0.0876  0.1469
 1180loPI   C3A18545   8.246   0.226   7.500  0.3193  0.2302 -0.0998
 1180loPI   C4A18546   8.142   0.275   7.953 -0.0623 -0.0030  0.2460
 1180loPI   C5A18547   8.220   0.624   8.205 -0.4120  0.3057 -0.0258
 1180loPI   C6A18548   8.127   1.086   8.065  0.1330  0.2078  0.1814
 1180loPI   C1B18549   7.798  -0.112   6.665 -0.1083  0.1917 -0.1537
 1180loPI   C2B18550   8.112  -0.311   6.878 -0.1387  0.1025 -0.1175
 1180loPI   C3B18551   8.157  -0.256   7.292 -0.1891 -0.0429 -0.1789
 1180loPI   C4B18552   8.175  -0.200   7.759  0.0956  0.1797 -0.1040
 1181loPI    C118553  15.893  14.817   5.425  0.0296  0.0628  0.1574
 1181loPI    C218554  15.787  15.146   5.224 -0.1218  0.0475  0.2104
 1181loPI    C318555  16.026  14.875   5.053 -0.1143  0.1149  0.1133
 1181loPI   PO418556  15.901  14.871   5.671 -0.0623 -0.2543  0.0225
 1181loPI   GL118557  16.145  14.848   5.909  0.2230 -0.1771  0.0116
 1181loPI   GL218558  16.380  14.683   6.083  0.0766 -0.2834 -0.1246
 1181loPI   C1A18559  15.927  15.028   6.254  0.0444  0.1661 -0.3036
 1181loPI   C2A18560  15.964  14.998   6.645 -0.1945  0.1956  0.0982
 1181loPI   C3A18561  15.984  14.932   7.083  0.1082 -0.3760  0.0734
 1181loPI   C4A18562  15.951  14.892   7.449  0.0336  0.1278  0.0704
 1181loPI   C5A18563  15.925  14.889   7.925 -0.2673  0.0158  0.2858
 1181loPI   C6A18564  16.309  15.211   8.051  0.2248  0.1576  0.1585
 1181loPI   C1B18565  16.407  14.715   6.482  0.1262 -0.0749 -0.1809
 1181loPI   C2B18566  16.370  14.745   6.908  0.1703 -0.1038 -0.0015
 1181loPI   C3B18567  16.416  14.716   7.294 -0.1018  0.1992  0.1981
 1181loPI   C4B18568  16.365  14.638   7.749  0.0236 -0.0055 -0.0558
 1182loPI    C118569  12.494   5.611   5.345  0.0540 -0.0875  0.1516
 1182loPI    C218570  12.731   5.305   5.244  0.0445 -0.0030 -0.1353
 1182loPI    C318571  12.336   5.279   5.189  0.0228 -0.0113  0.0197
 1182loPI   PO418572  12.649   5.721   5.578  0.1789 -0.1652  0.1513
 1182loPI   GL118573  12.909   5.767   5.847  0.0932 -0.1625  0.0119
 1182loPI   GL218574  13.000   6.067   5.920 -0.3070  0.0468  0.1977
 1182loPI   C1A18575  12.950   5.900   6.357  0.1560  0.1899  0.0683
 1182loPI   C2A18576  12.895   5.905   6.728 -0.0137 -0.1965 -0.1403
 1182loPI   C3A18577  12.982   5.951   7.156  0.3070  0.1045 -0.2502
 1182loPI   C4A18578  13.000   5.803   7.608  0.3657 -0.0636  0.0910
 1182loPI   C5A18579  13.095   5.909   7.952 -0.1528  0.4286 -0.0061
 1182loPI   C6A18580  13.033   5.551   8.231 -0.0222 -0.2180  0.2086
 1182loPI   C1B18581  12.943   6.382   6.237  0.0051 -0.2206  0.0045
 1182loPI   C2B18582  12.875   6.418   6.677  0.1065  0.0923 -0.1956
 1182loPI   C3B18583  12.950   6.447   7.183  0.0994  0.2046 -0.0143
 1182loPI   C4B18584  12.964   6.353   7.654  0.1081 -0.0531  0.0393
 1183loPI    C118585   3.583   6.545   5.541 -0.0016  0.0314  0.1973
 1183loPI    C218586   3.564   6.528   5.142  0.0342  0.0232  0.1959
 1183loPI    C318587   3.265   6.380   5.363  0.0306 -0.0045  0.1726
 1183loPI   PO418588   3.713   6.621   5.622  0.0806 -0.2011  0.0100
 1183loPI   GL118589   3.637   6.713   6.023  0.0716 -0.0817 -0.0856
 1183loPI   GL218590   3.542   7.079   6.087 -0.0470 -0.0759 -0.0959
 1183loPI   C1A18591   3.587   6.800   6.560  0.0417  0.3352  0.3066
 1183loPI   C2A18592   3.585   6.792   7.065  0.1858  0.1392  0.3074
 1183loPI   C3A18593   3.609   6.736   7.484  0.2947  0.1245  0.0575
 1183loPI   C4A18594   3.737   6.686   7.907 -0.2281 -0.3697 -0.0703
 1183loPI   C5A18595   3.910   6.471   8.235 -0.4901 -0.0710  0.1630
 1183loPI   C6A18596   4.149   6.206   8.068  0.0591  0.1820 -0.2699
 1183loPI   C1B18597   3.606   7.383   6.466  0.1376 -0.1492 -0.3998
 1183loPI   C2B18598   3.551   7.367   6.892 -0.2030 -0.0636  0.2578
 1183loPI   C3B18599   3.604   7.355   7.324 -0.1506 -0.0550 -0.0742
 1183loPI   C4B18600   3.554   7.479   7.685  0.0913 -0.2458  0.2965
 1184loPI    C118601  14.421  11.870   5.235 -0.0858  0.2627  0.3293
 1184loPI    C218602  14.393  12.266   5.283  0.3611  0.3217  0.1447
 1184loPI    C318603  14.593  12.115   4.970  0.0151 -0.0531  0.0959
 1184loPI   PO418604  14.529  11.837   5.526  0.0192  0.1456 -0.0775
 1184loPI   GL118605  14.822  11.863   5.915 -0.0721 -0.0900  0.0935
 1184loPI   GL218606  14.734  11.606   6.054 -0.1301  0.0941  0.0784
 1184loPI   C1A18607  14.716  12.113   6.245 -0.1320 -0.0538  0.1804
 1184loPI   C2A18608  14.663  12.139   6.661  0.0068  0.0836  0.4882
 1184loPI   C3A18609  14.663  11.993   7.016  0.0468  0.1367  0.0730
 1184loPI   C4A18610  14.659  12.049   7.471  0.2263 -0.0411  0.1358
 1184loPI   C5A18611  14.590  11.933   7.919 -0.3291 -0.2190  0.1916
 1184loPI   C6A18612  14.428  11.535   8.193  0.0539  0.1969 -0.0298
 1184loPI   C1B18613  14.674  11.609   6.511 -0.1522 -0.0875  0.0243
 1184loPI   C2B18614  14.607  11.474   6.854  0.2493 -0.3944 -0.3345
 1184loPI   C3B18615  14.611  11.486   7.278  0.0085 -0.1222  0.0974
 1184loPI   C4B18616  14.648  11.439   7.708 -0.1655 -0.0637  0.4203
 1185loPI    C118617   3.699   8.374   5.195 -0.2349 -0.2715 -0.0047
 1185loPI    C218618   3.994   8.412   4.928 -0.2632 -0.0779 -0.0098
 1185loPI    C318619   3.648   8.604   4.871 -0.3920 -0.3062 -0.0052
 1185loPI   PO418620   3.861   8.432   5.391 -0.0869  0.2094  0.0722
 1185loPI   GL118621   3.951   8.469   5.855  0.0344 -0.1882  0.2011
 1185loPI   GL218622   4.207   8.414   6.026  0.1409 -0.2329  0.0305
 1185loPI   C1A18623   3.882   8.721   6.237 -0.0341  0.0172 -0.1414
 1185loPI   C2A18624   3.860   8.595   6.674  0.4150 -0.3526 -0.2141
 1185loPI   C3A18625   4.037   8.673   7.159 -0.0883  0.0487 -0.1378
 1185loPI   C4A18626   4.123   8.531   7.578  0.1004  0.0613 -0.1419
 1185loPI   C5A18627   4.024   8.397   7.993  0.0201  0.1521 -0.1111
 1185loPI   C6A18628   3.837   8.249   8.310 -0.1221  0.2722  0.0134
 1185loPI   C1B18629   4.420   8.406   6.418  0.0844  0.0967  0.0678
 1185loPI   C2B18630   4.472   8.349   6.885  0.1150  0.1495 -0.0982
 1185loPI   C3B18631   4.492   8.401   7.304 -0.1197 -0.1064 -0.1292
 1185loPI   C4B18632   4.468   8.236   7.825 -0.0617 -0.0009  0.4180
 1186loPI    C118633  15.952  12.011   5.252 -0.1095 -0.1204  0.2429
 1186loPI    C218634  15.708  11.847   4.981 -0.0498  0.0558  0.0796
 1186loPI    C318635  15.793  12.237   4.961  0.1859  0.0107  0.1799
 1186loPI   PO418636  15.905  11.988   5.538 -0.0964  0.2587 -0.1118
 1186loPI   GL118637  15.949  11.762   5.929  0.0076 -0.4103 -0.2529
 1186loPI   GL218638  16.214  11.772   5.882 -0.2722 -0.0623  0.1148
 1186loPI   C1A18639  15.689  11.625   6.246 -0.1052 -0.0471 -0.3510
 1186loPI   C2A18640  15.563  11.641   6.617 -0.1361  0.0202 -0.0258
 1186loPI   C3A18641  15.488  11.647   6.986 -0.2041 -0.4942 -0.0662
 1186loPI   C4A18642  15.508  11.588   7.410 -0.1346  0.0943 -0.3995
 1186loPI   C5A18643  15.510  11.592   7.920 -0.1601 -0.1487  0.2471
 1186loPI   C6A18644  15.459  11.645   8.249 -0.1850  0.1570 -0.1779
 1186loPI   C1B18645  16.430  11.648   6.140  0.1946  0.0334  0.0143
 1186loPI   C2B18646  16.346  11.621   6.645  0.3111  0.0320 -0.2982
 1186loPI   C3B18647  16.407  11.634   6.998 -0.1423 -0.0405 -0.1436
 1186loPI   C4B18648  16.356  11.619   7.495  0.0014 -0.3621 -0.0495
 1187loPI    C118649  11.965   7.825   5.356 -0.0003  0.2660  0.1323
 1187loPI    C218650  11.730   7.563   5.166  0.2229  0.2371 -0.1095
 1187loPI    C318651  12.124   7.563   5.100  0.2652  0.4284  0.1276
 1187loPI   PO418652  12.040   7.844   5.661 -0.0752 -0.2630 -0.2507
 1187loPI   GL118653  11.801   7.863   6.026 -0.0652  0.2710 -0.3032
 1187loPI   GL218654  11.979   7.597   6.064  0.2516 -0.2742 -0.0631
 1187loPI   C1A18655  11.891   7.964   6.450  0.0801  0.1892  0.0847
 1187loPI   C2A18656  12.047   7.944   6.865 -0.0174 -0.0529 -0.3761
 1187loPI   C3A18657  12.110   7.934   7.329 -0.1335 -0.2688 -0.0777
 1187loPI   C4A18658  12.085   7.932   7.715  0.0712  0.0050  0.2377
 1187loPI   C5A18659  11.975   7.956   7.996 -0.0348 -0.3534  0.0612
 1187loPI   C6A18660  12.250   7.965   8.317  0.3494  0.1446  0.0883
 1187loPI   C1B18661  11.871   7.458   6.422 -0.0432 -0.1852  0.1286
 1187loPI   C2B18662  11.990   7.449   6.807 -0.3851  0.0205  0.1572
 1187loPI   C3B18663  12.035   7.439   7.237  0.1848  0.2063 -0.0736
 1187loPI   C4B18664  12.182   7.462   7.642 -0.1265  0.2893  0.2198
 1188loPI    C118665   8.070  11.672   5.548 -0.0804  0.3120  0.0517
 1188loPI    C218666   7.743  11.775   5.341  0.0013  0.1757 -0.1483
 1188loPI    C318667   8.081  11.683   5.148  0.0620 -0.0130  0.0434
 1188loPI   PO418668   8.070  11.853   5.750  0.2282  0.0524  0.1295
 1188loPI   GL118669   7.909  11.698   6.208  0.0312 -0.0835 -0.1703
 1188loPI   GL218670   8.099  11.833   6.314  0.0337  0.0806 -0.6089
 1188loPI   C1A18671   7.839  11.598   6.668  0.0857  0.2661  0.0996
 1188loPI   C2A18672   7.829  11.560   6.989  0.1891 -0.0142  0.0613
 1188loPI   C3A18673   7.983  11.607   7.285 -0.2722  0.3370  0.1491
 1188loPI   C4A18674   8.026  11.623   7.716  0.0921  0.1537  0.1528
 1188loPI   C5A18675   8.068  11.626   8.128  0.1452 -0.0950 -0.0313
 1188loPI   C6A18676   8.382  11.711   8.344  0.0434 -0.1837 -0.1195
 1188loPI   C1B18677   8.335  11.871   6.674 -0.0624  0.0597  0.1551
 1188loPI   C2B18678   8.304  11.927   7.146 -0.1544  0.1814  0.0506
 1188loPI   C3B18679   8.429  11.769   7.519 -0.2233 -0.0706  0.3574
 1188loPI   C4B18680   8.429  11.872   7.897  0.1338 -0.2258  0.0100
 1189loPI    C118681   7.386  11.307   5.286  0.1293  0.1556 -0.1716
 1189loPI    C218682   7.784  11.275   5.294  0.1278  0.1631 -0.0395
 1189loPI    C318683   7.600  11.394   4.960  0.2230 -0.0115 -0.1556
 1189loPI   PO418684   7.382  11.365   5.581  0.3948 -0.1009 -0.0884
 1189loPI   GL118685   7.250  11.470   5.959 -0.1542 -0.2145 -0.2290
 1189loPI   GL218686   7.452  11.309   6.123  0.1513 -0.0168  0.1980
 1189loPI   C1A18687   6.978  11.643   6.297 -0.1856 -0.0919 -0.1087
 1189loPI   C2A18688   6.998  11.538   6.743  0.0245  0.2092 -0.0077
 1189loPI   C3A18689   7.012  11.523   7.188 -0.0079 -0.0448  0.1316
 1189loPI   C4A18690   7.095  11.624   7.612  0.0285  0.1584 -0.1102
 1189loPI   C5A18691   7.130  11.638   8.032  0.0390  0.2086 -0.2249
 1189loPI   C6A18692   7.268  11.848   8.489  0.0991  0.1898  0.0482
 1189loPI   C1B18693   7.440  11.343   6.559 -0.0034  0.2326  0.0579
 1189loPI   C2B18694   7.370  11.334   6.995  0.0467 -0.2107 -0.4494
 1189loPI   C3B18695   7.495  11.368   7.358 -0.0011 -0.0943  0.0131
 1189loPI   C4B18696   7.537  11.406   7.791  0.4347 -0.2396  0.2290
 1190loPI    C118697  15.565   2.166   5.421 -0.0480 -0.0491  0.0431
 1190loPI    C218698  15.789   1.860   5.548 -0.0146  0.0138  0.1369
 1190loPI    C318699  15.733   1.918   5.156  0.0976 -0.0277  0.1144
 1190loPI   PO418700  15.437   2.188   5.686 -0.3143  0.2008  0.1972
 1190loPI   GL118701  15.175   2.330   6.019  0.3878 -0.2321  0.1748
 1190loPI   GL218702  14.975   2.583   6.125  0.0102  0.0438 -0.4927
 1190loPI   C1A18703  15.224   2.145   6.454  0.0280  0.2828  0.1498
 1190loPI   C2A18704  15.246   1.969   6.922 -0.0308  0.2635  0.1242
 1190loPI   C3A18705  15.309   1.962   7.423  0.0146 -0.0175 -0.0249
 1190loPI   C4A18706  15.381   1.923   7.874 -0.0022  0.0037 -0.2611
 1190loPI   C5A18707  15.802   1.796   8.142  0.1846  0.0597 -0.0498
 1190loPI   C6A18708  15.826   1.573   8.601 -0.0290 -0.0437  0.0891
 1190loPI   C1B18709  15.257   2.676   6.496  0.0733 -0.0921  0.0257
 1190loPI   C2B18710  15.212   2.672   6.979 -0.2749  0.3119 -0.1504
 1190loPI   C3B18711  15.351   2.500   7.373 -0.1307 -0.0174 -0.4750
 1190loPI   C4B18712  15.384   2.525   7.836  0.0683 -0.4470 -0.2751
 1191loPI    C118713  12.142   3.105   5.381  0.0074 -0.2189 -0.2559
 1191loPI    C218714  12.385   3.245   5.096 -0.0580  0.0617 -0.1770
 1191loPI    C318715  11.989   3.254   5.043 -0.0681  0.0541 -0.1052
 1191loPI   PO418716  12.268   3.222   5.564  0.1848  0.0358  0.1013
 1191loPI   GL118717  12.576   3.116   5.952 -0.0601  0.0031  0.0763
 1191loPI   GL218718  12.558   2.884   6.155 -0.0710  0.1193 -0.2830
 1191loPI   C1A18719  12.525   3.430   6.337  0.0909  0.1214  0.0734
 1191loPI   C2A18720  12.511   3.528   6.762  0.1633  0.4678  0.0227
 1191loPI   C3A18721  12.537   3.513   7.179 -0.1030  0.0076  0.0888
 1191loPI   C4A18722  12.672   3.474   7.669  0.5331 -0.0481 -0.1743
 1191loPI   C5A18723  12.925   3.429   8.117 -0.0041 -0.0646  0.3496
 1191loPI   C6A18724  13.290   3.501   8.407  0.0072 -0.0656  0.1903
 1191loPI   C1B18725  12.526   2.962   6.630 -0.3887 -0.4806  0.3854
 1191loPI   C2B18726  12.562   2.969   7.076  0.1956 -0.1422  0.2899
 1191loPI   C3B18727  12.599   3.007   7.406 -0.0511  0.3643 -0.1344
 1191loPI   C4B18728  12.560   2.901   7.875 -0.0640 -0.2100 -0.5357
 1192loPI    C118729   4.126  15.749   5.428 -0.1252  0.0216 -0.0520
 1192loPI    C218730   4.486  15.697   5.262  0.0037  0.2942  0.1328
 1192loPI    C318731   4.185  15.842   5.043 -0.0087  0.0255 -0.0339
 1192loPI   PO418732   4.166  15.790   5.657 -0.2301 -0.0243  0.0876
 1192loPI   GL118733   4.364  15.783   6.070 -0.0195 -0.0556  0.4154
 1192loPI   GL218734   4.657  15.921   6.109  0.1184  0.3367  0.0673
 1192loPI   C1A18735   4.221  15.570   6.380  0.3180 -0.2014  0.2949
 1192loPI   C2A18736   4.194  15.571   6.787  0.2125  0.2342  0.0755
 1192loPI   C3A18737   4.163  15.629   7.260  0.2790 -0.0308 -0.0968
 1192loPI   C4A18738   4.131  15.687   7.765 -0.2979  0.1286  0.2998
 1192loPI   C5A18739   4.073  15.691   8.140 -0.0538  0.3730 -0.0739
 1192loPI   C6A18740   4.050  15.724   8.620 -0.0851 -0.1833  0.1001
 1192loPI   C1B18741   4.614  15.872   6.532 -0.2214  0.1906 -0.0463
 1192loPI   C2B18742   4.582  15.909   6.922  0.1996 -0.1164 -0.1247
 1192loPI   C3B18743   4.640  15.914   7.350  0.0606  0.3126  0.1801
 1192loPI   C4B18744   4.573  15.938   7.833 -0.0284  0.2193  0.0681
 1193loPI    C118745  13.376  14.953   5.333  0.0880  0.1097  0.0630
 1193loPI    C218746  13.225  15.228   5.085  0.0305  0.1486  0.1407
 1193loPI    C318747  13.211  14.841   4.987  0.3288  0.1903 -0.0806
 1193loPI   PO418748  13.274  15.027   5.524  0.0232 -0.1004 -0.0449
 1193loPI   GL118749  13.207  14.751   5.832  0.1072 -0.2887  0.1712
 1193loPI   GL218750  13.478  14.837   5.908  0.2357  0.4544  0.0932
 1193loPI   C1A18751  13.131  14.919   6.242 -0.0302 -0.0787  0.0212
 1193loPI   C2A18752  13.185  14.970   6.637  0.2552  0.1321 -0.1429
 1193loPI   C3A18753  13.232  14.931   7.090 -0.1759  0.0453  0.1775
 1193loPI   C4A18754  13.315  14.777   7.516 -0.2085 -0.0336  0.3142
 1193loPI   C5A18755  13.259  14.717   7.969 -0.0647  0.3786 -0.3424
 1193loPI   C6A18756  13.152  14.871   8.319 -0.0622  0.0988 -0.1633
 1193loPI   C1B18757  13.550  14.640   6.262 -0.2246  0.1933 -0.1742
 1193loPI   C2B18758  13.679  14.749   6.740  0.0121  0.3605 -0.1100
 1193loPI   C3B18759  13.705  14.593   7.231  0.1657  0.0709  0.2881
 1193loPI   C4B18760  13.669  14.508   7.704 -0.3348  0.1912 -0.4847
 1194loPI    C118761  10.189  14.861   5.522  0.1518 -0.0473 -0.0861
 1194loPI    C218762  10.274  15.241   5.429 -0.3171  0.0895  0.0203
 1194loPI    C318763  10.150  14.989   5.145  0.1636 -0.0384 -0.0843
 1194loPI   PO418764  10.097  14.886   5.768 -0.1920  0.2063 -0.2786
 1194loPI   GL118765  10.087  14.994   6.204  0.0922  0.4343 -0.0265
 1194loPI   GL218766   9.915  15.202   6.142  0.0005 -0.0133 -0.2864
 1194loPI   C1A18767  10.439  14.806   6.357  0.2492 -0.0525  0.1291
 1194loPI   C2A18768  10.425  14.812   6.859  0.1826  0.0278  0.1257
 1194loPI   C3A18769  10.467  14.855   7.219  0.0641  0.0295  0.1316
 1194loPI   C4A18770  10.543  14.777   7.704  0.0341 -0.1495 -0.0615
 1194loPI   C5A18771  10.514  14.605   8.117  0.1349 -0.0483 -0.0966
 1194loPI   C6A18772  10.397  14.565   8.521  0.3373 -0.0563  0.1236
 1194loPI   C1B18773   9.979  15.201   6.629  0.1050  0.1187  0.2165
 1194loPI   C2B18774  10.043  15.124   7.036  0.0116 -0.1548  0.0838
 1194loPI   C3B18775  10.084  15.039   7.515 -0.0424 -0.1203  0.0653
 1194loPI   C4B18776  10.126  15.035   7.856  0.1059  0.0568 -0.3839
 1195loPI    C118777  11.261   7.018   5.254  0.0140  0.0200  0.0784
 1195loPI    C218778  11.315   7.348   5.035  0.0602 -0.0685 -0.0448
 1195loPI    C318779  11.018   7.095   4.946 -0.0367 -0.0104  0.1107
 1195loPI   PO418780  11.312   7.171   5.509 -0.1385  0.0765 -0.0257
 1195loPI   GL118781  11.407   7.253   5.940 -0.2006  0.1768  0.0255
 1195loPI   GL218782  11.299   7.021   6.072  0.2433 -0.0144 -0.1943
 1195loPI   C1A18783  11.386   7.571   6.336 -0.1298  0.2591  0.0031
 1195loPI   C2A18784  11.555   7.608   6.825  0.1744 -0.1931 -0.0390
 1195loPI   C3A18785  11.535   7.640   7.321  0.0248  0.0113  0.1894
 1195loPI   C4A18786  11.614   7.657   7.754 -0.5939 -0.0157  0.0675
 1195loPI   C5A18787  11.642   7.623   8.185 -0.0040 -0.4236 -0.0434
 1195loPI   C6A18788  11.804   7.844   8.574 -0.1788  0.2108  0.0319
 1195loPI   C1B18789  11.460   7.142   6.540  0.6942  0.1421  0.1521
 1195loPI   C2B18790  11.507   7.144   6.977  0.3079  0.0397  0.1102
 1195loPI   C3B18791  11.621   7.137   7.380 -0.2606 -0.0954  0.1501
 1195loPI   C4B18792  11.507   7.146   7.817  0.1745  0.0511 -0.0559
 1196loPI    C118793   3.226  11.723   5.510  0.2394  0.0090  0.0336
 1196loPI    C218794   3.169  12.119   5.510 -0.0620 -0.0322 -0.0980
 1196loPI    C318795   3.445  11.956   5.270 -0.0338  0.0853 -0.1457
 1196loPI   PO418796   3.195  11.649   5.695  0.0936 -0.1949  0.2056
 1196loPI   GL118797   3.412  11.824   6.146  0.0082 -0.1572 -0.1684
 1196loPI   GL218798   3.379  11.522   6.224 -0.1050 -0.0025 -0.0026
 1196loPI   C1A18799   3.471  11.938   6.620  0.0558 -0.0474  0.1200
 1196loPI   C2A18800   3.506  11.963   7.004  0.0134 -0.0139 -0.0221
 1196loPI   C3A18801   3.435  12.109   7.416  0.1954 -0.1131 -0.0106
 1196loPI   C4A18802   3.450  12.079   7.924 -0.1426  0.1593 -0.0065
 1196loPI   C5A18803   3.045  12.117   8.109  0.1629  0.1765  0.0526
 1196loPI   C6A18804   2.736  12.479   8.219  0.1761 -0.0951  0.2092
 1196loPI   C1B18805   3.488  11.421   6.652 -0.1454  0.1412  0.4106
 1196loPI   C2B18806   3.546  11.474   7.138 -0.0037 -0.2129 -0.1009
 1196loPI   C3B18807   3.441  11.525   7.515  0.1579  0.2753  0.1234
 1196loPI   C4B18808   3.358  11.559   7.993 -0.1468 -0.1179  0.0273
 1197loPI    C118809   1.527  12.574   5.144 -0.0121  0.0190  0.0399
 1197loPI    C218810   1.894  12.672   5.018  0.0989 -0.2437  0.1511
 1197loPI    C318811   1.572  12.801   4.818  0.2512 -0.0296  0.0404
 1197loPI   PO418812   1.599  12.740   5.421  0.1766 -0.2956  0.1054
 1197loPI   GL118813   1.716  12.774   5.922 -0.2405 -0.0657  0.1656
 1197loPI   GL218814   1.384  12.750   5.948  0.2165 -0.2238  0.2125
 1197loPI   C1A18815   1.696  12.555   6.417 -0.1811  0.2310  0.1334
 1197loPI   C2A18816   1.704  12.437   6.804  0.0940  0.4104 -0.0764
 1197loPI   C3A18817   1.708  12.478   7.196  0.0391  0.5861 -0.0083
 1197loPI   C4A18818   1.651  12.494   7.638  0.1175 -0.0512  0.2730
 1197loPI   C5A18819   1.711  12.330   8.157 -0.1323 -0.1647 -0.0160
 1197loPI   C6A18820   1.837  12.019   8.483  0.1139 -0.0476 -0.0519
 1197loPI   C1B18821   1.246  12.699   6.317  0.0740 -0.1398  0.1701
 1197loPI   C2B18822   1.206  12.720   6.754 -0.2164  0.1502  0.2079
 1197loPI   C3B18823   1.267  12.746   7.174  0.2476 -0.3827 -0.2120
 1197loPI   C4B18824   1.208  12.762   7.592 -0.2444 -0.0297 -0.2662
 1198loPI    C118825   6.551   4.895   6.029 -0.0180  0.1385 -0.0913
 1198loPI    C218826   6.565   5.246   5.838 -0.0228  0.1100 -0.1441
 1198loPI    C318827   6.212   5.079   5.924 -0.0249  0.2220  0.0732
 1198loPI   PO418828   6.582   4.985   6.316  0.0266 -0.0107 -0.0480
 1198loPI   GL118829   6.532   4.980   6.676  0.2459 -0.0887  0.0994
 1198loPI   GL218830   6.629   4.709   6.778 -0.0030 -0.2262 -0.2541
 1198loPI   C1A18831   6.377   5.000   7.136 -0.0235  0.2707 -0.0711
 1198loPI   C2A18832   6.463   5.163   7.450  0.0331  0.3618 -0.0930
 1198loPI   C3A18833   6.798   5.135   7.639  0.0430 -0.0455  0.0714
 1198loPI   C4A18834   7.080   5.244   7.915  0.1196 -0.4211  0.0950
 1198loPI   C5A18835   7.369   5.158   8.112  0.0066 -0.0220 -0.0791
 1198loPI   C6A18836   7.652   4.995   8.434  0.2754 -0.2366 -0.1826
 1198loPI   C1B18837   6.458   4.438   7.060  0.0793 -0.0830 -0.0572
 1198loPI   C2B18838   6.548   4.325   7.528  0.2447 -0.1105 -0.1553
 1198loPI   C3B18839   6.325   4.243   7.963 -0.0442 -0.0701 -0.1133
 1198loPI   C4B18840   6.262   4.477   8.354 -0.0549 -0.2937  0.0323
 1199loPI    C118841  11.572   1.665   5.481 -0.2128 -0.0293  0.1409
 1199loPI    C218842  11.579   1.386   5.195  0.1196  0.0055  0.1108
 1199loPI    C318843  11.512   1.768   5.099  0.1013 -0.0011  0.0970
 1199loPI   PO418844  11.560   1.600   5.684  0.2427 -0.0459 -0.1687
 1199loPI   GL118845  11.635   1.275   6.014 -0.1969  0.1462  0.1538
 1199loPI   GL218846  11.288   1.098   6.153 -0.0475  0.0446 -0.0833
 1199loPI   C1A18847  11.707   1.321   6.366 -0.1498  0.1518  0.1597
 1199loPI   C2A18848  11.783   1.384   6.871 -0.3633 -0.1850 -0.0441
 1199loPI   C3A18849  11.819   1.284   7.257  0.2079  0.1654 -0.2301
 1199loPI   C4A18850  11.747   1.197   7.679 -0.3243  0.1776  0.1140
 1199loPI   C5A18851  11.876   1.046   8.068  0.0526 -0.0464 -0.2666
 1199loPI   C6A18852  11.927   0.669   8.247  0.0625 -0.4899 -0.2955
 1199loPI   C1B18853  11.236   1.074   6.616 -0.1443  0.4254 -0.3118
 1199loPI   C2B18854  11.386   1.096   7.034 -0.2814 -0.2101  0.0771
 1199loPI   C3B18855  11.352   1.046   7.452  0.4319  0.0874  0.2219
 1199loPI   C4B18856  11.199   1.094   7.938  0.0030  0.1925 -0.1112
 1200loPI    C118857   9.565   9.329   5.296 -0.0089 -0.0285 -0.0793
 1200loPI    C218858   9.634   8.943   5.218 -0.2475 -0.1112  0.1077
 1200loPI    C318859   9.482   9.181   4.934  0.2219 -0.0689 -0.1172
 1200loPI   PO418860   9.638   9.396   5.559  0.1414  0.1509 -0.0701
 1200loPI   GL118861   9.451   9.254   5.974 -0.0156 -0.4109  0.1940
 1200loPI   GL218862   9.297   9.487   6.103  0.2760 -0.0926  0.1138
 1200loPI   C1A18863   9.623   9.170   6.352  0.0107 -0.0470 -0.1520
 1200loPI   C2A18864   9.718   9.166   6.670  0.1914  0.1492  0.3530
 1200loPI   C3A18865   9.748   9.112   7.104  0.4219  0.0798 -0.2922
 1200loPI   C4A18866   9.737   9.102   7.543 -0.3569  0.3492  0.2963
 1200loPI   C5A18867   9.893   9.130   7.945  0.1154 -0.1955 -0.3034
 1200loPI   C6A18868   9.735   9.316   8.400  0.0182 -0.3297  0.0718
 1200loPI   C1B18869   9.264   9.408   6.579 -0.0418  0.0570 -0.1569
 1200loPI   C2B18870   9.218   9.362   7.050  0.2066  0.3550 -0.2680
 1200loPI   C3B18871   9.286   9.337   7.487  0.0305 -0.0989  0.1067
 1200loPI   C4B18872   9.411   9.286   7.956  0.3352  0.0530  0.3460
 1201loPI    C118873   1.493   7.555   4.760 -0.1104  0.0308  0.0887
 1201loPI    C218874   1.253   7.238   4.712  0.0483 -0.0878  0.0685
 1201loPI    C318875   1.363   7.456   4.395  0.0475 -0.0927  0.0649
 1201loPI   PO418876   1.533   7.609   5.074  0.0835  0.1766 -0.0142
 1201loPI   GL118877   1.438   7.597   5.500 -0.2110 -0.0358 -0.3676
 1201loPI   GL218878   1.489   7.262   5.657  0.3344  0.2535 -0.0418
 1201loPI   C1A18879   1.550   7.742   5.916  0.3355 -0.0490  0.1139
 1201loPI   C2A18880   1.688   7.791   6.343  0.1101  0.0030 -0.0195
 1201loPI   C3A18881   1.778   7.803   6.811 -0.2800  0.2733 -0.1648
 1201loPI   C4A18882   1.726   7.840   7.186  0.1028 -0.1183  0.2988
 1201loPI   C5A18883   1.804   7.733   7.521 -0.2268  0.0518  0.3178
 1201loPI   C6A18884   1.878   7.872   7.935  0.1417 -0.2046 -0.0077
 1201loPI   C1B18885   1.606   7.215   5.998  0.0198 -0.0320 -0.1693
 1201loPI   C2B18886   1.696   7.268   6.442 -0.1937  0.1219 -0.3019
 1201loPI   C3B18887   1.685   7.310   6.870 -0.1328 -0.1187 -0.0666
 1201loPI   C4B18888   1.837   7.243   7.249  0.1189 -0.3401 -0.0281
 1202loPI    C118889  16.414   3.827   5.370 -0.1612 -0.0539  0.1271
 1202loPI    C218890  16.462   4.222   5.329 -0.0787 -0.0637  0.1286
 1202loPI    C318891  16.655   3.971   5.085 -0.2369 -0.0997  0.0393
 1202loPI   PO418892  16.339   3.855   5.701  0.1237 -0.3324 -0.2241
 1202loPI   GL118893  16.097   3.751   6.023  0.3145 -0.1479  0.0456
 1202loPI   GL218894  16.103   4.121   6.119  0.0592  0.1720  0.2130
 1202loPI   C1A18895  16.102   3.595   6.402  0.2406 -0.2925 -0.1663
 1202loPI   C2A18896  16.078   3.611   6.878 -0.0090 -0.0315  0.2911
 1202loPI   C3A18897  16.100   3.683   7.342  0.1394  0.1790  0.2229
 1202loPI   C4A18898  16.095   3.689   7.743  0.0135 -0.2392  0.0181
 1202loPI   C5A18899  15.883   3.846   8.067 -0.0143  0.0617 -0.0385
 1202loPI   C6A18900  15.617   4.156   8.296 -0.0688 -0.2461 -0.0988
 1202loPI   C1B18901  16.029   4.101   6.526 -0.2841  0.0213  0.1625
 1202loPI   C2B18902  16.074   4.157   6.865  0.1014  0.1226 -0.1637
 1202loPI   C3B18903  16.122   4.138   7.214  0.1746 -0.1205 -0.1755
 1202loPI   C4B18904  16.133   4.167   7.680 -0.0100 -0.1472 -0.0892
 1203loPI    C118905   4.587   8.817   5.533  0.0435 -0.0815 -0.0861
 1203loPI    C218906   4.399   8.466   5.573  0.0191 -0.0653 -0.0585
 1203loPI    C318907   4.379   8.665   5.227 -0.2193  0.0543  0.0214
 1203loPI   PO418908   4.523   8.880   5.771 -0.2680  0.2639 -0.1473
 1203loPI   GL118909   4.494   9.193   5.997  0.2315 -0.0495  0.4485
 1203loPI   GL218910   4.377   9.417   6.184  0.0896  0.2341  0.0043
 1203loPI   C1A18911   4.460   8.895   6.370  0.2169 -0.0438  0.1837
 1203loPI   C2A18912   4.386   8.853   6.795 -0.0619  0.0640  0.2183
 1203loPI   C3A18913   4.499   8.849   7.208 -0.1678  0.0538  0.3179
 1203loPI   C4A18914   4.440   8.857   7.673 -0.1473  0.2120 -0.2003
 1203loPI   C5A18915   4.360   8.720   8.033 -0.0524  0.1248 -0.3495
 1203loPI   C6A18916   4.246   9.049   8.379 -0.2144 -0.0025  0.0698
 1203loPI   C1B18917   4.424   9.318   6.604 -0.0658  0.0600  0.0098
 1203loPI   C2B18918   4.454   9.412   7.149  0.0168  0.2326 -0.0113
 1203loPI   C3B18919   4.371   9.450   7.558  0.0964  0.0597  0.3294
 1203loPI   C4B18920   4.460   9.365   8.020  0.0467  0.0068 -0.2106
 1204loPI    C118921  16.625  15.453   5.099 -0.0635 -0.0050 -0.0580
 1204loPI    C218922  16.610  15.092   4.927  0.1992  0.0648 -0.2329
 1204loPI    C318923  16.331  15.366   4.842 -0.0741 -0.1361 -0.0022
 1204loPI   PO418924  16.708  15.452   5.395 -0.0789 -0.2268  0.0265
 1204loPI   GL118925  16.643  15.323   5.815  0.0058 -0.1438  0.1239
 1204loPI   GL218926  16.538  15.127   5.972 -0.0250 -0.3000 -0.1914
 1204loPI   C1A18927  16.839  15.469   6.209 -0.1580 -0.2089 -0.0604
 1204loPI   C2A18928  16.938  15.569   6.630  0.1458 -0.3074 -0.2023
 1204loPI   C3A18929  16.797  15.599   7.073  0.1465  0.0465 -0.3325
 1204loPI   C4A18930  16.802  15.479   7.493 -0.1940  0.1937  0.4155
 1204loPI   C5A18931  16.732  15.494   7.937  0.0680 -0.0539  0.0827
 1204loPI   C6A18932  16.672  15.448   8.321  0.0954  0.1047 -0.0731
 1204loPI   C1B18933  16.335  15.340   6.235  0.1012  0.1804  0.2228
 1204loPI   C2B18934  16.410  15.258   6.690 -0.2385 -0.1417  0.2043
 1204loPI   C3B18935  16.355  15.241   7.109  0.1510  0.0269 -0.2853
 1204loPI   C4B18936  16.346  15.184   7.515 -0.4687 -0.3105  0.0536
 1205loPI    C118937  16.538  13.233   5.386 -0.0572  0.0515  0.0863
 1205loPI    C218938  16.865  13.418   5.250 -0.0686  0.1030  0.1290
 1205loPI    C318939  16.691  13.132   5.030  0.1263 -0.0714  0.1987
 1205loPI   PO418940  16.453  13.361   5.588  0.3185 -0.2568 -0.0962
 1205loPI   GL118941  16.540  13.459   6.033 -0.2097  0.1883  0.1338
 1205loPI   GL218942  16.767  13.584   6.137 -0.0681  0.1058 -0.1260
 1205loPI   C1A18943  16.410  13.186   6.318 -0.0573  0.1865  0.0724
 1205loPI   C2A18944  16.316  13.173   6.741 -0.0088  0.0280  0.0064
 1205loPI   C3A18945  16.440  13.201   7.189  0.4466 -0.2050 -0.1693
 1205loPI   C4A18946  16.459  13.239   7.615 -0.0705  0.1118  0.0697
 1205loPI   C5A18947  16.496  12.896   7.925  0.3587 -0.0953 -0.0609
 1205loPI   C6A18948  16.391  12.453   8.005  0.3858  0.0671 -0.1164
 1205loPI   C1B18949  16.910  13.549   6.556 -0.2169  0.0005 -0.1816
 1205loPI   C2B18950  16.871  13.567   7.017 -0.0147 -0.0251 -0.0863
 1205loPI   C3B18951  16.831  13.464   7.422 -0.1167 -0.1842  0.1518
 1205loPI   C4B18952  16.883  13.462   7.882  0.0116 -0.1266  0.0346
 1206loPI    C118953  15.477  17.204   5.534 -0.0813  0.1814 -0.1717
 1206loPI    C218954  15.793  16.964   5.477  0.0196  0.1895  0.3114
 1206loPI    C318955  15.422  16.824   5.419  0.0994  0.1163 -0.0471
 1206loPI   PO418956  15.392  17.310   5.779  0.1953  0.1507 -0.0190
 1206loPI   GL118957  15.630  17.329   6.184 -0.1479  0.1411 -0.0317
 1206loPI   GL218958  15.942  17.178   6.183 -0.1024 -0.0214  0.0546
 1206loPI   C1A18959  15.462  17.290   6.541 -0.0352 -0.2380 -0.0041
 1206loPI   C2A18960  15.387  17.270   7.019 -0.0009 -0.2649 -0.3931
 1206loPI   C3A18961  15.460  17.297   7.368 -0.1749  0.2041 -0.2835
 1206loPI   C4A18962  15.422  17.240   7.764  0.0959  0.2077 -0.0531
 1206loPI   C5A18963  15.452  17.156   8.096 -0.1573  0.0378 -0.1166
 1206loPI   C6A18964  15.238  17.294   8.465 -0.0779  0.2892  0.0163
 1206loPI   C1B18965  15.886  17.059   6.654  0.2360 -0.3504  0.0173
 1206loPI   C2B18966  15.973  17.095   7.132  0.1467 -0.1636 -0.0582
 1206loPI   C3B18967  15.896  17.072   7.552  0.0075 -0.1013  0.1035
 1206loPI   C4B18968  15.917  17.037   7.992  0.1647  0.2042  0.2301
 1207loPI    C118969  15.442  10.481   5.392 -0.0947 -0.0129  0.1461
 1207loPI    C218970  15.414  10.786   5.135 -0.0400 -0.0826  0.0569
 1207loPI    C318971  15.698  10.508   5.086  0.0388 -0.0386  0.2545
 1207loPI   PO418972  15.537  10.525   5.680 -0.0751  0.3132 -0.0177
 1207loPI   GL118973  15.382  10.706   6.089  0.0015 -0.1107  0.3342
 1207loPI   GL218974  15.636  10.550   6.221 -0.3018 -0.0218 -0.1965
 1207loPI   C1A18975  15.202  10.794   6.470  0.1385  0.2118 -0.1834
 1207loPI   C2A18976  15.036  10.841   6.924  0.1013  0.1798 -0.0365
 1207loPI   C3A18977  15.165  10.793   7.374  0.1690  0.1439 -0.0989
 1207loPI   C4A18978  15.096  10.805   7.837  0.0505 -0.1378  0.0211
 1207loPI   C5A18979  15.104  10.663   8.213  0.1571  0.1820 -0.1603
 1207loPI   C6A18980  14.937  10.218   8.316  0.0483  0.2877  0.0236
 1207loPI   C1B18981  15.623  10.611   6.687 -0.2240  0.0111  0.3110
 1207loPI   C2B18982  15.514  10.631   7.081  0.1526 -0.1349  0.0157
 1207loPI   C3B18983  15.616  10.541   7.517  0.2223 -0.2777  0.0691
 1207loPI   C4B18984  15.513  10.626   7.947 -0.0882  0.0578 -0.0620
 1208loPI    C118985  13.610   0.187   5.294 -0.0292  0.2320 -0.1437
 1208loPI    C218986  13.434   0.280   4.947 -0.1367  0.0006 -0.1536
 1208loPI    C318987  13.821   0.181   4.954 -0.1000  0.1384 -0.1866
 1208loPI   PO418988  13.429   0.176   5.446  0.3541 -0.0130 -0.0923
 1208loPI   GL118989  13.350   0.260   5.927 -0.2270 -0.0173 -0.0945
 1208loPI   GL218990  13.507   0.502   6.093  0.1523  0.4138 -0.1014
 1208loPI   C1A18991  13.150   0.193   6.248 -0.0095  0.2580 -0.2109
 1208loPI   C2A18992  13.053   0.157   6.637 -0.2112 -0.3325  0.2493
 1208loPI   C3A18993  13.160   0.021   7.054 -0.0112 -0.1175  0.1991
 1208loPI   C4A18994  13.196   0.029   7.515  0.2875 -0.2228  0.0204
 1208loPI   C5A18995  13.190   0.058   7.948 -0.0317 -0.1419  0.1347
 1208loPI   C6A18996  13.465   0.184   8.288 -0.0091 -0.2007  0.1595
 1208loPI   C1B18997  13.472   0.476   6.553 -0.1404  0.0908  0.3574
 1208loPI   C2B18998  13.443   0.374   6.964 -0.2125  0.1145  0.0951
 1208loPI   C3B18999  13.573   0.340   7.340  0.0414 -0.0406  0.0580
 1208loPI   C4B19000  13.582   0.371   7.786 -0.2008 -0.2185 -0.1070
 1209loPI    C119001  10.449   1.374   5.497 -0.1153  0.1621 -0.0869
 1209loPI    C219002  10.531   1.266   5.120 -0.0880 -0.0530 -0.0210
 1209loPI    C319003  10.152   1.275   5.249 -0.0866 -0.1223 -0.0117
 1209loPI   PO419004  10.689   1.452   5.611  0.0716  0.0065  0.3189
 1209loPI   GL119005  10.786   1.356   6.064  0.0884  0.2124 -0.0453
 1209loPI   GL219006  10.491   1.236   5.996  0.3268 -0.2803 -0.0806
 1209loPI   C1A19007  10.748   1.389   6.465 -0.2996 -0.3378 -0.1251
 1209loPI   C2A19008  10.904   1.365   6.876 -0.0485 -0.1685  0.0885
 1209loPI   C3A19009  10.836   1.251   7.255  0.0320 -0.1480 -0.0957
 1209loPI   C4A19010  10.897   1.379   7.636  0.2385  0.0505 -0.2199
 1209loPI   C5A19011  10.830   1.422   8.064 -0.2462  0.0103 -0.2252
 1209loPI   C6A19012  10.656   1.480   8.507 -0.1214  0.1434  0.2922
 1209loPI   C1B19013  10.382   1.072   6.320 -0.1606 -0.0662 -0.1103
 1209loPI   C2B19014  10.381   1.081   6.714 -0.2445  0.2594  0.0759
 1209loPI   C3B19015  10.403   1.019   7.172  0.1972 -0.4292  0.1165
 1209loPI   C4B19016  10.431   1.013   7.629 -0.2418 -0.0424 -0.1572
 1210loPI    C119017  15.801  13.527   5.092 -0.0643  0.0537  0.0273
 1210loPI    C219018  15.931  13.905   5.086  0.0766  0.0053 -0.0281
 1210loPI    C319019  16.001  13.665   4.774 -0.0300 -0.0611 -0.0015
 1210loPI   PO419020  15.911  13.387   5.369  0.1381 -0.0920 -0.0139
 1210loPI   GL119021  15.953  13.376   5.790  0.1918  0.2282 -0.0619
 1210loPI   GL219022  15.742  13.460   5.860  0.0695  0.0321 -0.0242
 1210loPI   C1A19023  15.927  13.128   6.185  0.0650  0.0466 -0.2319
 1210loPI   C2A19024  15.845  12.911   6.586 -0.5664 -0.3059  0.0079
 1210loPI   C3A19025  15.944  12.870   7.064 -0.0953  0.3181 -0.0790
 1210loPI   C4A19026  15.939  12.862   7.494 -0.1360  0.2540 -0.1831
 1210loPI   C5A19027  15.967  12.896   7.940 -0.1004 -0.1376 -0.0170
 1210loPI   C6A19028  15.924  12.593   8.325 -0.0047 -0.0348  0.2315
 1210loPI   C1B19029  15.973  13.623   6.259  0.0520 -0.2626 -0.0866
 1210loPI   C2B19030  15.876  13.383   6.638  0.0544  0.1402  0.1428
 1210loPI   C3B19031  15.964  13.419   7.054  0.0815  0.0582 -0.2164
 1210loPI   C4B19032  15.974  13.434   7.616  0.1688  0.0580 -0.0312
 1211loPI    C119033   3.036  17.611   5.613  0.2158  0.0992  0.1471
 1211loPI    C219034   3.370  17.449   5.466  0.1136  0.0211 -0.0022
 1211loPI    C319035   3.196  17.754   5.275  0.0181 -0.0352 -0.0056
 1211loPI   PO419036   3.123  17.648   5.887  0.0166  0.0387  0.1666
 1211loPI   GL119037   3.029  17.569   6.230  0.1446 -0.1242 -0.0337
 1211loPI   GL219038   2.732  17.742   6.323 -0.0939 -0.0318  0.1924
 1211loPI   C1A19039   3.150  17.594   6.642 -0.2929  0.2937 -0.1863
 1211loPI   C2A19040   3.142  17.539   7.067 -0.4889  0.0735 -0.0204
 1211loPI   C3A19041   3.021  17.558   7.446 -0.0710 -0.1625 -0.0214
 1211loPI   C4A19042   3.135  17.312   7.901 -0.2331  0.1356 -0.3092
 1211loPI   C5A19043   2.860  17.462   8.171  0.1510  0.2204  0.3150
 1211loPI   C6A19044   2.992  17.651   8.508 -0.0647  0.0653 -0.4200
 1211loPI   C1B19045   2.660  17.732   6.665  0.0822  0.1893  0.0663
 1211loPI   C2B19046   2.582  17.843   7.081 -0.1137 -0.0923 -0.5452
 1211loPI   C3B19047   2.488  17.796   7.506 -0.0458  0.1488 -0.1206
 1211loPI   C4B19048   2.550  17.803   7.943 -0.0706  0.2836 -0.1368
 1212loPI    C119049  11.513  10.224   5.356 -0.0523  0.0635  0.0158
 1212loPI    C219050  11.320   9.875   5.318  0.0530 -0.0101  0.1444
 1212loPI    C319051  11.271  10.162   5.044  0.2141 -0.2455 -0.1360
 1212loPI   PO419052  11.610  10.241   5.590  0.4091  0.2690 -0.0004
 1212loPI   GL119053  11.478  10.167   6.057 -0.2468 -0.3004  0.0529
 1212loPI   GL219054  11.794   9.974   6.114 -0.1097  0.0035 -0.1299
 1212loPI   C1A19055  11.482  10.169   6.510 -0.1555 -0.0623  0.0465
 1212loPI   C2A19056  11.389  10.124   6.923  0.1316  0.1203 -0.1524
 1212loPI   C3A19057  11.531  10.145   7.258  0.0133  0.1804  0.0561
 1212loPI   C4A19058  11.631  10.236   7.611 -0.2872 -0.0442 -0.2277
 1212loPI   C5A19059  11.755  10.297   8.023 -0.0911  0.1320 -0.0142
 1212loPI   C6A19060  11.660  10.494   8.379  0.2555 -0.2031  0.0506
 1212loPI   C1B19061  11.947   9.945   6.539 -0.2257  0.4194  0.1831
 1212loPI   C2B19062  11.948   9.915   6.987  0.1889 -0.0476  0.1051
 1212loPI   C3B19063  12.056   9.980   7.500 -0.2173  0.0342 -0.2446
 1212loPI   C4B19064  12.078   9.910   7.934  0.0105  0.0541  0.1322
 1213loPI    C119065   7.089  12.317   5.652  0.2662  0.2222 -0.0019
 1213loPI    C219066   7.006  12.563   5.347  0.2248  0.1703 -0.0328
 1213loPI    C319067   6.914  12.175   5.321  0.1008  0.1900  0.0980
 1213loPI   PO419068   7.015  12.439   5.832  0.3542 -0.0179 -0.0689
 1213loPI   GL119069   6.967  12.643   6.213  0.1377 -0.0480 -0.1964
 1213loPI   GL219070   6.716  12.949   6.179 -0.1608 -0.2535  0.4062
 1213loPI   C1A19071   6.961  12.591   6.663 -0.0259  0.1256 -0.2437
 1213loPI   C2A19072   7.077  12.653   7.158  0.0355 -0.1323  0.1419
 1213loPI   C3A19073   7.043  12.576   7.501 -0.2945  0.1081  0.2067
 1213loPI   C4A19074   7.000  12.625   7.833  0.2635  0.0465 -0.1948
 1213loPI   C5A19075   6.731  12.541   8.192  0.1167 -0.0863  0.0773
 1213loPI   C6A19076   6.381  12.261   8.272  0.1527 -0.0810 -0.1834
 1213loPI   C1B19077   6.541  12.982   6.566  0.0995 -0.1155 -0.1745
 1213loPI   C2B19078   6.470  12.994   6.925 -0.0028 -0.0376 -0.1336
 1213loPI   C3B19079   6.580  12.940   7.328 -0.0754  0.0991  0.4473
 1213loPI   C4B19080   6.587  12.933   7.768  0.1430  0.1831  0.0496
 1214loPI    C119081  17.163   3.030   5.498  0.0285 -0.2078 -0.1010
 1214loPI    C219082  16.810   3.068   5.314  0.1911 -0.0275 -0.3834
 1214loPI    C319083  17.015   2.726   5.285 -0.0195 -0.1817 -0.1052
 1214loPI   PO419084  17.143   3.033   5.776  0.1172 -0.0137 -0.3787
 1214loPI   GL119085  17.066   2.960   6.187  0.1543 -0.4523  0.0145
 1214loPI   GL219086  17.029   2.675   6.306  0.0609 -0.3783  0.0056
 1214loPI   C1A19087  16.978   3.161   6.643  0.0513 -0.0353 -0.1963
 1214loPI   C2A19088  17.058   3.146   7.001  0.0917 -0.4216 -0.1167
 1214loPI   C3A19089  16.976   3.086   7.436 -0.2060 -0.1557  0.2337
 1214loPI   C4A19090  17.090   3.048   7.772 -0.0245  0.3291 -0.1983
 1214loPI   C5A19091  17.082   2.977   8.132  0.0475 -0.0226 -0.0090
 1214loPI   C6A19092  17.163   2.723   8.471  0.1230 -0.2940  0.1131
 1214loPI   C1B19093  17.073   2.717   6.734 -0.1551  0.3419 -0.0743
 1214loPI   C2B19094  17.098   2.667   7.160 -0.1060  0.0057 -0.1095
 1214loPI   C3B19095  17.012   2.570   7.514 -0.2537 -0.2319 -0.3166
 1214loPI   C4B19096  17.107   2.536   7.907 -0.1327  0.4116 -0.4150
 1215loPI    C119097   3.476  12.751   5.686 -0.1802  0.1529 -0.0567
 1215loPI    C219098   3.513  12.487   5.388 -0.1344  0.0965 -0.0011
 1215loPI    C319099   3.467  12.876   5.306  0.0456  0.1019 -0.0797
 1215loPI   PO419100   3.566  12.590   5.876 -0.0657 -0.1709 -0.2451
 1215loPI   GL119101   3.457  12.395   6.157 -0.1220  0.3246  0.1866
 1215loPI   GL219102   3.799  12.296   6.340  0.0359  0.1218  0.0751
 1215loPI   C1A19103   3.493  12.641   6.478 -0.0255 -0.2391 -0.0783
 1215loPI   C2A19104   3.531  12.570   6.862 -0.2054 -0.0190  0.3427
 1215loPI   C3A19105   3.440  12.589   7.223 -0.0323  0.1724 -0.0243
 1215loPI   C4A19106   3.473  12.654   7.683  0.3189  0.1742 -0.5728
 1215loPI   C5A19107   3.449  12.568   8.123  0.0716 -0.0966  0.1170
 1215loPI   C6A19108   3.309  12.857   8.416  0.0129 -0.1273 -0.0758
 1215loPI   C1B19109   3.828  12.192   6.733  0.0725  0.2611 -0.0636
 1215loPI   C2B19110   3.872  12.347   7.228 -0.0269 -0.2054 -0.2078
 1215loPI   C3B19111   3.860  12.306   7.699  0.0698 -0.1443  0.1262
 1215loPI   C4B19112   3.886  12.232   8.152 -0.3832  0.2685  0.0731
 1216loPI    C119113   7.791   5.867   6.073 -0.0585  0.0046 -0.1031
 1216loPI    C219114   7.507   5.925   5.797  0.0858  0.0327 -0.2470
 1216loPI    C319115   7.852   6.127   5.775  0.1934 -0.1419 -0.1831
 1216loPI   PO419116   7.660   5.878   6.272 -0.2179  0.2037 -0.2560
 1216loPI   GL119117   7.786   5.960   6.603 -0.2482  0.2969 -0.0550
 1216loPI   GL219118   7.968   5.832   6.761 -0.0461 -0.1295  0.0805
 1216loPI   C1A19119   7.711   6.291   6.850  0.0518 -0.1765  0.1744
 1216loPI   C2A19120   7.665   6.462   7.232 -0.1222  0.1210  0.1397
 1216loPI   C3A19121   7.685   6.592   7.649  0.1273  0.0067  0.1181
 1216loPI   C4A19122   7.683   6.725   8.033 -0.0176 -0.1269 -0.0180
 1216loPI   C5A19123   7.885   6.932   8.331 -0.0583  0.0140 -0.0109
 1216loPI   C6A19124   8.238   7.142   8.306  0.0639  0.0464  0.0216
 1216loPI   C1B19125   8.024   5.956   7.197  0.3137 -0.3900 -0.2873
 1216loPI   C2B19126   8.091   6.198   7.452 -0.0189  0.1862 -0.0698
 1216loPI   C3B19127   8.268   6.419   7.725  0.2386  0.0644  0.2455
 1216loPI   C4B19128   8.174   6.771   7.908  0.1531  0.1227 -0.0685
 1217loPI    C119129   5.067  14.764   5.636 -0.0802  0.0470 -0.2729
 1217loPI    C219130   4.838  14.560   5.893  0.0249  0.1759 -0.0746
 1217loPI    C319131   4.895  14.422   5.522  0.2400 -0.2511  0.1109
 1217loPI   PO419132   5.317  14.788   5.798 -0.0585  0.1496 -0.0800
 1217loPI   GL119133   5.200  14.627   6.293 -0.1924  0.2329 -0.0252
 1217loPI   GL219134   5.220  14.318   6.065 -0.1789 -0.0715 -0.2083
 1217loPI   C1A19135   5.142  14.672   6.648  0.1579  0.2549  0.0169
 1217loPI   C2A19136   5.118  14.582   7.107 -0.3677  0.0546 -0.1769
 1217loPI   C3A19137   5.290  14.645   7.467  0.1903  0.1659  0.2142
 1217loPI   C4A19138   5.260  14.643   7.855  0.1285 -0.1143  0.0416
 1217loPI   C5A19139   5.141  14.930   8.155  0.1124 -0.0675  0.1192
 1217loPI   C6A19140   4.912  14.986   8.554  0.2844 -0.0124 -0.0433
 1217loPI   C1B19141   5.126  14.158   6.479  0.2349  0.0649  0.1110
 1217loPI   C2B19142   5.130  14.103   6.867 -0.0806 -0.1835  0.1927
 1217loPI   C3B19143   5.197  14.131   7.279 -0.0678 -0.2412 -0.0476
 1217loPI   C4B19144   5.171  14.192   7.758 -0.2503  0.0410 -0.1153
 1218loPI    C119145   3.570  14.392   5.456  0.4297 -0.0047 -0.0208
 1218loPI    C219146   3.269  14.173   5.603  0.2053  0.3155  0.0081
 1218loPI    C319147   3.458  14.056   5.271  0.0315  0.1247 -0.0255
 1218loPI   PO419148   3.741  14.378   5.705  0.1607 -0.0566  0.3517
 1218loPI   GL119149   3.752  14.123   6.122 -0.2191 -0.1661  0.1547
 1218loPI   GL219150   3.528  14.441   6.134  0.0464  0.0330 -0.0678
 1218loPI   C1A19151   3.802  14.248   6.488 -0.2099 -0.0164 -0.0691
 1218loPI   C2A19152   3.807  14.322   6.871 -0.0714 -0.2840  0.0220
 1218loPI   C3A19153   3.842  14.363   7.296 -0.0332  0.0628  0.2781
 1218loPI   C4A19154   3.821  14.404   7.829  0.2506  0.0254 -0.3314
 1218loPI   C5A19155   3.709  14.566   8.224  0.0958  0.1202 -0.0916
 1218loPI   C6A19156   3.369  14.634   8.438 -0.0178  0.0465 -0.1068
 1218loPI   C1B19157   3.407  14.484   6.635  0.1034 -0.0119 -0.0804
 1218loPI   C2B19158   3.362  14.500   7.099  0.0136  0.3334 -0.1153
 1218loPI   C3B19159   3.365  14.560   7.586  0.2615  0.1587  0.0535
 1218loPI   C4B19160   3.273  14.543   7.970 -0.1738 -0.1089  0.1321
 1219loPI    C119161  14.420   8.296   5.227 -0.0900  0.2494  0.1765
 1219loPI    C219162  14.076   8.403   5.053 -0.0082  0.0989 -0.0834
 1219loPI    C319163  14.418   8.582   4.947  0.0410  0.0130 -0.0708
 1219loPI   PO419164  14.414   8.337   5.492 -0.0228 -0.4834 -0.3946
 1219loPI   GL119165  14.318   8.044   5.740 -0.1143 -0.2634  0.1220
 1219loPI   GL219166  14.628   7.986   5.874 -0.1004  0.1532  0.1100
 1219loPI   C1A19167  14.145   8.201   6.113 -0.4729  0.2276  0.0283
 1219loPI   C2A19168  14.150   8.259   6.513  0.1696  0.2688 -0.0990
 1219loPI   C3A19169  14.179   8.192   6.903 -0.1032 -0.1613 -0.2487
 1219loPI   C4A19170  14.281   8.178   7.237  0.0130 -0.0749 -0.0502
 1219loPI   C5A19171  14.305   8.259   7.683 -0.0450 -0.0404  0.2591
 1219loPI   C6A19172  14.577   8.231   8.067 -0.2176  0.1204 -0.1837
 1219loPI   C1B19173  14.614   8.001   6.309  0.0906 -0.0091  0.3400
 1219loPI   C2B19174  14.637   7.991   6.775 -0.2091  0.1412 -0.0328
 1219loPI   C3B19175  14.711   7.937   7.231  0.1040 -0.1252 -0.1250
 1219loPI   C4B19176  14.663   7.978   7.644 -0.2913  0.2700 -0.1947
 1220loPI    C119177  16.824   4.578   5.523 -0.1131  0.1495 -0.1192
 1220loPI    C219178  17.149   4.395   5.378  0.0155  0.2033  0.0966
 1220loPI    C319179  16.839   4.474   5.137 -0.0831 -0.3819  0.0176
 1220loPI   PO419180  16.710   4.508   5.710  0.0648 -0.0626 -0.0378
 1220loPI   GL119181  16.548   4.232   6.050  0.0660  0.1780  0.1310
 1220loPI   GL219182  16.583   4.419   6.218 -0.0316 -0.0413 -0.1442
 1220loPI   C1A19183  16.583   3.935   6.337 -0.0082 -0.1872  0.0638
 1220loPI   C2A19184  16.465   3.910   6.708 -0.1800  0.0091  0.0359
 1220loPI   C3A19185  16.533   3.903   7.101  0.1972  0.1149 -0.2171
 1220loPI   C4A19186  16.605   3.891   7.621 -0.1654  0.0816 -0.2394
 1220loPI   C5A19187  16.521   3.646   7.986  0.0742 -0.1550  0.2017
 1220loPI   C6A19188  16.653   3.195   8.126 -0.0358  0.1438  0.1147
 1220loPI   C1B19189  16.486   4.390   6.581  0.0825  0.4824  0.2502
 1220loPI   C2B19190  16.509   4.419   6.989 -0.1244 -0.1080 -0.1442
 1220loPI   C3B19191  16.551   4.342   7.437  0.2225  0.1375  0.0602
 1220loPI   C4B19192  16.523   4.393   7.901  0.1672 -0.0721  0.3165
 1221loPI    C119193  12.306   8.782   5.220  0.0891 -0.0168 -0.0861
 1221loPI    C219194  12.342   8.596   4.868 -0.0541  0.0296 -0.1260
 1221loPI    C319195  12.428   8.986   4.898  0.2263 -0.0363 -0.0469
 1221loPI   PO419196  12.519   8.656   5.426 -0.2057  0.0487 -0.1960
 1221loPI   GL119197  12.593   8.537   5.934 -0.0412  0.3509  0.0498
 1221loPI   GL219198  12.355   8.645   6.023 -0.0727 -0.1574  0.0887
 1221loPI   C1A19199  12.845   8.491   6.310 -0.0673 -0.0311 -0.1456
 1221loPI   C2A19200  12.868   8.461   6.732 -0.2061  0.1255  0.1585
 1221loPI   C3A19201  12.842   8.506   7.103 -0.0379 -0.0130 -0.1186
 1221loPI   C4A19202  12.946   8.386   7.588 -0.1675  0.0876 -0.0664
 1221loPI   C5A19203  12.909   8.344   7.986  0.0276  0.2696 -0.1938
 1221loPI   C6A19204  12.730   8.244   8.261  0.1682  0.4341 -0.1444
 1221loPI   C1B19205  12.348   8.762   6.481  0.2391 -0.0813  0.1692
 1221loPI   C2B19206  12.434   8.755   6.855 -0.1741 -0.1009 -0.0623
 1221loPI   C3B19207  12.393   8.766   7.290 -0.1455 -0.1846  0.0979
 1221loPI   C4B19208  12.470   8.650   7.663 -0.1715 -0.1792 -0.0755
 1222loPI    C119209   3.012  15.988   5.514  0.1023  0.0294 -0.0234
 1222loPI    C219210   3.327  16.056   5.277  0.2170 -0.0543  0.1033
 1222loPI    C319211   3.150  15.698   5.277  0.1350 -0.0140  0.0483
 1222loPI   PO419212   3.093  16.076   5.753 -0.2071  0.1177 -0.1341
 1222loPI   GL119213   3.280  15.936   6.148 -0.0095 -0.2216  0.3419
 1222loPI   GL219214   3.398  16.245   6.154  0.0219  0.1659 -0.0241
 1222loPI   C1A19215   3.173  16.002   6.583 -0.0522 -0.0042 -0.0129
 1222loPI   C2A19216   3.316  16.015   7.022 -0.0396  0.3675  0.0520
 1222loPI   C3A19217   3.138  16.089   7.383 -0.1399 -0.4094 -0.2532
 1222loPI   C4A19218   2.965  16.210   7.746  0.0873  0.0219  0.3239
 1222loPI   C5A19219   2.685  16.383   7.927 -0.1136 -0.3803  0.1910
 1222loPI   C6A19220   2.733  16.487   8.361  0.4030 -0.0025 -0.1165
 1222loPI   C1B19221   3.624  16.274   6.511 -0.2725 -0.1458  0.0321
 1222loPI   C2B19222   3.682  16.388   6.945  0.1442 -0.3281  0.1003
 1222loPI   C3B19223   3.685  16.405   7.403 -0.1288 -0.5502 -0.2266
 1222loPI   C4B19224   3.697  16.475   7.930  0.1072 -0.1112 -0.0948
 1223loPI    C119225   8.006   8.709   5.649 -0.0238 -0.1157 -0.0310
 1223loPI    C219226   7.886   8.997   5.398  0.0446  0.1718  0.2588
 1223loPI    C319227   7.967   8.631   5.259 -0.4388  0.1756 -0.0553
 1223loPI   PO419228   8.107   8.772   5.804  0.1367  0.1407  0.0454
 1223loPI   GL119229   8.310   9.090   6.152 -0.0203 -0.1315  0.0846
 1223loPI   GL219230   8.419   9.417   6.150  0.0465  0.0597  0.3661
 1223loPI   C1A19231   8.202   8.829   6.443 -0.2532 -0.0792  0.1681
 1223loPI   C2A19232   7.888   9.026   6.652  0.0476 -0.0081  0.0723
 1223loPI   C3A19233   7.900   9.038   7.080  0.0771 -0.1210  0.1550
 1223loPI   C4A19234   7.931   9.053   7.582 -0.0209 -0.0958  0.0124
 1223loPI   C5A19235   8.022   8.966   8.027 -0.0265 -0.0630  0.0891
 1223loPI   C6A19236   7.989   8.667   8.123 -0.1554  0.3319 -0.2263
 1223loPI   C1B19237   8.280   9.312   6.607  0.1189  0.1737  0.4191
 1223loPI   C2B19238   8.394   9.316   7.020 -0.1714 -0.2973  0.1989
 1223loPI   C3B19239   8.361   9.325   7.422 -0.0997 -0.0431  0.1364
 1223loPI   C4B19240   8.371   9.363   7.892 -0.0033  0.2108  0.0109
 1224loPI    C119241  12.534  10.128   5.502 -0.1601  0.2435 -0.1722
 1224loPI    C219242  12.912  10.256   5.486 -0.1365  0.2025  0.0293
 1224loPI    C319243  12.742  10.097   5.161  0.0094  0.2472 -0.0704
 1224loPI   PO419244  12.501  10.012   5.683 -0.2147  0.2336  0.2040
 1224loPI   GL119245  12.864  10.043   6.009  0.1816  0.1008  0.2432
 1224loPI   GL219246  12.725  10.399   5.976  0.2665  0.0756 -0.2654
 1224loPI   C1A19247  12.857  10.094   6.455 -0.1054 -0.2121 -0.0057
 1224loPI   C2A19248  12.799  10.025   6.822 -0.1544  0.0525  0.1080
 1224loPI   C3A19249  12.904   9.987   7.281  0.1834  0.1756 -0.1683
 1224loPI   C4A19250  12.879   9.999   7.724  0.0582  0.0524  0.0694
 1224loPI   C5A19251  12.752   9.859   8.115 -0.3269 -0.0422 -0.1503
 1224loPI   C6A19252  12.718   9.512   8.362  0.0194  0.0717  0.1843
 1224loPI   C1B19253  12.753  10.624   6.321  0.1914 -0.1982  0.0931
 1224loPI   C2B19254  12.812  10.544   6.765  0.1467  0.0800 -0.0513
 1224loPI   C3B19255  12.882  10.460   7.158  0.0231 -0.1108  0.1197
 1224loPI   C4B19256  12.833  10.559   7.446  0.0594 -0.0844 -0.0582
 1225loPI    C119257   2.145  15.923   5.918  0.1466 -0.1916  0.2731
 1225loPI    C219258   2.157  16.157   5.594  0.0961 -0.2306  0.2430
 1225loPI    C319259   1.812  16.102   5.789  0.1360 -0.1687  0.3318
 1225loPI   PO419260   2.248  15.975   6.063  0.2499 -0.1115  0.0736
 1225loPI   GL119261   2.290  15.654   6.370 -0.3274  0.0112 -0.5407
 1225loPI   GL219262   2.058  15.767   6.502 -0.3787 -0.0550 -0.0827
 1225loPI   C1A19263   2.435  15.603   6.852  0.0734 -0.0442 -0.1941
 1225loPI   C2A19264   2.353  15.830   7.176  0.0710  0.0818  0.1612
 1225loPI   C3A19265   1.960  15.888   7.407  0.3340  0.0879 -0.1193
 1225loPI   C4A19266   1.579  15.658   7.607 -0.0499  0.0837 -0.1094
 1225loPI   C5A19267   1.530  15.621   8.080  0.1354  0.1914  0.2237
 1225loPI   C6A19268   1.698  15.546   8.532 -0.2473 -0.1153 -0.1023
 1225loPI   C1B19269   1.965  15.794   6.899  0.1143 -0.2875  0.0462
 1225loPI   C2B19270   1.554  15.668   7.111  0.2298 -0.0632  0.2024
 1225loPI   C3B19271   1.183  15.829   7.326 -0.0957 -0.1303 -0.0868
 1225loPI   C4B19272   1.029  15.928   7.755 -0.0597 -0.0393 -0.1138
 1226loPI    C119273   8.245   3.804   6.249  0.0079  0.1354  0.1271
 1226loPI    C219274   8.297   4.104   5.990 -0.0094  0.0011 -0.0331
 1226loPI    C319275   7.959   3.890   5.983 -0.0164  0.0065  0.1109
 1226loPI   PO419276   8.461   3.816   6.439 -0.1320 -0.0883 -0.1959
 1226loPI   GL119277   8.455   3.931   6.808  0.1355  0.1226 -0.1365
 1226loPI   GL219278   8.077   4.047   6.737  0.0419  0.0749  0.0337
 1226loPI   C1A19279   8.507   3.764   7.238  0.2209 -0.4261  0.1458
 1226loPI   C2A19280   8.462   3.708   7.603  0.1987 -0.0954 -0.4160
 1226loPI   C3A19281   8.087   3.764   7.979 -0.1543  0.1798 -0.0066
 1226loPI   C4A19282   7.747   3.844   8.355 -0.1058 -0.1103  0.0678
 1226loPI   C5A19283   7.688   4.171   8.663 -0.2854  0.0102 -0.2282
 1226loPI   C6A19284   7.777   4.563   8.727  0.1183  0.0554 -0.0886
 1226loPI   C1B19285   8.177   4.127   7.136 -0.0764  0.2408  0.2132
 1226loPI   C2B19286   8.120   4.082   7.634  0.0548  0.3816  0.3619
 1226loPI   C3B19287   8.128   4.322   7.938  0.0842  0.2007 -0.0250
 1226loPI   C4B19288   7.956   4.399   8.307  0.0133  0.0310  0.4819
 1227loPI    C119289  14.139  15.576   5.325 -0.1539 -0.0805 -0.1245
 1227loPI    C219290  14.146  15.868   5.052  0.0839 -0.0738 -0.1136
 1227loPI    C319291  14.326  15.519   4.976 -0.0702 -0.1645 -0.0667
 1227loPI   PO419292  14.191  15.721   5.549 -0.2844 -0.0338 -0.0608
 1227loPI   GL119293  14.288  15.671   5.922 -0.2014 -0.4272  0.0006
 1227loPI   GL219294  14.343  16.037   6.104 -0.0587  0.3337  0.0249
 1227loPI   C1A19295  14.585  15.682   6.383 -0.0963  0.1608  0.1222
 1227loPI   C2A19296  14.544  15.699   6.777 -0.3252 -0.0367  0.0815
 1227loPI   C3A19297  14.583  15.691   7.191  0.1416 -0.1797  0.3438
 1227loPI   C4A19298  14.471  15.679   7.588  0.0980 -0.4625 -0.0027
 1227loPI   C5A19299  14.485  15.561   8.075  0.4252 -0.0239  0.0364
 1227loPI   C6A19300  14.671  15.257   8.417 -0.0365  0.1944  0.0847
 1227loPI   C1B19301  14.130  15.976   6.516  0.0363  0.0975  0.2685
 1227loPI   C2B19302  14.092  15.944   6.949  0.2590 -0.0395  0.1785
 1227loPI   C3B19303  14.044  15.903   7.421  0.5047 -0.0720 -0.0763
 1227loPI   C4B19304  14.022  15.742   7.833 -0.1056 -0.1812 -0.2584
 1228loPI    C119305  14.643  12.689   5.243 -0.0877  0.1282 -0.1791
 1228loPI    C219306  14.538  13.066   5.327 -0.1424  0.0798 -0.0262
 1228loPI    C319307  14.422  12.898   4.983  0.0060  0.2505 -0.1620
 1228loPI   PO419308  14.691  12.649   5.514  0.3295  0.1416  0.1827
 1228loPI   GL119309  14.893  12.487   5.878 -0.0862 -0.0232 -0.1845
 1228loPI   GL219310  14.594  12.633   6.039 -0.1325 -0.0095 -0.1555
 1228loPI   C1A19311  15.118  12.396   6.168 -0.4524  0.0733 -0.2921
 1228loPI   C2A19312  15.074  12.417   6.569  0.1659  0.0866 -0.2164
 1228loPI   C3A19313  15.017  12.287   7.064 -0.1320 -0.0575 -0.0729
 1228loPI   C4A19314  15.091  12.349   7.407  0.0787 -0.4003 -0.4196
 1228loPI   C5A19315  15.127  12.331   7.846 -0.1951  0.0099 -0.0033
 1228loPI   C6A19316  15.212  12.060   8.164  0.1223  0.0507 -0.1716
 1228loPI   C1B19317  14.614  12.606   6.445 -0.1682  0.1155  0.2307
 1228loPI   C2B19318  14.612  12.577   6.825 -0.1233 -0.0137 -0.0117
 1228loPI   C3B19319  14.618  12.568   7.378  0.2558 -0.1363  0.1894
 1228loPI   C4B19320  14.585  12.466   7.806 -0.4185 -0.0055 -0.2103
 1229loPI    C119321  12.657   1.497   5.214  0.1293 -0.1021 -0.0327
 1229loPI    C219322  12.420   1.624   4.918  0.0971 -0.0161  0.0297
 1229loPI    C319323  12.817   1.616   4.867  0.1033  0.1624  0.0444
 1229loPI   PO419324  12.467   1.566   5.481 -0.0092 -0.0211  0.0602
 1229loPI   GL119325  12.455   1.702   5.897  0.1855 -0.3423  0.1897
 1229loPI   GL219326  12.567   1.854   6.087 -0.0563 -0.0618  0.0746
 1229loPI   C1A19327  12.646   1.425   6.267 -0.2441 -0.0707 -0.0813
 1229loPI   C2A19328  12.619   1.456   6.751 -0.2321 -0.3865 -0.1438
 1229loPI   C3A19329  12.674   1.423   7.154  0.1449 -0.3212 -0.1923
 1229loPI   C4A19330  12.706   1.285   7.530 -0.1176  0.0515 -0.3734
 1229loPI   C5A19331  12.641   1.205   7.949  0.1294  0.1101  0.0559
 1229loPI   C6A19332  12.624   1.511   8.316 -0.2464  0.0329 -0.2155
 1229loPI   C1B19333  12.508   1.917   6.453  0.1139 -0.1221  0.2939
 1229loPI   C2B19334  12.611   1.982   6.774 -0.2111  0.3329 -0.0124
 1229loPI   C3B19335  12.604   1.948   7.236 -0.0586 -0.0593 -0.1032
 1229loPI   C4B19336  12.654   1.783   7.652  0.1165  0.1629  0.1217
 1230loPI    C119337  10.280  11.230   5.438  0.0821 -0.1948 -0.3187
 1230loPI    C219338  10.031  11.258   5.126 -0.1128  0.1651 -0.1364
 1230loPI    C319339  10.422  11.322   5.075 -0.1398  0.1955 -0.3121
 1230loPI   PO419340  10.240  10.970   5.549 -0.0538 -0.0636 -0.2189
 1230loPI   GL119341   9.987  10.979   5.852  0.1981 -0.0728  0.1634
 1230loPI   GL219342  10.090  10.607   5.951 -0.1304 -0.0630  0.0620
 1230loPI   C1A19343  10.099  11.046   6.248  0.1865 -0.0368 -0.2316
 1230loPI   C2A19344  10.163  10.945   6.734  0.1440  0.0067  0.2066
 1230loPI   C3A19345  10.199  10.857   7.140 -0.0463 -0.4314  0.2979
 1230loPI   C4A19346  10.136  10.793   7.570  0.1274 -0.2166  0.1257
 1230loPI   C5A19347  10.068  10.797   7.947 -0.1260  0.3902 -0.3038
 1230loPI   C6A19348   9.969  10.854   8.421 -0.0727  0.1582 -0.0498
 1230loPI   C1B19349  10.090  10.545   6.398 -0.0393 -0.2535 -0.0239
 1230loPI   C2B19350  10.223  10.480   6.844  0.0455 -0.3066 -0.0198
 1230loPI   C3B19351  10.140  10.287   7.277 -0.0808 -0.0893  0.1455
 1230loPI   C4B19352  10.205  10.312   7.749  0.0185  0.1833 -0.0837
 1231loPI    C119353   2.658  16.345   5.392 -0.1631 -0.0906  0.1339
 1231loPI    C219354   2.322  16.474   5.217  0.0185  0.0240 -0.1375
 1231loPI    C319355   2.435  16.092   5.176 -0.1845 -0.0683  0.1296
 1231loPI   PO419356   2.600  16.409   5.700  0.1017  0.2044 -0.0863
 1231loPI   GL119357   2.717  16.250   6.045  0.0917 -0.2010 -0.1620
 1231loPI   GL219358   2.750  15.905   6.109  0.2858 -0.2370 -0.2361
 1231loPI   C1A19359   2.822  16.361   6.434 -0.1260  0.2047  0.0959
 1231loPI   C2A19360   2.766  16.279   6.893 -0.1547 -0.0194 -0.2612
 1231loPI   C3A19361   2.654  16.223   7.289 -0.1728 -0.1790 -0.1277
 1231loPI   C4A19362   2.397  16.104   7.584  0.0542 -0.1461 -0.0919
 1231loPI   C5A19363   2.247  16.172   8.025  0.2095 -0.0230  0.1408
 1231loPI   C6A19364   2.315  16.244   8.449  0.1178 -0.0927  0.3228
 1231loPI   C1B19365   2.692  15.902   6.514 -0.1273 -0.2969 -0.1924
 1231loPI   C2B19366   2.838  15.820   7.057 -0.1165 -0.1902 -0.3266
 1231loPI   C3B19367   2.787  15.800   7.494 -0.0430  0.0588  0.0149
 1231loPI   C4B19368   2.494  15.675   7.814 -0.1415 -0.0864 -0.1032
 1232loPI    C119369   8.620  12.082   5.405 -0.0689  0.0049 -0.0408
 1232loPI    C219370   8.533  11.698   5.334  0.0360 -0.0310  0.0229
 1232loPI    C319371   8.493  11.969   5.043 -0.1811 -0.0648  0.0195
 1232loPI   PO419372   8.524  12.124   5.632 -0.0244  0.4576 -0.0406
 1232loPI   GL119373   8.483  12.096   6.029  0.0354  0.0320  0.3148
 1232loPI   GL219374   8.842  12.135   6.021 -0.3370 -0.4025 -0.0819
 1232loPI   C1A19375   8.298  12.301   6.367 -0.2472 -0.2142 -0.0397
 1232loPI   C2A19376   8.300  12.359   6.781  0.1132 -0.0000 -0.0939
 1232loPI   C3A19377   8.389  12.434   7.157  0.2415  0.1956 -0.2735
 1232loPI   C4A19378   8.400  12.363   7.562 -0.0357 -0.0054 -0.0276
 1232loPI   C5A19379   8.347  12.374   7.997  0.3236 -0.0658  0.0356
 1232loPI   C6A19380   8.129  12.121   8.284 -0.0851  0.3682 -0.0920
 1232loPI   C1B19381   8.790  12.130   6.398 -0.2112 -0.2031  0.2144
 1232loPI   C2B19382   8.852  12.178   6.885 -0.0028 -0.0279  0.1380
 1232loPI   C3B19383   8.798  12.127   7.280  0.1759  0.4063  0.2503
 1232loPI   C4B19384   8.823  12.139   7.741 -0.1180  0.1041  0.1118
 1233loPI    C119385   5.874  16.137   5.718  0.0205 -0.0523 -0.1774
 1233loPI    C219386   5.542  16.301   5.872 -0.0431 -0.1874 -0.1696
 1233loPI    C319387   5.735  16.483   5.572 -0.1321 -0.1154 -0.1835
 1233loPI   PO419388   5.749  15.926   5.613 -0.0753  0.1728  0.1025
 1233loPI   GL119389   5.488  15.783   5.891  0.0406  0.3597 -0.2581
 1233loPI   GL219390   5.165  15.637   5.972 -0.1407 -0.0772  0.0597
 1233loPI   C1A19391   5.563  15.519   6.345 -0.2297 -0.0378  0.1202
 1233loPI   C2A19392   5.593  15.374   6.735  0.1310 -0.2132 -0.0071
 1233loPI   C3A19393   5.554  15.409   7.125  0.2025  0.0505 -0.4002
 1233loPI   C4A19394   5.689  15.394   7.538  0.1626 -0.2415 -0.0682
 1233loPI   C5A19395   5.646  15.360   7.999  0.0171  0.1843 -0.1564
 1233loPI   C6A19396   5.498  15.176   8.345 -0.1961  0.1092  0.5437
 1233loPI   C1B19397   5.090  15.701   6.428 -0.0808  0.0110  0.0923
 1233loPI   C2B19398   5.076  15.678   6.835  0.1366 -0.3037 -0.0627
 1233loPI   C3B19399   5.111  15.630   7.286  0.0317  0.0652 -0.0111
 1233loPI   C4B19400   5.252  15.587   7.690  0.1096 -0.1750 -0.0704
 1234loPI    C119401   1.930   4.998   5.614 -0.2132 -0.0240  0.0791
 1234loPI    C219402   2.297   5.110   5.500 -0.1158 -0.2595  0.1560
 1234loPI    C319403   2.052   4.931   5.239 -0.1616 -0.1396  0.1162
 1234loPI   PO419404   1.985   4.976   5.879 -0.0781 -0.0324 -0.1484
 1234loPI   GL119405   2.201   5.278   6.142  0.0970 -0.0032 -0.1072
 1234loPI   GL219406   2.447   5.504   6.204 -0.1018 -0.0334  0.1335
 1234loPI   C1A19407   1.928   5.210   6.557  0.3700 -0.1499  0.1016
 1234loPI   C2A19408   1.742   5.226   6.909 -0.0966  0.2417  0.1824
 1234loPI   C3A19409   1.829   5.304   7.346 -0.3209  0.1202  0.2104
 1234loPI   C4A19410   1.872   5.245   7.742  0.0106  0.0298 -0.0278
 1234loPI   C5A19411   1.433   5.344   8.000 -0.0898  0.0875  0.4603
 1234loPI   C6A19412   1.097   5.229   8.334  0.0553  0.0720  0.0393
 1234loPI   C1B19413   2.291   5.547   6.648 -0.2530  0.0690 -0.2230
 1234loPI   C2B19414   2.198   5.480   7.077 -0.2317  0.2483  0.2962
 1234loPI   C3B19415   2.322   5.573   7.565  0.2286  0.1284 -0.1852
 1234loPI   C4B19416   2.195   5.530   8.031  0.0641  0.3982 -0.1863
 1235loPI    C119417   4.308   9.332   5.525  0.0323  0.3256 -0.1105
 1235loPI    C219418   4.016   9.363   5.253  0.2209 -0.0978 -0.3731
 1235loPI    C319419   4.381   9.242   5.142  0.3102 -0.2504  0.0655
 1235loPI   PO419420   4.153   9.400   5.767 -0.0980 -0.0576  0.0965
 1235loPI   GL119421   3.943   9.168   6.019 -0.0285  0.2756 -0.3649
 1235loPI   GL219422   3.863   9.529   6.096  0.1099  0.2049 -0.1647
 1235loPI   C1A19423   3.986   9.097   6.456  0.0043 -0.2265 -0.3529
 1235loPI   C2A19424   4.040   9.136   6.911 -0.3357  0.0045  0.0985
 1235loPI   C3A19425   4.032   9.101   7.373 -0.0618  0.1061 -0.1815
 1235loPI   C4A19426   3.982   9.248   7.846 -0.0166  0.2734 -0.0593
 1235loPI   C5A19427   3.700   9.264   8.224  0.0702  0.1271  0.1432
 1235loPI   C6A19428   3.476   9.190   8.594  0.1762 -0.1927  0.3464
 1235loPI   C1B19429   3.941   9.558   6.603  0.2470  0.1016 -0.3554
 1235loPI   C2B19430   3.900   9.593   7.117 -0.1648  0.2111 -0.0966
 1235loPI   C3B19431   3.882   9.642   7.567 -0.2034  0.2666 -0.3012
 1235loPI   C4B19432   3.828   9.676   7.988  0.0445  0.0742  0.1425
 1236loPI    C119433  14.221   7.421   5.004 -0.2445  0.2045 -0.0614
 1236loPI    C219434  14.389   7.776   4.929 -0.0821  0.1060 -0.1694
 1236loPI    C319435  14.190   7.583   4.640 -0.0678  0.0540 -0.1448
 1236loPI   PO419436  14.073   7.517   5.257 -0.1885 -0.4308 -0.0391
 1236loPI   GL119437  14.154   7.541   5.725  0.1049  0.2004  0.0651
 1236loPI   GL219438  14.400   7.293   5.784  0.1377  0.1238  0.2760
 1236loPI   C1A19439  14.256   7.724   6.095  0.0816  0.3352  0.1343
 1236loPI   C2A19440  14.133   7.763   6.435 -0.3398 -0.0977 -0.0688
 1236loPI   C3A19441  14.198   7.699   6.788 -0.3068  0.0916  0.1759
 1236loPI   C4A19442  14.292   7.717   7.313  0.3963  0.1563 -0.1798
 1236loPI   C5A19443  14.285   7.707   7.716 -0.2722 -0.1690 -0.2042
 1236loPI   C6A19444  14.268   7.759   8.079  0.1131  0.3051 -0.2984
 1236loPI   C1B19445  14.275   7.233   6.168 -0.1452 -0.1847 -0.2284
 1236loPI   C2B19446  14.229   7.206   6.542 -0.0539 -0.2539  0.1239
 1236loPI   C3B19447  14.300   7.202   6.949 -0.1875  0.2227  0.3433
 1236loPI   C4B19448  14.303   7.190   7.400  0.0445  0.1225  0.0324
 1237loPI    C119449  14.100  11.133   5.370 -0.1546 -0.1092  0.2765
 1237loPI    C219450  13.707  11.077   5.413 -0.1902 -0.0989 -0.0135
 1237loPI    C319451  13.876  11.033   5.053  0.0152  0.2515  0.0358
 1237loPI   PO419452  14.127  11.431   5.551 -0.2409 -0.5556 -0.0223
 1237loPI   GL119453  14.195  11.627   5.875  0.0498  0.0621  0.1752
 1237loPI   GL219454  14.219  11.898   5.953  0.0473 -0.3257 -0.0287
 1237loPI   C1A19455  14.286  11.411   6.234  0.2774 -0.1010  0.6108
 1237loPI   C2A19456  14.231  11.323   6.593 -0.4595 -0.0842 -0.1733
 1237loPI   C3A19457  14.196  11.197   7.082 -0.0007  0.0941  0.0667
 1237loPI   C4A19458  14.243  11.239   7.524  0.2075  0.1383  0.1747
 1237loPI   C5A19459  14.242  11.077   7.950 -0.0023 -0.0867 -0.1477
 1237loPI   C6A19460  14.376  11.067   8.379  0.0874 -0.2759 -0.0873
 1237loPI   C1B19461  14.269  11.920   6.411  0.1129  0.2911  0.4024
 1237loPI   C2B19462  14.215  11.829   6.800 -0.0498  0.0220  0.1114
 1237loPI   C3B19463  14.129  11.812   7.196  0.1232  0.1064  0.0497
 1237loPI   C4B19464  14.166  11.682   7.669  0.0202 -0.0344  0.0008
 1238loPI    C119465  16.888  11.805   5.348  0.0089  0.1922  0.1319
 1238loPI    C219466  17.084  11.607   5.062 -0.0857 -0.0972  0.2629
 1238loPI    C319467  16.879  11.938   4.971  0.0753 -0.0557  0.0405
 1238loPI   PO419468  17.044  11.854   5.590 -0.0659 -0.1909  0.1350
 1238loPI   GL119469  17.388  12.057   5.819  0.0280 -0.0435  0.2765
 1238loPI   GL219470  17.592  11.804   5.946  0.3037  0.1310 -0.0013
 1238loPI   C1A19471  17.373  12.229   6.119 -0.3119 -0.3016 -0.2743
 1238loPI   C2A19472  17.373  12.159   6.538  0.0958  0.2884 -0.3134
 1238loPI   C3A19473  17.420  12.212   6.963  0.2599  0.0976 -0.1774
 1238loPI   C4A19474  17.345  12.222   7.397  0.1404 -0.0888 -0.1011
 1238loPI   C5A19475  17.204  12.077   7.702  0.0716 -0.2242 -0.0634
 1238loPI   C6A19476  17.544  12.077   7.956  0.1186 -0.4488  0.0068
 1238loPI   C1B19477  17.808  11.934   6.346  0.2591  0.0068 -0.1683
 1238loPI   C2B19478  17.786  11.931   6.876 -0.0341 -0.0384  0.0496
 1238loPI   C3B19479  17.851  11.977   7.361  0.0002 -0.3116 -0.1408
 1238loPI   C4B19480  18.006  11.922   7.811  0.0639 -0.1412 -0.0428
 1239loPI    C119481   2.405   7.518   5.139 -0.0339 -0.0456  0.0520
 1239loPI    C219482   2.033   7.549   4.994 -0.0192 -0.1828 -0.0178
 1239loPI    C319483   2.250   7.222   4.917  0.0924 -0.1321  0.0780
 1239loPI   PO419484   2.470   7.599   5.393 -0.1918 -0.1367 -0.1959
 1239loPI   GL119485   2.685   7.726   5.720 -0.1803 -0.0168 -0.2190
 1239loPI   GL219486   2.896   7.994   5.864  0.2526  0.1958  0.2010
 1239loPI   C1A19487   2.604   7.790   6.180 -0.1125 -0.3955  0.0493
 1239loPI   C2A19488   2.661   7.794   6.621  0.2594 -0.0409 -0.2204
 1239loPI   C3A19489   2.585   7.821   7.099  0.0975  0.1024  0.0025
 1239loPI   C4A19490   2.706   7.862   7.594  0.1453 -0.3381 -0.2034
 1239loPI   C5A19491   2.752   7.668   8.027 -0.0198 -0.0497  0.0874
 1239loPI   C6A19492   2.714   7.816   8.463 -0.0431  0.0671 -0.1454
 1239loPI   C1B19493   3.006   8.030   6.247  0.0176  0.3069  0.1922
 1239loPI   C2B19494   3.040   8.068   6.735  0.0479 -0.0236  0.0034
 1239loPI   C3B19495   3.036   8.172   7.175 -0.0555  0.3221  0.3601
 1239loPI   C4B19496   3.200   8.150   7.562 -0.0044  0.2937  0.1490
 1240loPI    C119497  16.739   7.345   4.670  0.0529  0.3018  0.0378
 1240loPI    C219498  17.138   7.341   4.699  0.0574 -0.0699 -0.0318
 1240loPI    C319499  16.962   7.506   4.380  0.1547  0.0738 -0.0121
 1240loPI   PO419500  16.678   7.488   4.935 -0.0701  0.1234  0.2549
 1240loPI   GL119501  16.647   7.453   5.337  0.0202  0.1310 -0.0153
 1240loPI   GL219502  16.421   7.406   5.493  0.0918 -0.2341 -0.1801
 1240loPI   C1A19503  16.823   7.740   5.761  0.0378  0.0363 -0.0620
 1240loPI   C2A19504  16.919   7.785   6.249  0.2293 -0.0126 -0.1325
 1240loPI   C3A19505  16.903   7.749   6.633  0.3050 -0.1156  0.0892
 1240loPI   C4A19506  16.899   7.806   7.077 -0.2449 -0.1023  0.0204
 1240loPI   C5A19507  16.957   7.862   7.504  0.0590 -0.1068 -0.1925
 1240loPI   C6A19508  17.085   7.639   7.922 -0.1271  0.0522 -0.0785
 1240loPI   C1B19509  16.470   7.502   5.959 -0.0096 -0.0899 -0.2707
 1240loPI   C2B19510  16.453   7.446   6.451 -0.2330  0.1090  0.2847
 1240loPI   C3B19511  16.440   7.514   6.933  0.1629 -0.1270 -0.0144
 1240loPI   C4B19512  16.532   7.518   7.404 -0.2367 -0.1224  0.1530
 1241loPI    C119513   0.955   6.468   5.091  0.1802 -0.0154  0.2161
 1241loPI    C219514   1.156   6.721   4.855 -0.2072  0.1688  0.0740
 1241loPI    C319515   1.118   6.336   4.751  0.0458  0.1379  0.0906
 1241loPI   PO419516   0.946   6.613   5.283  0.0133  0.0245  0.2082
 1241loPI   GL119517   1.081   6.907   5.623 -0.1089  0.2758  0.0560
 1241loPI   GL219518   0.915   7.042   5.487  0.0061  0.1118 -0.0755
 1241loPI   C1A19519   1.205   6.988   6.074 -0.0072  0.0535  0.0902
 1241loPI   C2A19520   1.253   6.969   6.448 -0.0857  0.1102  0.0706
 1241loPI   C3A19521   1.269   7.005   6.924 -0.0962  0.1090 -0.0086
 1241loPI   C4A19522   1.306   7.053   7.421  0.3435  0.1250 -0.2150
 1241loPI   C5A19523   1.023   7.319   7.692 -0.1193  0.0370 -0.0178
 1241loPI   C6A19524   0.828   7.550   7.966  0.0398 -0.1263  0.2493
 1241loPI   C1B19525   0.672   7.263   5.823  0.0546 -0.2849 -0.1470
 1241loPI   C2B19526   0.709   7.259   6.264  0.1604 -0.0198  0.0640
 1241loPI   C3B19527   0.765   7.276   6.716  0.0631  0.0531 -0.0087
 1241loPI   C4B19528   0.831   7.302   7.144 -0.4732  0.3395 -0.2680
 1242loPI    C119529   5.050   6.938   5.384  0.2411 -0.0924 -0.0677
 1242loPI    C219530   4.703   6.777   5.268  0.0429 -0.0310  0.4127
 1242loPI    C319531   5.042   6.680   5.079 -0.2511  0.0393 -0.1760
 1242loPI   PO419532   5.109   6.907   5.675 -0.1392  0.0403 -0.2258
 1242loPI   GL119533   5.095   7.159   6.072 -0.7400  0.1713 -0.5091
 1242loPI   GL219534   4.940   7.250   6.126  0.1607  0.0836  0.2268
 1242loPI   C1A19535   5.287   6.920   6.479 -0.0608  0.1442  0.0855
 1242loPI   C2A19536   5.375   7.111   6.824 -0.2538 -0.0004  0.0827
 1242loPI   C3A19537   5.335   7.304   7.236  0.0908 -0.0090 -0.1342
 1242loPI   C4A19538   5.511   7.357   7.666  0.1585  0.1367  0.2496
 1242loPI   C5A19539   5.515   7.453   8.099  0.2543 -0.1391 -0.0835
 1242loPI   C6A19540   5.687   7.573   8.522  0.1675 -0.1993 -0.0620
 1242loPI   C1B19541   4.934   7.560   6.468  0.1159  0.0018 -0.2015
 1242loPI   C2B19542   4.934   7.544   6.923  0.2692  0.0320 -0.1834
 1242loPI   C3B19543   4.992   7.639   7.374  0.1825  0.2537  0.1055
 1242loPI   C4B19544   5.144   7.700   7.844 -0.1578  0.1123 -0.1455
 1243loPI    C119545   5.034   0.878   5.734  0.0828  0.0186 -0.0544
 1243loPI    C219546   5.018   0.745   5.357 -0.0707  0.0828 -0.0713
 1243loPI    C319547   5.254   1.054   5.451 -0.0236  0.0592 -0.1124
 1243loPI   PO419548   5.111   0.697   5.914  0.0970 -0.1267 -0.1139
 1243loPI   GL119549   5.072   0.611   6.301  0.1379  0.1358 -0.0865
 1243loPI   GL219550   4.886   0.398   6.424  0.0046  0.0061 -0.1445
 1243loPI   C1A19551   5.131   0.897   6.615  0.2322  0.0071 -0.2544
 1243loPI   C2A19552   5.380   0.722   6.968  0.1972 -0.0858 -0.4687
 1243loPI   C3A19553   5.238   0.621   7.409  0.1309 -0.0857  0.2019
 1243loPI   C4A19554   5.219   0.587   7.831  0.3679 -0.3462  0.0178
 1243loPI   C5A19555   5.382   0.722   8.202  0.0621  0.0433 -0.1872
 1243loPI   C6A19556   5.742   0.642   8.578  0.1356 -0.1107  0.1460
 1243loPI   C1B19557   4.938   0.511   6.860  0.1867  0.3029 -0.0495
 1243loPI   C2B19558   4.905   0.316   7.288 -0.0433  0.0096 -0.1608
 1243loPI   C3B19559   4.826   0.231   7.801 -0.0762 -0.2945  0.2465
 1243loPI   C4B19560   4.799   0.508   8.176  0.0247 -0.1422  0.3190
 1244loPI    C119561   4.861   8.299   5.408  0.2011  0.0817 -0.1077
 1244loPI    C219562   4.916   7.905   5.365 -0.0382  0.0427 -0.0677
 1244loPI    C319563   5.044   8.158   5.082  0.2033 -0.0553 -0.0476
 1244loPI   PO419564   4.880   8.253   5.712 -0.1962  0.2806 -0.0068
 1244loPI   GL119565   4.778   8.502   6.083 -0.2842 -0.3980  0.1772
 1244loPI   GL219566   4.933   8.831   6.073 -0.1731  0.2822 -0.2510
 1244loPI   C1A19567   4.919   8.539   6.518  0.0200 -0.0712 -0.0627
 1244loPI   C2A19568   4.891   8.580   7.005  0.1016  0.2889 -0.2236
 1244loPI   C3A19569   4.849   8.613   7.491 -0.0150 -0.1613 -0.2245
 1244loPI   C4A19570   4.935   8.761   7.884 -0.0091  0.0022 -0.1584
 1244loPI   C5A19571   4.733   8.872   8.259  0.3009 -0.0487 -0.1241
 1244loPI   C6A19572   4.732   8.816   8.722  0.0329  0.2332  0.1632
 1244loPI   C1B19573   4.903   9.068   6.488 -0.2381  0.0546  0.0382
 1244loPI   C2B19574   4.858   9.074   6.943  0.0180 -0.1418 -0.0606
 1244loPI   C3B19575   4.879   9.146   7.355  0.1394  0.1334 -0.2487
 1244loPI   C4B19576   4.885   9.245   7.787 -0.1615 -0.1546  0.2131
 1245loPI    C119577   4.376   3.290   6.276 -0.0938  0.0712  0.1326
 1245loPI    C219578   4.377   3.464   5.916 -0.1185  0.0466  0.1205
 1245loPI    C319579   4.061   3.249   6.033 -0.1154  0.0643  0.1617
 1245loPI   PO419580   4.360   3.392   6.465  0.0310 -0.0505  0.2935
 1245loPI   GL119581   4.473   3.224   6.857  0.1037  0.2551 -0.2291
 1245loPI   GL219582   4.864   3.216   6.893 -0.1781 -0.0952  0.1543
 1245loPI   C1A19583   4.560   3.028   7.261  0.4860  0.1440  0.0668
 1245loPI   C2A19584   4.706   2.811   7.674  0.2149 -0.0365 -0.0796
 1245loPI   C3A19585   4.734   2.743   8.169 -0.0393  0.0804 -0.1095
 1245loPI   C4A19586   4.637   2.932   8.640  0.1756  0.1597  0.2835
 1245loPI   C5A19587   4.498   3.162   9.097  0.0262 -0.1429 -0.2633
 1245loPI   C6A19588   4.636   3.451   9.428 -0.0144  0.0497  0.1184
 1245loPI   C1B19589   5.050   2.962   7.177  0.0585  0.0756  0.3084
 1245loPI   C2B19590   5.172   2.855   7.623 -0.2271  0.0568  0.0222
 1245loPI   C3B19591   5.168   2.922   8.014 -0.0259 -0.3221 -0.1292
 1245loPI   C4B19592   5.044   3.105   8.366 -0.0355  0.1729  0.0024
 1246loPI    C119593   1.341  13.765   5.470 -0.0809  0.2694 -0.1191
 1246loPI    C219594   0.955  13.744   5.367 -0.0910  0.0838 -0.0472
 1246loPI    C319595   1.238  13.626   5.110 -0.0930  0.0303 -0.0250
 1246loPI   PO419596   1.390  13.629   5.770 -0.2589  0.2288  0.2772
 1246loPI   GL119597   1.353  13.647   6.205 -0.2216  0.0208 -0.0828
 1246loPI   GL219598   1.091  13.776   6.326  0.3008 -0.1065 -0.0728
 1246loPI   C1A19599   1.660  13.515   6.537  0.2018 -0.2476 -0.0219
 1246loPI   C2A19600   1.718  13.585   6.992  0.0956  0.0954  0.0974
 1246loPI   C3A19601   1.587  13.575   7.373 -0.1531 -0.5210 -0.0257
 1246loPI   C4A19602   1.665  13.524   7.849  0.1740  0.2864  0.2562
 1246loPI   C5A19603   1.602  13.176   8.056  0.0444 -0.2183 -0.1832
 1246loPI   C6A19604   1.444  12.802   8.070 -0.1664 -0.1251  0.0059
 1246loPI   C1B19605   1.199  13.765   6.740  0.0057  0.2258  0.1233
 1246loPI   C2B19606   1.182  13.825   7.169  0.1561 -0.0856  0.1814
 1246loPI   C3B19607   1.121  13.815   7.611  0.0840  0.2835 -0.0420
 1246loPI   C4B19608   1.255  13.814   8.090 -0.1065 -0.2127 -0.1558
 1247loPI    C119609  17.634  17.136   5.625  0.1155 -0.1838 -0.0884
 1247loPI    C219610  17.419  16.942   5.349  0.0667  0.0450 -0.2140
 1247loPI    C319611  17.818  16.933   5.333  0.0642  0.0062 -0.2552
 1247loPI   PO419612  17.410  17.178   5.823  0.2322 -0.0943 -0.1593
 1247loPI   GL119613  17.230  17.192   6.184  0.1183 -0.0153 -0.0438
 1247loPI   GL219614  17.267  17.511   6.219 -0.0704 -0.3273 -0.0789
 1247loPI   C1A19615  17.318  16.882   6.583  0.0086  0.3999  0.0582
 1247loPI   C2A19616  17.285  16.938   7.036  0.0979  0.2655 -0.3116
 1247loPI   C3A19617  17.305  16.949   7.508 -0.0199 -0.2335  0.4032
 1247loPI   C4A19618  17.210  16.887   7.848 -0.1912 -0.1353 -0.1139
 1247loPI   C5A19619  16.890  16.910   8.198  0.3264  0.1535 -0.0529
 1247loPI   C6A19620  16.852  17.013   8.559  0.1314  0.0759  0.1825
 1247loPI   C1B19621  17.288  17.441   6.720 -0.0276 -0.0928 -0.0807
 1247loPI   C2B19622  17.220  17.433   7.182  0.1932  0.1264 -0.0994
 1247loPI   C3B19623  17.297  17.489   7.566  0.2113  0.0089 -0.2444
 1247loPI   C4B19624  17.159  17.353   8.065  0.0382  0.2800  0.2688
 1248loPI    C119625  10.552   8.126   5.719  0.0570 -0.0480  0.3928
 1248loPI    C219626  10.289   7.885   5.899 -0.0968 -0.0523  0.1677
 1248loPI    C319627  10.193   8.266   5.827 -0.1030 -0.0953 -0.0564
 1248loPI   PO419628  10.767   8.016   5.826 -0.2265 -0.0835  0.1645
 1248loPI   GL119629  10.827   8.007   6.238 -0.0551 -0.1613 -0.2035
 1248loPI   GL219630  10.487   8.129   6.249 -0.1385 -0.4181 -0.2577
 1248loPI   C1A19631  11.058   7.888   6.566 -0.3636 -0.0986  0.1254
 1248loPI   C2A19632  11.169   7.862   6.999 -0.2205  0.1329 -0.0168
 1248loPI   C3A19633  11.125   7.871   7.438 -0.0625 -0.2125 -0.1065
 1248loPI   C4A19634  11.137   7.920   7.863  0.2599 -0.0910  0.1582
 1248loPI   C5A19635  11.126   7.497   8.155  0.1043 -0.1038 -0.1364
 1248loPI   C6A19636  10.935   7.234   8.518  0.0787 -0.0345  0.0232
 1248loPI   C1B19637  10.591   8.191   6.689 -0.0155 -0.2180  0.2563
 1248loPI   C2B19638  10.707   7.999   7.043 -0.1066 -0.1131 -0.2288
 1248loPI   C3B19639  10.528   8.148   7.405  0.0487 -0.1534  0.0437
 1248loPI   C4B19640  10.679   8.116   7.758  0.1006 -0.1492 -0.0913
 1249loPI    C119641   1.467   3.517   5.414 -0.1243  0.2030  0.1833
 1249loPI    C219642   1.652   3.760   5.156  0.0944 -0.1223  0.0267
 1249loPI    C319643   1.319   3.568   5.046 -0.0848  0.1090  0.1542
 1249loPI   PO419644   1.379   3.668   5.578 -0.2140 -0.0043  0.0377
 1249loPI   GL119645   1.318   3.780   6.031 -0.2960  0.1418  0.0383
 1249loPI   GL219646   1.443   3.933   6.255  0.0924  0.0224  0.0966
 1249loPI   C1A19647   0.954   3.861   6.396 -0.1530 -0.0648  0.1475
 1249loPI   C2A19648   0.971   3.663   6.782  0.0389 -0.4330  0.1715
 1249loPI   C3A19649   0.932   3.566   7.309  0.2134 -0.0691 -0.0640
 1249loPI   C4A19650   1.060   3.568   7.713 -0.0253 -0.0081 -0.1772
 1249loPI   C5A19651   1.296   3.594   8.136  0.0570  0.0408  0.1457
 1249loPI   C6A19652   1.518   3.824   8.448 -0.1704  0.1429  0.1595
 1249loPI   C1B19653   1.360   3.993   6.664 -0.0084  0.0193 -0.3422
 1249loPI   C2B19654   1.250   3.890   7.091  0.1119  0.2877 -0.0888
 1249loPI   C3B19655   1.343   3.964   7.495 -0.0122  0.0161  0.2937
 1249loPI   C4B19656   1.570   4.049   7.923 -0.3584 -0.1451  0.0486
 1250loPI    C119657   9.814  10.236   5.396  0.0645  0.1458  0.0010
 1250loPI    C219658   9.580   9.912   5.390 -0.0065  0.1943  0.1021
 1250loPI    C319659   9.686  10.088   5.047 -0.1960  0.2273  0.0590
 1250loPI   PO419660   9.878  10.221   5.657  0.0217 -0.1045  0.2190
 1250loPI   GL119661   9.747  10.170   6.098  0.1934  0.1596 -0.0078
 1250loPI   GL219662   9.612   9.867   5.976  0.0161  0.0033  0.2442
 1250loPI   C1A19663   9.634  10.221   6.512 -0.3668  0.2041  0.1188
 1250loPI   C2A19664   9.626  10.121   6.986  0.1541  0.3469 -0.0988
 1250loPI   C3A19665   9.726  10.069   7.395 -0.2188 -0.2214  0.3834
 1250loPI   C4A19666   9.762   9.968   7.871 -0.4684  0.1268  0.3621
 1250loPI   C5A19667   9.980   9.580   8.043  0.4556 -0.3034 -0.2587
 1250loPI   C6A19668  10.289   9.290   8.211 -0.3144 -0.0872 -0.1640
 1250loPI   C1B19669   9.837   9.642   6.262 -0.0919 -0.0531 -0.0164
 1250loPI   C2B19670   9.711   9.684   6.670  0.4010 -0.0635  0.0396
 1250loPI   C3B19671   9.673   9.633   7.102  0.0892 -0.2832 -0.1120
 1250loPI   C4B19672   9.800   9.561   7.551  0.1063  0.1241 -0.0164
 1251loPI    C119673   0.821  10.399   5.094  0.0581 -0.1207  0.0059
 1251loPI    C219674   1.112  10.125   5.078  0.1888  0.0233 -0.1130
 1251loPI    C319675   1.010  10.328   4.749 -0.1804 -0.1627 -0.1184
 1251loPI   PO419676   0.815  10.533   5.317 -0.2371 -0.1759 -0.0059
 1251loPI   GL119677   0.628  10.457   5.757  0.1354  0.0331 -0.3390
 1251loPI   GL219678   0.799  10.452   5.987  0.2066  0.0969  0.1848
 1251loPI   C1A19679   0.388  10.286   6.182  0.1826 -0.1673 -0.0529
 1251loPI   C2A19680   0.386  10.206   6.608  0.1296  0.0233  0.1783
 1251loPI   C3A19681   0.315  10.069   7.080  0.1070  0.0702  0.2755
 1251loPI   C4A19682   0.418  10.011   7.492  0.0144  0.0262  0.1339
 1251loPI   C5A19683   0.621  10.132   7.951 -0.0926 -0.3473  0.1192
 1251loPI   C6A19684   0.925  10.433   8.153  0.2019  0.0163  0.1530
 1251loPI   C1B19685   0.842  10.430   6.406  0.1126  0.2654 -0.0159
 1251loPI   C2B19686   0.814  10.431   6.812  0.1668  0.0397  0.0032
 1251loPI   C3B19687   0.766  10.229   7.147 -0.2277  0.1252 -0.0916
 1251loPI   C4B19688   0.820  10.347   7.558  0.1797  0.1188 -0.0184
 1252loPI    C119689   7.224   1.983   6.273 -0.0206 -0.0235 -0.0086
 1252loPI    C219690   6.857   1.833   6.327 -0.0294  0.1155  0.3424
 1252loPI    C319691   6.902   2.200   6.176 -0.0329  0.0767  0.2470
 1252loPI   PO419692   7.354   1.649   6.337  0.1541  0.0946 -0.1696
 1252loPI   GL119693   7.502   1.572   6.623 -0.2020 -0.0768  0.0348
 1252loPI   GL219694   7.550   1.262   6.633 -0.2420 -0.1237  0.0807
 1252loPI   C1A19695   7.490   1.678   7.084  0.1229 -0.0013 -0.0406
 1252loPI   C2A19696   7.558   1.474   7.535  0.0432  0.0692 -0.0590
 1252loPI   C3A19697   7.993   1.462   7.706 -0.1236 -0.3165  0.0070
 1252loPI   C4A19698   8.340   1.539   7.967 -0.0982  0.0497  0.0753
 1252loPI   C5A19699   8.838   1.448   7.963  0.0765 -0.0914 -0.0620
 1252loPI   C6A19700   9.019   1.319   8.382  0.0952  0.1609  0.4478
 1252loPI   C1B19701   7.398   1.141   7.041 -0.4894 -0.2265  0.1773
 1252loPI   C2B19702   7.497   1.015   7.447 -0.0207 -0.1871  0.0870
 1252loPI   C3B19703   7.857   0.939   7.647 -0.1312  0.0094 -0.0490
 1252loPI   C4B19704   8.218   0.718   7.685 -0.0701 -0.1691  0.1569
 1253loPI    C119705   1.827   1.911   5.271 -0.1710  0.1476  0.1084
 1253loPI    C219706   1.555   2.203   5.300 -0.1164  0.2313 -0.1937
 1253loPI    C319707   1.739   2.134   4.951  0.0986  0.0386 -0.0452
 1253loPI   PO419708   1.904   1.979   5.580 -0.0647 -0.0091  0.1393
 1253loPI   GL119709   1.607   1.799   5.934 -0.4029  0.0462  0.0643
 1253loPI   GL219710   1.295   1.635   6.032  0.2714 -0.3223  0.1631
 1253loPI   C1A19711   1.622   1.891   6.291  0.2058  0.0830 -0.0285
 1253loPI   C2A19712   1.536   1.881   6.788  0.2929  0.0702  0.0913
 1253loPI   C3A19713   1.527   1.851   7.200  0.1703  0.1034 -0.1979
 1253loPI   C4A19714   1.544   1.826   7.607 -0.0735  0.3652  0.0677
 1253loPI   C5A19715   1.413   1.788   8.011  0.0558 -0.3631 -0.0634
 1253loPI   C6A19716   1.385   1.809   8.499  0.0378 -0.0959 -0.0473
 1253loPI   C1B19717   1.163   1.660   6.488  0.0314  0.2134 -0.1481
 1253loPI   C2B19718   1.147   1.587   6.885 -0.0701  0.0513  0.1123
 1253loPI   C3B19719   1.195   1.536   7.400 -0.3196  0.2436  0.0140
 1253loPI   C4B19720   1.005   1.630   7.824 -0.2920 -0.0359 -0.1131
 1254loPI    C119721   3.944   5.585   5.476 -0.0100 -0.2973  0.0621
 1254loPI    C219722   3.726   5.273   5.351 -0.1268 -0.1637 -0.0702
 1254loPI    C319723   3.709   5.622   5.155  0.0509 -0.0915  0.0399
 1254loPI   PO419724   3.939   5.554   5.711 -0.2773  0.0686 -0.0099
 1254loPI   GL119725   3.959   5.841   5.968 -0.2872 -0.1604  0.3245
 1254loPI   GL219726   3.637   5.732   6.079 -0.3834 -0.2504 -0.0516
 1254loPI   C1A19727   4.205   6.082   6.268 -0.3561 -0.1122  0.0965
 1254loPI   C2A19728   4.106   6.119   6.767  0.1152  0.0712  0.1672
 1254loPI   C3A19729   4.153   6.102   7.205  0.1922 -0.3004  0.0611
 1254loPI   C4A19730   4.033   5.994   7.651 -0.0234 -0.1687  0.0697
 1254loPI   C5A19731   3.940   5.681   7.972  0.1648  0.0367  0.0380
 1254loPI   C6A19732   3.573   5.395   7.969  0.1689 -0.4722 -0.0600
 1254loPI   C1B19733   3.703   5.797   6.464 -0.3696  0.1591  0.1673
 1254loPI   C2B19734   3.626   5.822   6.928 -0.2337  0.0520 -0.0624
 1254loPI   C3B19735   3.618   5.817   7.441 -0.0698  0.0327 -0.0447
 1254loPI   C4B19736   3.399   5.807   7.852  0.0975 -0.0671 -0.1932
 1255loPI    C119737   8.955  16.799   5.599 -0.2393  0.0341 -0.0903
 1255loPI    C219738   8.851  16.766   5.215 -0.1724 -0.1672 -0.0923
 1255loPI    C319739   8.994  16.448   5.411 -0.1737 -0.0567  0.0899
 1255loPI   PO419740   9.126  16.938   5.633  0.0907 -0.2313 -0.0815
 1255loPI   GL119741   9.288  16.950   6.062  0.0977 -0.0754 -0.0110
 1255loPI   GL219742   9.072  16.732   6.070  0.3711  0.2310  0.0459
 1255loPI   C1A19743   9.579  17.037   6.419 -0.1847 -0.0938  0.3069
 1255loPI   C2A19744   9.643  16.971   6.870 -0.4792  0.2618  0.1611
 1255loPI   C3A19745   9.570  16.808   7.274 -0.3261 -0.1442  0.0389
 1255loPI   C4A19746   9.634  16.778   7.664  0.2101 -0.2002  0.3635
 1255loPI   C5A19747   9.612  16.766   8.083 -0.0760  0.1961 -0.1462
 1255loPI   C6A19748   9.097  16.551   8.338  0.1204 -0.0341 -0.0805
 1255loPI   C1B19749   9.062  16.641   6.502 -0.2872 -0.2042  0.0770
 1255loPI   C2B19750   9.221  16.669   6.982  0.0195  0.0934  0.0769
 1255loPI   C3B19751   9.171  16.518   7.361 -0.1870 -0.3454 -0.0101
 1255loPI   C4B19752   9.223  16.603   7.838 -0.0586 -0.3987 -0.2014
 1256loPI    C119753   1.975  14.457   5.451 -0.0022 -0.1018  0.0439
 1256loPI    C219754   2.104  14.825   5.362  0.1404 -0.1479  0.0568
 1256loPI    C319755   1.810  14.659   5.148  0.1261 -0.0554  0.0042
 1256loPI   PO419756   1.937  14.524   5.744  0.0710 -0.0287 -0.1754
 1256loPI   GL119757   1.934  14.440   6.172  0.1532  0.0597  0.2165
 1256loPI   GL219758   1.584  14.543   6.330 -0.1219 -0.0361 -0.0745
 1256loPI   C1A19759   2.067  14.297   6.573 -0.0104 -0.2055  0.0841
 1256loPI   C2A19760   2.064  14.297   6.960  0.3355  0.1918 -0.0781
 1256loPI   C3A19761   2.020  14.288   7.434 -0.2900 -0.0288  0.2634
 1256loPI   C4A19762   2.067  14.298   7.807 -0.0538  0.0420 -0.2088
 1256loPI   C5A19763   1.861  13.947   8.080  0.3164  0.0815  0.2439
 1256loPI   C6A19764   1.797  13.627   8.425  0.1563  0.0364 -0.0541
 1256loPI   C1B19765   1.621  14.478   6.779 -0.0019 -0.0686 -0.2335
 1256loPI   C2B19766   1.603  14.573   7.242  0.2255 -0.1501 -0.0447
 1256loPI   C3B19767   1.597  14.633   7.749  0.0249 -0.0561  0.0168
 1256loPI   C4B19768   1.726  14.465   8.115  0.1275 -0.1805 -0.1336
 1257loPI    C119769   0.215   8.612   4.915  0.5424 -0.2586  0.0979
 1257loPI    C219770   0.069   8.472   4.570 -0.1787  0.1724  0.2074
 1257loPI    C319771   0.361   8.745   4.567  0.0017 -0.0190 -0.0493
 1257loPI   PO419772   0.058   8.615   5.073  0.1367  0.0136  0.4024
 1257loPI   GL119773   0.090   8.691   5.423  0.2863  0.0387 -0.2453
 1257loPI   GL219774  -0.243   8.713   5.461 -0.3943  0.1610 -0.2140
 1257loPI   C1A19775   0.322   8.625   5.831 -0.2442  0.0425 -0.4101
 1257loPI   C2A19776   0.347   8.606   6.242  0.0401 -0.3206  0.1495
 1257loPI   C3A19777   0.269   8.562   6.781  0.3312 -0.0313 -0.1367
 1257loPI   C4A19778   0.341   8.521   7.154  0.1002  0.0863 -0.2016
 1257loPI   C5A19779   0.428   8.589   7.636  0.0476  0.2278  0.0154
 1257loPI   C6A19780   0.182   8.745   7.951  0.4859  0.0555  0.2679
 1257loPI   C1B19781  -0.137   8.824   5.838  0.0673  0.0215  0.1086
 1257loPI   C2B19782  -0.124   8.853   6.227 -0.1750  0.3049  0.1972
 1257loPI   C3B19783  -0.120   8.845   6.546 -0.0926  0.2844 -0.4356
 1257loPI   C4B19784  -0.120   8.853   6.956  0.0863  0.2925  0.0085
 1258loPI    C119785   8.304   7.028   5.970 -0.0069  0.0106 -0.1544
 1258loPI    C219786   8.017   7.032   5.692 -0.0371  0.1354 -0.1220
 1258loPI    C319787   8.377   6.880   5.606 -0.0828  0.0667 -0.1927
 1258loPI   PO419788   8.278   7.249   6.164 -0.3005  0.0334 -0.0547
 1258loPI   GL119789   8.409   7.133   6.605  0.1561  0.0340  0.0291
 1258loPI   GL219790   8.418   7.362   6.684  0.2319  0.1689 -0.0221
 1258loPI   C1A19791   8.176   6.928   6.956  0.2995 -0.1389  0.0223
 1258loPI   C2A19792   8.055   6.740   7.282  0.0020  0.0238 -0.0240
 1258loPI   C3A19793   8.036   7.014   7.510 -0.0381  0.0563  0.0963
 1258loPI   C4A19794   7.889   7.265   7.920 -0.0291  0.0675 -0.1170
 1258loPI   C5A19795   7.457   7.427   8.094  0.3662  0.1261 -0.0910
 1258loPI   C6A19796   7.113   7.748   8.333  0.2740 -0.0425  0.2438
 1258loPI   C1B19797   8.302   7.446   7.153  0.2223 -0.2426  0.1005
 1258loPI   C2B19798   8.269   7.414   7.570 -0.1769  0.1524 -0.3257
 1258loPI   C3B19799   8.321   7.576   7.916  0.0623 -0.1077 -0.1007
 1258loPI   C4B19800   8.596   7.896   8.104 -0.4649 -0.4397 -0.2469
 1259loPI    C119801   0.529   5.100   5.395  0.1780 -0.1465  0.0036
 1259loPI    C219802   0.365   5.388   5.171  0.1719 -0.2471 -0.1230
 1259loPI    C319803   0.711   5.221   5.060  0.1473 -0.3272 -0.0797
 1259loPI   PO419804   0.291   5.147   5.614 -0.3387  0.0996  0.0782
 1259loPI   GL119805   0.194   5.243   5.924  0.1954  0.0307 -0.3160
 1259loPI   GL219806   0.090   5.067   6.126 -0.0899  0.1272 -0.1587
 1259loPI   C1A19807   0.511   5.380   6.323 -0.4274 -0.0869  0.1754
 1259loPI   C2A19808   0.447   5.528   6.745 -0.1002 -0.0107  0.1046
 1259loPI   C3A19809   0.481   5.504   7.215  0.0445  0.1757  0.1025
 1259loPI   C4A19810   0.396   5.580   7.681  0.0482  0.0189  0.1118
 1259loPI   C5A19811   0.391   5.678   8.115 -0.0919  0.2113  0.0257
 1259loPI   C6A19812   0.362   6.004   8.428 -0.3087 -0.2019  0.4858
 1259loPI   C1B19813  -0.043   5.188   6.523 -0.3464  0.3201 -0.2330
 1259loPI   C2B19814  -0.058   5.204   6.987 -0.1231 -0.2355 -0.2787
 1259loPI   C3B19815   0.006   5.225   7.319 -0.1417 -0.0431  0.1023
 1259loPI   C4B19816  -0.012   5.279   7.630 -0.0136 -0.3533 -0.0803
 1260loPI    C119817  12.445  10.900   5.085  0.0962 -0.1454  0.2908
 1260loPI    C219818  12.477  10.501   5.105  0.1295 -0.1562  0.0418
 1260loPI    C319819  12.410  10.680   4.753  0.4489  0.0820  0.0976
 1260loPI   PO419820  12.196  10.916   5.334 -0.0078  0.1114 -0.2081
 1260loPI   GL119821  12.152  10.850   5.787  0.1173  0.1239  0.2664
 1260loPI   GL219822  11.975  11.024   5.986  0.2735 -0.1430 -0.0248
 1260loPI   C1A19823  12.310  10.731   6.225  0.0571  0.3076 -0.1948
 1260loPI   C2A19824  12.283  10.738   6.676 -0.0486  0.1919 -0.0676
 1260loPI   C3A19825  12.428  10.771   7.120  0.1215 -0.0306  0.3415
 1260loPI   C4A19826  12.402  10.766   7.459  0.1384 -0.0733 -0.0094
 1260loPI   C5A19827  12.413  10.796   7.923 -0.0009  0.1513 -0.0352
 1260loPI   C6A19828  12.125  10.707   8.130 -0.2156  0.1182  0.1184
 1260loPI   C1B19829  11.939  11.049   6.406  0.2079  0.0932  0.2945
 1260loPI   C2B19830  11.928  10.936   6.902 -0.1040 -0.0572 -0.1905
 1260loPI   C3B19831  11.953  10.998   7.365  0.0604  0.0106 -0.2145
 1260loPI   C4B19832  11.975  11.069   7.787  0.2956 -0.0733 -0.1085
 1261loPI    C119833  10.309  16.901   5.405  0.0065 -0.0974 -0.0462
 1261loPI    C219834   9.922  16.822   5.340  0.0148 -0.0231 -0.1918
 1261loPI    C319835  10.165  16.899   5.032  0.1340 -0.0139 -0.0966
 1261loPI   PO419836  10.302  16.811   5.698  0.1178 -0.1408  0.0124
 1261loPI   GL119837  10.368  16.469   5.924 -0.0704  0.0025  0.1250
 1261loPI   GL219838  10.230  16.220   5.989  0.0130  0.1378 -0.1158
 1261loPI   C1A19839  10.401  16.479   6.408 -0.2588  0.0601 -0.0513
 1261loPI   C2A19840  10.466  16.531   6.828 -0.3574  0.3550  0.0409
 1261loPI   C3A19841  10.548  16.388   7.242 -0.1736  0.1486 -0.1067
 1261loPI   C4A19842  10.579  16.396   7.703  0.3535  0.0541  0.2668
 1261loPI   C5A19843  10.590  16.297   8.142  0.3436  0.2061  0.1232
 1261loPI   C6A19844  10.668  15.954   8.386 -0.1718  0.1599  0.2487
 1261loPI   C1B19845  10.012  16.189   6.308 -0.1233  0.4053  0.3504
 1261loPI   C2B19846  10.060  16.202   6.777  0.2647  0.0381  0.1407
 1261loPI   C3B19847  10.063  16.180   7.170 -0.1292  0.0145  0.0044
 1261loPI   C4B19848  10.075  16.063   7.635 -0.1825  0.1048  0.0365
 1262loPI    C119849   0.126  14.879   5.398 -0.0880 -0.0578 -0.1649
 1262loPI    C219850   0.441  14.771   5.178  0.1127  0.3006 -0.0619
 1262loPI    C319851   0.104  14.891   4.999  0.0489 -0.0302 -0.1718
 1262loPI   PO419852   0.022  14.680   5.484  0.0741 -0.3679 -0.2241
 1262loPI   GL119853  -0.220  14.637   5.818 -0.0781 -0.1315 -0.3857
 1262loPI   GL219854  -0.134  14.435   6.109  0.1820  0.2330  0.1296
 1262loPI   C1A19855  -0.200  15.016   6.181  0.0173  0.1672  0.1762
 1262loPI   C2A19856  -0.218  15.082   6.636 -0.3130  0.2816 -0.1774
 1262loPI   C3A19857  -0.193  15.128   7.113 -0.2107  0.0151  0.0348
 1262loPI   C4A19858  -0.220  15.115   7.559  0.3998  0.0121  0.0093
 1262loPI   C5A19859  -0.292  14.988   7.963 -0.3546 -0.1497  0.3427
 1262loPI   C6A19860  -0.189  14.690   8.181  0.0420 -0.0752  0.3012
 1262loPI   C1B19861  -0.118  14.479   6.499 -0.2116 -0.0515 -0.1342
 1262loPI   C2B19862  -0.266  14.589   6.870 -0.1440  0.0481 -0.1274
 1262loPI   C3B19863  -0.225  14.673   7.263 -0.2397 -0.3605  0.0923
 1262loPI   C4B19864  -0.177  14.537   7.687  0.0531 -0.1405 -0.0181
 1263loPI    C119865   4.224   0.518   5.728  0.1277 -0.1369  0.0813
 1263loPI    C219866   4.535   0.677   5.533  0.0056 -0.1853 -0.1564
 1263loPI    C319867   4.214   0.553   5.330 -0.1574 -0.1649  0.0844
 1263loPI   PO419868   4.302   0.323   5.853 -0.1259  0.2882  0.3274
 1263loPI   GL119869   4.327   0.228   6.252  0.3218  0.1167  0.0709
 1263loPI   GL219870   4.179   0.396   6.544 -0.1575 -0.0758  0.0165
 1263loPI   C1A19871   4.400   0.002   6.727 -0.0882 -0.3618 -0.0791
 1263loPI   C2A19872   4.438   0.085   7.156  0.3500 -0.0524  0.2720
 1263loPI   C3A19873   4.457   0.006   7.601  0.0686  0.0821  0.1641
 1263loPI   C4A19874   4.366   0.176   8.054 -0.0155 -0.3452 -0.0448
 1263loPI   C5A19875   4.323   0.165   8.486 -0.0807 -0.0255  0.0268
 1263loPI   C6A19876   4.500   0.136   8.896  0.3859  0.2280 -0.1001
 1263loPI   C1B19877   3.959   0.283   7.038 -0.0859 -0.1336  0.2691
 1263loPI   C2B19878   3.980   0.165   7.473 -0.1248  0.5815 -0.4217
 1263loPI   C3B19879   3.878   0.424   7.809 -0.2780 -0.0295 -0.0797
 1263loPI   C4B19880   3.943   0.440   8.177 -0.0685  0.0632  0.2141
 1264loPI    C119881   6.750   6.973   5.974  0.1822 -0.1154  0.2947
 1264loPI    C219882   6.815   6.687   6.246  0.0779 -0.2959  0.1324
 1264loPI    C319883   6.834   6.600   5.856 -0.2293 -0.1465  0.0816
 1264loPI   PO419884   6.487   7.063   6.040  0.1496 -0.0057 -0.0059
 1264loPI   GL119885   6.348   7.301   6.297 -0.0185  0.0239 -0.2431
 1264loPI   GL219886   6.740   7.221   6.410 -0.2064 -0.2244 -0.2735
 1264loPI   C1A19887   6.355   7.323   6.689  0.1157  0.0745  0.3395
 1264loPI   C2A19888   6.573   6.961   6.861 -0.0128 -0.1893 -0.3753
 1264loPI   C3A19889   6.736   6.978   7.297  0.1708 -0.0568 -0.1564
 1264loPI   C4A19890   6.811   6.927   7.784  0.2546  0.1039  0.0984
 1264loPI   C5A19891   6.523   7.047   8.140  0.1002  0.1204 -0.0462
 1264loPI   C6A19892   6.617   6.672   8.433  0.0196 -0.1336 -0.1007
 1264loPI   C1B19893   6.888   7.438   6.816 -0.0672 -0.1606  0.1448
 1264loPI   C2B19894   6.757   7.715   7.112  0.1603 -0.0190 -0.0066
 1264loPI   C3B19895   6.458   8.154   7.242  0.0228 -0.0938 -0.0881
 1264loPI   C4B19896   6.194   8.397   7.023  0.2257  0.0718 -0.0945
 1265loPI    C119897   2.959  13.132   5.353 -0.3543  0.1247 -0.0652
 1265loPI    C219898   2.692  12.866   5.218  0.1457 -0.2461 -0.3541
 1265loPI    C319899   3.008  12.965   4.993  0.3864 -0.0005  0.0793
 1265loPI   PO419900   3.106  13.036   5.510  0.0587 -0.0124 -0.0787
 1265loPI   GL119901   3.232  13.124   5.943  0.0781 -0.2837 -0.1468
 1265loPI   GL219902   3.543  13.000   6.116 -0.0219 -0.0302  0.1098
 1265loPI   C1A19903   2.954  13.313   6.335  0.1193  0.0250  0.0039
 1265loPI   C2A19904   2.939  13.234   6.836 -0.0577 -0.0450  0.2076
 1265loPI   C3A19905   2.997  13.274   7.224  0.1271  0.2640  0.0405
 1265loPI   C4A19906   2.926  13.302   7.664 -0.0682 -0.0697 -0.4325
 1265loPI   C5A19907   3.053  13.327   8.115  0.1130  0.3496  0.1167
 1265loPI   C6A19908   3.071  13.322   8.502  0.2193  0.2142 -0.0858
 1265loPI   C1B19909   3.398  13.130   6.532 -0.2282  0.4472 -0.2746
 1265loPI   C2B19910   3.449  13.088   6.964 -0.0419 -0.1126  0.0362
 1265loPI   C3B19911   3.450  13.096   7.401  0.0777  0.0203  0.0922
 1265loPI   C4B19912   3.497  13.089   7.898  0.1672  0.1512  0.2360
 1266loPI    C119913  12.153   7.131   5.379 -0.0585  0.1699 -0.0015
 1266loPI    C219914  11.846   7.256   5.603 -0.1041 -0.0158  0.0411
 1266loPI    C319915  11.781   7.015   5.290 -0.0182  0.0741 -0.0467
 1266loPI   PO419916  12.313   6.997   5.570 -0.1632 -0.1797 -0.3117
 1266loPI   GL119917  12.331   7.183   6.021 -0.1706 -0.0124  0.2525
 1266loPI   GL219918  12.583   7.215   5.934 -0.1166  0.0881 -0.0480
 1266loPI   C1A19919  12.416   7.134   6.480  0.3249 -0.0252 -0.2839
 1266loPI   C2A19920  12.503   7.120   6.947  0.0293  0.1557  0.1689
 1266loPI   C3A19921  12.517   7.169   7.343  0.1321  0.1291 -0.3185
 1266loPI   C4A19922  12.603   7.068   7.788 -0.0145  0.2498 -0.0463
 1266loPI   C5A19923  12.942   6.866   7.928 -0.2081  0.0854 -0.0632
 1266loPI   C6A19924  13.156   6.886   8.291 -0.0052 -0.2887  0.0440
 1266loPI   C1B19925  12.801   7.353   6.289  0.0537 -0.3185  0.3363
 1266loPI   C2B19926  12.937   7.359   6.815  0.1471 -0.0064  0.2614
 1266loPI   C3B19927  12.981   7.399   7.191 -0.0681  0.1427 -0.1501
 1266loPI   C4B19928  13.080   7.292   7.617 -0.1365 -0.2057  0.0006
 1267loPI    C119929   5.625   2.520   6.004 -0.1362  0.1455 -0.0792
 1267loPI    C219930   5.897   2.741   5.810 -0.0683  0.1770  0.0512
 1267loPI    C319931   5.686   2.465   5.612  0.0395  0.1711 -0.0563
 1267loPI   PO419932   5.792   2.484   6.259 -0.2678  0.0420 -0.0450
 1267loPI   GL119933   5.982   2.488   6.671  0.2862  0.0859 -0.0217
 1267loPI   GL219934   5.767   2.742   6.688  0.1966  0.0083 -0.0287
 1267loPI   C1A19935   5.915   2.338   7.098  0.0311 -0.3170  0.0268
 1267loPI   C2A19936   5.591   2.453   7.422  0.1190  0.1385 -0.0344
 1267loPI   C3A19937   5.184   2.405   7.439  0.0066  0.1806 -0.1390
 1267loPI   C4A19938   4.887   2.306   7.767  0.0360  0.1581  0.0940
 1267loPI   C5A19939   4.717   2.247   8.088 -0.0941 -0.0746  0.1112
 1267loPI   C6A19940   4.380   2.262   8.512 -0.0036 -0.0831 -0.0143
 1267loPI   C1B19941   5.510   2.798   7.085  0.4458  0.0537 -0.0247
 1267loPI   C2B19942   5.661   2.930   7.435  0.2621 -0.1750 -0.2104
 1267loPI   C3B19943   5.647   2.981   7.891 -0.1071 -0.1745  0.2371
 1267loPI   C4B19944   5.555   3.006   8.415 -0.1619 -0.0303  0.2061
 1268loPI    C119945   3.243   1.812   5.936  0.0639 -0.1179 -0.2335
 1268loPI    C219946   3.024   1.746   5.608 -0.0645  0.0647 -0.1858
 1268loPI    C319947   3.391   1.901   5.575 -0.1161  0.1771 -0.2375
 1268loPI   PO419948   3.119   2.009   6.101  0.0665  0.0922  0.0218
 1268loPI   GL119949   2.846   1.891   6.456  0.2821 -0.1322 -0.0036
 1268loPI   GL219950   2.538   2.023   6.580 -0.0604  0.0848  0.2064
 1268loPI   C1A19951   2.938   1.838   6.761 -0.3044  0.0100 -0.0496
 1268loPI   C2A19952   2.854   1.766   7.204 -0.0524 -0.0772 -0.4128
 1268loPI   C3A19953   2.921   1.699   7.725 -0.0250 -0.0789  0.2950
 1268loPI   C4A19954   3.075   1.674   8.108  0.1690 -0.1472 -0.2729
 1268loPI   C5A19955   3.082   1.938   8.594 -0.0562 -0.0400  0.1463
 1268loPI   C6A19956   2.987   2.329   8.676 -0.0625 -0.0257 -0.0409
 1268loPI   C1B19957   2.423   1.949   7.037  0.1409  0.0496  0.3540
 1268loPI   C2B19958   2.402   1.936   7.527  0.1089  0.0765 -0.0328
 1268loPI   C3B19959   2.442   2.018   7.952  0.1207  0.1431  0.2286
 1268loPI   C4B19960   2.634   1.909   8.314 -0.2564  0.0376  0.0167
 1269loPI    C119961   1.912  16.635   5.632 -0.0709  0.0586 -0.1430
 1269loPI    C219962   1.694  16.804   5.343 -0.0416  0.0990 -0.1416
 1269loPI    C319963   1.770  16.412   5.332 -0.3998  0.0209  0.0361
 1269loPI   PO419964   1.759  16.642   5.867  0.1677 -0.1377 -0.0355
 1269loPI   GL119965   1.734  16.652   6.281 -0.0630 -0.1211 -0.0045
 1269loPI   GL219966   1.813  16.302   6.313 -0.0195 -0.2274  0.2103
 1269loPI   C1A19967   1.769  16.712   6.745  0.1961  0.0657 -0.2978
 1269loPI   C2A19968   1.691  16.595   7.173  0.4797 -0.0089  0.0159
 1269loPI   C3A19969   1.538  16.680   7.490  0.0876  0.3028  0.0412
 1269loPI   C4A19970   1.424  16.716   7.876  0.0421  0.3689  0.2003
 1269loPI   C5A19971   1.558  16.792   8.217 -0.1768  0.1009  0.0708
 1269loPI   C6A19972   1.854  16.663   8.407 -0.0541  0.1831 -0.3300
 1269loPI   C1B19973   1.714  16.232   6.696 -0.2678  0.0450  0.0898
 1269loPI   C2B19974   1.577  16.137   7.176  0.5020 -0.1596 -0.0568
 1269loPI   C3B19975   1.504  16.203   7.583  0.1660 -0.2828 -0.1277
 1269loPI   C4B19976   1.394  16.241   8.017  0.4642  0.0587 -0.1729
 1270loPI    C119977   2.899   5.775   5.570  0.0458 -0.2753  0.0832
 1270loPI    C219978   2.700   5.501   5.356 -0.0743 -0.1016 -0.0299
 1270loPI    C319979   2.853   5.824   5.176  0.1048 -0.1144  0.0958
 1270loPI   PO419980   2.773   5.908   5.722 -0.2676  0.1652 -0.2221
 1270loPI   GL119981   2.783   6.255   5.939 -0.0029 -0.2148 -0.0280
 1270loPI   GL219982   2.604   6.452   5.786  0.3513 -0.0347 -0.1847
 1270loPI   C1A19983   2.721   6.260   6.371  0.0162  0.0090  0.2133
 1270loPI   C2A19984   2.637   6.252   6.764  0.0418  0.0400 -0.1207
 1270loPI   C3A19985   2.782   6.302   7.207  0.0216 -0.2752 -0.3739
 1270loPI   C4A19986   2.640   6.281   7.664 -0.1850 -0.3416 -0.0989
 1270loPI   C5A19987   2.754   6.727   7.955 -0.2570  0.2925  0.0515
 1270loPI   C6A19988   3.023   6.879   8.335 -0.4422  0.0187  0.1146
 1270loPI   C1B19989   2.657   6.723   6.171 -0.0899 -0.1126 -0.3337
 1270loPI   C2B19990   2.656   6.797   6.656  0.1124  0.2087  0.1494
 1270loPI   C3B19991   2.751   6.787   7.047 -0.4838 -0.4540 -0.0490
 1270loPI   C4B19992   2.703   6.893   7.399  0.2127  0.1284 -0.2676
 1271loPI    C119993   0.544  14.020   5.532  0.5189 -0.1219 -0.0891
 1271loPI    C219994   0.381  14.305   5.302 -0.1303 -0.1160  0.3514
 1271loPI    C319995   0.522  13.969   5.135 -0.4300 -0.0405 -0.0699
 1271loPI   PO419996   0.588  14.095   5.668  0.0708  0.2580  0.1107
 1271loPI   GL119997   0.644  14.035   6.048  0.1108 -0.0345 -0.3545
 1271loPI   GL219998   0.407  14.311   6.209  0.2720 -0.0574 -0.1869
 1271loPI   C1A19999   0.701  14.034   6.557 -0.2251  0.0706 -0.1457
 1271loPI   C2A20000   0.842  14.044   6.933  0.0484 -0.3186 -0.0894
 1271loPI   C3A20001   0.758  14.069   7.354 -0.0224 -0.1969  0.1907
 1271loPI   C4A20002   0.710  14.061   7.745  0.0024 -0.2853 -0.0906
 1271loPI   C5A20003   0.793  13.978   8.168 -0.0216  0.0223  0.1869
 1271loPI   C6A20004   0.928  13.663   8.347 -0.3590 -0.2737 -0.0761
 1271loPI   C1B20005   0.349  14.264   6.729  0.2594  0.2620  0.0066
 1271loPI   C2B20006   0.259  14.428   7.086 -0.2709  0.2097 -0.1203
 1271loPI   C3B20007   0.303  14.252   7.512 -0.0317  0.0396  0.0164
 1271loPI   C4B20008   0.222  14.395   7.969  0.0782  0.0405  0.0165
 1272loPI    C120009  16.349  15.891   5.422 -0.0091 -0.1003 -0.0333
 1272loPI    C220010  16.696  15.951   5.231 -0.0464 -0.2924 -0.1645
 1272loPI    C320011  16.362  15.881   5.022 -0.2197  0.1537 -0.0495
 1272loPI   PO420012  16.379  15.786   5.618 -0.1780 -0.2063  0.1219
 1272loPI   GL120013  16.190  15.824   6.063 -0.0919 -0.1071 -0.0063
 1272loPI   GL220014  16.505  15.781   6.112 -0.1580 -0.0756 -0.0289
 1272loPI   C1A20015  16.064  15.972   6.435 -0.0435 -0.3499  0.1765
 1272loPI   C2A20016  15.951  16.123   6.852 -0.2235 -0.1130  0.0503
 1272loPI   C3A20017  15.938  15.965   7.284  0.0928 -0.0482  0.2666
 1272loPI   C4A20018  15.837  15.848   7.741  0.0721  0.1341 -0.1261
 1272loPI   C5A20019  15.768  15.866   8.142 -0.4935  0.0054 -0.1257
 1272loPI   C6A20020  16.129  15.587   8.331 -0.1842 -0.1965  0.2738
 1272loPI   C1B20021  16.490  15.738   6.586 -0.1055  0.3633 -0.0619
 1272loPI   C2B20022  16.341  15.731   6.983 -0.0939  0.0742  0.3199
 1272loPI   C3B20023  16.356  15.724   7.385 -0.2602 -0.4739 -0.0875
 1272loPI   C4B20024  16.292  15.647   7.804  0.0645 -0.0357 -0.2692
 1273loPI    C120025   2.996  11.296   5.297 -0.0484 -0.1429  0.0790
 1273loPI    C220026   3.292  11.040   5.214 -0.3320 -0.4075 -0.1373
 1273loPI    C320027   3.080  11.203   4.917 -0.1439  0.0983 -0.0028
 1273loPI   PO420028   2.863  11.187   5.554  0.3320 -0.0726  0.1434
 1273loPI   GL120029   2.782  11.318   5.936  0.3206  0.1971  0.0564
 1273loPI   GL220030   2.867  11.572   6.036 -0.0214 -0.1846  0.0170
 1273loPI   C1A20031   2.562  11.478   6.390 -0.2279 -0.0344  0.1036
 1273loPI   C2A20032   2.649  11.538   6.826 -0.1122  0.0258  0.1761
 1273loPI   C3A20033   2.657  11.544   7.270  0.0561 -0.0217 -0.0949
 1273loPI   C4A20034   2.525  11.479   7.679 -0.1487 -0.1322  0.3642
 1273loPI   C5A20035   2.813  11.509   8.072 -0.0699  0.1627  0.2023
 1273loPI   C6A20036   3.081  11.387   8.365  0.2166 -0.2462  0.0861
 1273loPI   C1B20037   2.979  11.709   6.418  0.3001 -0.1079 -0.1438
 1273loPI   C2B20038   3.084  11.769   6.893  0.0372 -0.2557  0.0039
 1273loPI   C3B20039   3.044  11.793   7.330 -0.0065 -0.0077 -0.2240
 1273loPI   C4B20040   3.017  11.780   7.694 -0.3136  0.2194  0.1204
 1274loPI    C120041  15.674  12.964   5.226  0.1245 -0.0540  0.3248
 1274loPI    C220042  15.525  12.610   5.114  0.0677 -0.0006  0.2304
 1274loPI    C320043  15.881  12.729   4.977 -0.0760  0.1383 -0.0315
 1274loPI   PO420044  15.526  13.008   5.473 -0.1054  0.0188 -0.0911
 1274loPI   GL120045  15.603  12.925   5.835 -0.0299 -0.4039  0.0620
 1274loPI   GL220046  15.457  12.650   5.954 -0.1460  0.1316  0.0355
 1274loPI   C1A20047  15.386  13.150   6.215 -0.0887 -0.0021 -0.2123
 1274loPI   C2A20048  15.417  13.223   6.619 -0.0706 -0.1889 -0.0670
 1274loPI   C3A20049  15.498  13.109   7.008 -0.0224 -0.1205 -0.0538
 1274loPI   C4A20050  15.518  13.126   7.383 -0.0886 -0.0538 -0.4060
 1274loPI   C5A20051  15.514  12.999   7.856 -0.1665  0.4185 -0.5059
 1274loPI   C6A20052  15.440  12.658   8.217  0.1170 -0.0075 -0.1293
 1274loPI   C1B20053  15.473  12.685   6.383 -0.0111  0.0161 -0.2946
 1274loPI   C2B20054  15.549  12.644   6.841 -0.1772 -0.1648  0.0489
 1274loPI   C3B20055  15.484  12.629   7.201  0.1131  0.0748 -0.3477
 1274loPI   C4B20056  15.587  12.559   7.571 -0.0514  0.2964 -0.0199
 1275loPI    C120057  17.438   4.030   5.613 -0.1153 -0.1054  0.0727
 1275loPI    C220058  17.677   4.172   5.901  0.0325 -0.2034 -0.0002
 1275loPI    C320059  17.588   4.399   5.584  0.1275 -0.2101 -0.0319
 1275loPI   PO420060  17.279   3.889   5.747 -0.3537 -0.1329  0.1400
 1275loPI   GL120061  17.097   4.082   6.098 -0.0341  0.1734 -0.1608
 1275loPI   GL220062  17.148   4.321   5.893  0.1446 -0.0672 -0.1006
 1275loPI   C1A20063  17.013   4.192   6.476 -0.1684  0.0440 -0.1181
 1275loPI   C2A20064  16.870   4.151   6.828 -0.2656 -0.1586 -0.0549
 1275loPI   C3A20065  16.982   4.187   7.260  0.1208  0.1487  0.1327
 1275loPI   C4A20066  17.121   4.030   7.656  0.0221 -0.2814  0.2331
 1275loPI   C5A20067  17.444   3.973   7.858  0.1242  0.2170  0.0772
 1275loPI   C6A20068  17.538   3.657   8.234  0.0658 -0.1025  0.1512
 1275loPI   C1B20069  17.421   4.415   6.219 -0.0332  0.0722 -0.1833
 1275loPI   C2B20070  17.410   4.482   6.724 -0.1282 -0.0739  0.2120
 1275loPI   C3B20071  17.447   4.385   7.208  0.1545 -0.0458  0.1962
 1275loPI   C4B20072  17.493   4.378   7.645  0.0946  0.1745 -0.1686
 1276loPI    C120073  15.258  12.192   4.962  0.1056 -0.0832 -0.0412
 1276loPI    C220074  15.028  12.514   5.021  0.5033  0.1793  0.1236
 1276loPI    C320075  15.148  12.419   4.651  0.1073  0.0179  0.0314
 1276loPI   PO420076  15.417  12.177   5.344 -0.1227  0.0576  0.0721
 1276loPI   GL120077  15.382  12.164   5.781  0.0865 -0.1482  0.3536
 1276loPI   GL220078  15.337  11.867   5.921 -0.0731 -0.2355  0.1867
 1276loPI   C1A20079  15.629  12.169   6.163 -0.2922  0.0566  0.1433
 1276loPI   C2A20080  15.511  12.221   6.566  0.0240 -0.1244  0.1606
 1276loPI   C3A20081  15.441  12.135   6.953  0.1182  0.0034 -0.0991
 1276loPI   C4A20082  15.505  12.061   7.288 -0.0002 -0.2191 -0.0050
 1276loPI   C5A20083  15.506  12.050   7.691 -0.0139 -0.0794 -0.3224
 1276loPI   C6A20084  15.723  12.184   8.109  0.0404  0.0237 -0.1284
 1276loPI   C1B20085  15.219  11.884   6.300 -0.0580 -0.0855  0.0348
 1276loPI   C2B20086  15.069  11.871   6.724 -0.0526 -0.1299  0.2122
 1276loPI   C3B20087  15.098  11.853   7.217 -0.0750 -0.0224 -0.4110
 1276loPI   C4B20088  15.026  11.867   7.706 -0.1067  0.1357  0.0593
 1277loPI    C120089  15.496   0.114   5.166  0.1470  0.0763  0.0437
 1277loPI    C220090  15.186  -0.093   5.021  0.3758 -0.3264  0.1132
 1277loPI    C320091  15.369   0.179   4.792 -0.0855 -0.0092  0.1059
 1277loPI   PO420092  15.543  -0.126   5.432  0.3858  0.0625 -0.2371
 1277loPI   GL120093  15.580  -0.127   5.918  0.0413 -0.1739  0.2347
 1277loPI   GL220094  15.266  -0.128   5.937 -0.0356  0.0322  0.0834
 1277loPI   C1A20095  15.529  -0.102   6.352  0.0366  0.1372 -0.0922
 1277loPI   C2A20096  15.369  -0.161   6.711  0.0637  0.3381 -0.0215
 1277loPI   C3A20097  15.400  -0.158   7.227 -0.0080  0.0310 -0.3490
 1277loPI   C4A20098  15.325  -0.178   7.603 -0.5826 -0.1930 -0.1240
 1277loPI   C5A20099  15.351  -0.174   7.993 -0.1811  0.0154 -0.3225
 1277loPI   C6A20100  15.034  -0.230   8.203 -0.0305  0.0681 -0.2157
 1277loPI   C1B20101  15.029  -0.258   6.319 -0.1529 -0.1934 -0.3833
 1277loPI   C2B20102  14.904  -0.391   6.803 -0.2055  0.2737 -0.1803
 1277loPI   C3B20103  14.982  -0.400   7.272 -0.1591  0.1448 -0.1688
 1277loPI   C4B20104  14.928  -0.474   7.715  0.0134 -0.0309  0.0689
 1278loPI    C120105  17.494  15.514   5.390 -0.0807 -0.2426  0.0704
 1278loPI    C220106  17.747  15.288   5.603  0.3104  0.0663 -0.0536
 1278loPI    C320107  17.664  15.192   5.224  0.1640 -0.0885  0.0164
 1278loPI   PO420108  17.322  15.557   5.579  0.0593  0.1172  0.0266
 1278loPI   GL120109  17.322  15.685   6.041 -0.0005 -0.0486 -0.1736
 1278loPI   GL220110  17.403  15.386   6.053 -0.0024 -0.3500  0.0356
 1278loPI   C1A20111  17.324  15.832   6.506 -0.2414 -0.1173 -0.0375
 1278loPI   C2A20112  17.294  15.880   6.900  0.1434  0.2587  0.1297
 1278loPI   C3A20113  17.215  15.772   7.338  0.0583  0.2401  0.1460
 1278loPI   C4A20114  17.167  15.785   7.791 -0.0893 -0.1366  0.2163
 1278loPI   C5A20115  17.216  15.617   8.134 -0.1086 -0.5076 -0.1237
 1278loPI   C6A20116  17.241  15.670   8.661  0.1272 -0.1123  0.2193
 1278loPI   C1B20117  17.246  15.250   6.435 -0.1095  0.1684 -0.1578
 1278loPI   C2B20118  17.339  15.344   6.878  0.0376  0.1613  0.1533
 1278loPI   C3B20119  17.274  15.296   7.327 -0.1912 -0.3122  0.0845
 1278loPI   C4B20120  17.188  15.265   7.770 -0.1998 -0.1561  0.0639
 1279loPI    C120121   0.284  15.971   5.462  0.3391 -0.1186  0.0211
 1279loPI    C220122   0.066  15.661   5.336  0.0989 -0.0331  0.2185
 1279loPI    C320123   0.238  15.905   5.070  0.0977 -0.2001  0.0618
 1279loPI   PO420124   0.188  15.910   5.710  0.1509  0.1838  0.4644
 1279loPI   GL120125  -0.078  15.688   5.967 -0.2620 -0.2682 -0.0645
 1279loPI   GL220126  -0.001  15.446   6.054 -0.1097 -0.0513  0.0392
 1279loPI   C1A20127   0.072  15.902   6.358  0.2462 -0.0066  0.3219
 1279loPI   C2A20128  -0.230  16.130   6.671 -0.3260 -0.0315 -0.1375
 1279loPI   C3A20129  -0.244  16.210   7.186 -0.0086  0.0757 -0.0690
 1279loPI   C4A20130  -0.323  16.130   7.603 -0.4831  0.0116  0.1867
 1279loPI   C5A20131  -0.356  16.028   8.034 -0.2298 -0.0670  0.1560
 1279loPI   C6A20132  -0.117  15.651   8.122  0.0037  0.2841 -0.0724
 1279loPI   C1B20133  -0.167  15.489   6.360 -0.0915  0.1141  0.1180
 1279loPI   C2B20134  -0.143  15.633   6.744 -0.1616  0.1707  0.5039
 1279loPI   C3B20135  -0.264  15.639   7.155  0.1358 -0.0326  0.1416
 1279loPI   C4B20136  -0.261  15.596   7.614  0.2414  0.2318  0.0491
 1280loPI    C120137   9.568  14.457   5.637 -0.0229  0.0049  0.0438
 1280loPI    C220138   9.484  14.455   5.246 -0.0859  0.1165  0.0563
 1280loPI    C320139   9.804  14.653   5.380 -0.0557  0.0654  0.0600
 1280loPI   PO420140   9.405  14.491   5.757  0.2129 -0.2723  0.0991
 1280loPI   GL120141   9.522  14.693   6.160 -0.1332 -0.1332 -0.0224
 1280loPI   GL220142   9.834  14.620   6.097 -0.3350  0.0471 -0.3985
 1280loPI   C1A20143   9.543  14.866   6.398 -0.1037 -0.1946  0.2116
 1280loPI   C2A20144   9.658  14.929   6.833 -0.2253  0.0924 -0.0272
 1280loPI   C3A20145   9.632  14.797   7.237 -0.2250 -0.0500  0.1796
 1280loPI   C4A20146   9.690  14.733   7.617 -0.0535 -0.0102 -0.2488
 1280loPI   C5A20147   9.707  14.601   8.083  0.2169 -0.2365 -0.1929
 1280loPI   C6A20148   9.820  14.411   8.491  0.1349  0.1482 -0.3042
 1280loPI   C1B20149   9.989  14.578   6.521  0.1328 -0.2681 -0.0931
 1280loPI   C2B20150  10.041  14.559   6.981  0.0028 -0.0183  0.1832
 1280loPI   C3B20151  10.160  14.497   7.345 -0.0653  0.1749 -0.2758
 1280loPI   C4B20152  10.185  14.516   7.761  0.3905 -0.0111  0.2590
 1281loPI    C120153  10.208   0.749   5.408  0.1455 -0.3046 -0.0263
 1281loPI    C220154  10.424   0.816   5.078 -0.0524  0.1420 -0.0723
 1281loPI    C320155  10.027   0.774   5.052 -0.0489 -0.0000  0.0891
 1281loPI   PO420156  10.264   0.641   5.557 -0.1814  0.0500 -0.1096
 1281loPI   GL120157  10.461   0.741   5.905  0.3156  0.0471  0.0910
 1281loPI   GL220158  10.843   0.851   6.014 -0.1856  0.0667  0.0508
 1281loPI   C1A20159  10.335   0.546   6.338  0.0196 -0.0287  0.1491
 1281loPI   C2A20160  10.415   0.611   6.769  0.0533  0.1642 -0.2856
 1281loPI   C3A20161  10.487   0.494   7.213  0.2889 -0.1351  0.0529
 1281loPI   C4A20162  10.439   0.446   7.669 -0.0209  0.2919 -0.1417
 1281loPI   C5A20163  10.603   0.585   8.005 -0.3921  0.0029  0.0369
 1281loPI   C6A20164  10.601   1.024   8.101  0.0541 -0.1332 -0.1332
 1281loPI   C1B20165  10.797   0.824   6.508  0.0928 -0.1963  0.1274
 1281loPI   C2B20166  10.839   0.863   6.951  0.0698  0.0924 -0.1492
 1281loPI   C3B20167  10.892   0.718   7.332  0.1293  0.2297 -0.6242
 1281loPI   C4B20168  10.929   0.782   7.687  0.1745 -0.1536 -0.0566
 1282POPI    C120169   7.365  17.092   5.716 -0.0353  0.0331 -0.0692
 1282POPI    C220170   7.074  17.340   5.597 -0.1433 -0.1189 -0.1244
 1282POPI    C320171   7.306  17.158   5.326 -0.1906 -0.2281 -0.0922
 1282POPI   PO420172   7.397  16.894   5.929 -0.2297 -0.4083  0.1081
 1282POPI   GL120173   7.276  16.827   6.271 -0.2176  0.0430  0.0498
 1282POPI   GL220174   7.290  17.073   6.434 -0.0192  0.0120  0.0456
 1282POPI   C1A20175   7.266  16.608   6.642 -0.2937 -0.1622  0.0950
 1282POPI   D2A20176   7.247  16.465   7.114  0.0716  0.0670 -0.0739
 1282POPI   C3A20177   7.481  16.518   7.488 -0.0124 -0.2518 -0.1277
 1282POPI   C4A20178   7.454  16.540   7.906 -0.0056  0.2312 -0.1197
 1282POPI   C1B20179   7.207  17.073   6.871 -0.0053  0.0979 -0.3382
 1282POPI   C2B20180   7.173  17.028   7.273  0.6488  0.1750  0.0375
 1282POPI   C3B20181   7.286  17.082   7.678 -0.3159 -0.0440  0.0145
 1282POPI   C4B20182   7.401  17.044   8.066  0.1633  0.1214  0.4712
 1283POPI    C120183   9.226   9.012   5.537 -0.1554  0.1309  0.0914
 1283POPI    C220184   8.856   9.000   5.384 -0.1130 -0.0987  0.0022
 1283POPI    C320185   9.165   8.862   5.171  0.0487  0.2359  0.0131
 1283POPI   PO420186   9.241   8.854   5.730 -0.1547 -0.1281 -0.0904
 1283POPI   GL120187   9.551   8.774   6.107  0.1577  0.2126 -0.0296
 1283POPI   GL220188   9.280   8.536   6.124 -0.3123 -0.2469 -0.2812
 1283POPI   C1A20189   9.661   8.655   6.495  0.0181  0.0583  0.1100
 1283POPI   D2A20190   9.708   8.657   6.860 -0.2437 -0.0725 -0.2383
 1283POPI   C3A20191   9.709   8.643   7.326  0.3227 -0.2489 -0.1521
 1283POPI   C4A20192   9.858   8.657   7.826 -0.0651  0.2453  0.0187
 1283POPI   C1B20193   9.196   8.325   6.547 -0.1644  0.0033  0.1095
 1283POPI   C2B20194   9.263   8.320   7.060  0.1765  0.1004  0.0549
 1283POPI   C3B20195   9.203   8.316   7.519 -0.1598 -0.0731 -0.1187
 1283POPI   C4B20196   8.959   8.063   7.769  0.0528  0.3152 -0.2953
 1284POPI    C120197   5.292  11.732   5.762  0.0237 -0.2157 -0.0612
 1284POPI    C220198   4.980  11.819   5.527  0.1430 -0.1711 -0.2046
 1284POPI    C320199   5.313  11.666   5.368  0.1643 -0.2980 -0.0403
 1284POPI   PO420200   5.139  11.639   6.041  0.1881 -0.1621 -0.1546
 1284POPI   GL120201   5.206  11.558   6.486  0.1725 -0.0599 -0.0414
 1284POPI   GL220202   5.226  12.011   6.458  0.2632  0.2833 -0.1878
 1284POPI   C1A20203   5.269  11.460   6.881  0.3444  0.3425 -0.2806
 1284POPI   D2A20204   5.258  11.521   7.326  0.2817 -0.2693 -0.0386
 1284POPI   C3A20205   5.277  11.605   7.862 -0.4390  0.5254 -0.1121
 1284POPI   C4A20206   5.389  11.547   8.314  0.0946 -0.1089 -0.0011
 1284POPI   C1B20207   5.252  12.081   6.908 -0.0459  0.1389 -0.1599
 1284POPI   C2B20208   5.267  12.125   7.381 -0.0811  0.0765 -0.2007
 1284POPI   C3B20209   5.361  12.126   7.794  0.1054  0.1720 -0.2067
 1284POPI   C4B20210   5.274  12.069   8.181  0.0056 -0.0712  0.0949
 1285POPI    C120211  10.317  13.907   5.341  0.0807  0.0974  0.2401
 1285POPI    C220212  10.541  14.042   5.038  0.0338  0.1485  0.2282
 1285POPI    C320213  10.184  13.877   4.965  0.0356  0.1334  0.2532
 1285POPI   PO420214  10.346  13.996   5.563  0.0713 -0.2067  0.3093
 1285POPI   GL120215  10.474  13.953   6.020  0.5493  0.0855 -0.0938
 1285POPI   GL220216  10.257  13.614   5.960  0.2393 -0.0621  0.4000
 1285POPI   C1A20217  10.509  13.732   6.415 -0.1148 -0.0375  0.2402
 1285POPI   D2A20218  10.598  13.826   6.882  0.0263  0.1438  0.2750
 1285POPI   C3A20219  10.621  13.740   7.311 -0.1298  0.1123  0.1092
 1285POPI   C4A20220  10.577  13.713   7.785 -0.0281  0.0890  0.0114
 1285POPI   C1B20221  10.000  13.580   6.280  0.3429 -0.0770  0.1493
 1285POPI   C2B20222  10.107  13.586   6.649 -0.0421 -0.1568  0.1366
 1285POPI   C3B20223  10.146  13.478   7.104  0.1983 -0.1213  0.0766
 1285POPI   C4B20224  10.178  13.505   7.485 -0.0354 -0.1111 -0.1545
 1286POPI    C120225  15.095  15.650   5.406 -0.0307 -0.1001  0.0806
 1286POPI    C220226  15.373  15.444   5.205  0.2677  0.0519  0.3289
 1286POPI    C320227  15.086  15.640   5.006  0.2883 -0.1721  0.0727
 1286POPI   PO420228  15.164  15.514   5.659 -0.0438 -0.0872  0.0346
 1286POPI   GL120229  15.110  15.137   5.942  0.1905 -0.0510  0.1707
 1286POPI   GL220230  14.952  15.401   6.185  0.2324 -0.2112  0.2835
 1286POPI   C1A20231  15.464  15.227   6.326  0.2055  0.0241  0.0322
 1286POPI   D2A20232  15.549  15.220   6.732  0.0565  0.0866  0.2259
 1286POPI   C3A20233  15.509  15.203   7.165  0.0240  0.0699  0.1737
 1286POPI   C4A20234  15.318  15.209   7.571  0.2772 -0.1998  0.1496
 1286POPI   C1B20235  15.032  15.439   6.588 -0.1324  0.2087 -0.2798
 1286POPI   C2B20236  15.037  15.456   7.015 -0.0716  0.2499 -0.0865
 1286POPI   C3B20237  14.935  15.465   7.445  0.1706  0.0203 -0.0837
 1286POPI   C4B20238  14.914  15.379   7.906  0.3017  0.3550 -0.2130
 1287POPI    C120239  11.835   8.878   5.506 -0.0737  0.0447  0.0107
 1287POPI    C220240  11.856   8.532   5.307  0.1532  0.1185 -0.0971
 1287POPI    C320241  11.818   8.876   5.106 -0.0873  0.1568  0.0104
 1287POPI   PO420242  11.891   8.770   5.748 -0.1279  0.0702  0.2549
 1287POPI   GL120243  11.978   8.999   6.136  0.2528  0.1793  0.0225
 1287POPI   GL220244  12.296   9.133   6.152 -0.0670  0.0467 -0.1335
 1287POPI   C1A20245  11.878   8.903   6.551 -0.1240  0.0559 -0.0067
 1287POPI   D2A20246  11.895   8.920   6.949  0.0910 -0.3157  0.1597
 1287POPI   C3A20247  11.954   8.947   7.388  0.0826 -0.1630 -0.0436
 1287POPI   C4A20248  12.086   8.975   7.779  0.0087  0.0739  0.2086
 1287POPI   C1B20249  12.439   9.238   6.618  0.0971 -0.0523 -0.0841
 1287POPI   C2B20250  12.383   9.235   7.080 -0.5014 -0.0429 -0.0444
 1287POPI   C3B20251  12.425   9.212   7.532  0.0650  0.2259  0.0603
 1287POPI   C4B20252  12.592   9.100   7.881  0.2714  0.2046 -0.1255
 1288POPI    C120253   6.355   1.144   5.845  0.1782  0.0049 -0.1265
 1288POPI    C220254   6.317   1.231   5.456 -0.0742  0.2374 -0.0527
 1288POPI    C320255   6.632   1.367   5.661  0.0050  0.2033 -0.1512
 1288POPI   PO420256   6.031   1.059   6.009 -0.0884  0.2570 -0.0441
 1288POPI   GL120257   5.873   1.061   6.321  0.2631 -0.3111 -0.2064
 1288POPI   GL220258   5.965   0.780   6.441 -0.1336  0.0985 -0.2040
 1288POPI   C1A20259   5.962   1.360   6.806  0.0271 -0.0272 -0.2259
 1288POPI   D2A20260   5.972   1.435   7.261 -0.0118  0.0068  0.2086
 1288POPI   C3A20261   5.757   1.579   7.717  0.1099 -0.2789  0.1753
 1288POPI   C4A20262   5.473   1.735   8.080 -0.1985  0.0679  0.3296
 1288POPI   C1B20263   5.947   0.758   6.844  0.0095  0.0129 -0.2093
 1288POPI   C2B20264   5.829   0.873   7.246  0.3133  0.0930  0.1676
 1288POPI   C3B20265   5.778   0.954   7.695 -0.1324  0.0627  0.2223
 1288POPI   C4B20266   6.005   0.761   8.146 -0.3108  0.1293  0.3666
 1289POPI    C120267   8.699   3.196   5.920 -0.2197  0.0712  0.1530
 1289POPI    C220268   8.625   2.866   5.707  0.0073  0.1851 -0.1076
 1289POPI    C320269   8.487   3.220   5.582  0.0933  0.2446 -0.0353
 1289POPI   PO420270   8.767   3.071   6.178  0.2987 -0.3033  0.2441
 1289POPI   GL120271   9.052   2.943   6.434  0.4425  0.1419 -0.3124
 1289POPI   GL220272   9.230   2.663   6.459  0.1142 -0.0187 -0.2618
 1289POPI   C1A20273   9.269   3.184   6.748 -0.0916  0.1490  0.0012
 1289POPI   D2A20274   9.350   3.267   7.150  0.2669 -0.1054 -0.4222
 1289POPI   C3A20275   9.475   3.022   7.319 -0.0341  0.0836  0.2293
 1289POPI   C4A20276   9.677   3.220   7.813 -0.1125 -0.0149  0.0448
 1289POPI   C1B20277   9.307   2.640   6.971 -0.1612 -0.0180 -0.1714
 1289POPI   C2B20278   9.561   2.496   7.386  0.0523  0.0341 -0.4051
 1289POPI   C3B20279   9.511   2.644   7.808  0.1977 -0.1728 -0.2957
 1289POPI   C4B20280   9.290   2.596   8.252 -0.0153 -0.2890 -0.0267
 1290POPI    C120281   1.835  13.938   5.467  0.0819 -0.0377 -0.2715
 1290POPI    C220282   1.946  14.085   5.112  0.2860  0.0679 -0.1658
 1290POPI    C320283   2.221  14.010   5.392  0.1550 -0.2642 -0.1217
 1290POPI   PO420284   1.686  14.111   5.593 -0.2891 -0.1637 -0.1235
 1290POPI   GL120285   1.599  14.064   5.965 -0.0787  0.0804  0.3309
 1290POPI   GL220286   1.843  13.702   6.023 -0.0522 -0.3500 -0.2190
 1290POPI   C1A20287   1.599  14.036   6.404 -0.0666  0.1554  0.2652
 1290POPI   D2A20288   1.695  13.992   6.798  0.1802 -0.1515 -0.0224
 1290POPI   C3A20289   1.595  14.050   7.271 -0.0916 -0.0901  0.3532
 1290POPI   C4A20290   1.539  14.163   7.773  0.3094 -0.0977  0.0783
 1290POPI   C1B20291   2.095  13.888   6.325 -0.2405  0.1573 -0.1616
 1290POPI   C2B20292   2.159  13.814   6.836  0.0005 -0.1651  0.0004
 1290POPI   C3B20293   2.080  13.740   7.229 -0.0590  0.0198 -0.2466
 1290POPI   C4B20294   2.101  13.812   7.643  0.0468 -0.3519  0.1992
 1291POPI    C120295   9.669   4.057   5.755 -0.3094 -0.0813 -0.1192
 1291POPI    C220296   9.771   3.838   5.436  0.1727 -0.0044 -0.0244
 1291POPI    C320297   9.554   4.170   5.388 -0.2454 -0.2949 -0.2066
 1291POPI   PO420298   9.880   3.993   5.960  0.2950  0.2398  0.0210
 1291POPI   GL120299  10.019   4.128   6.305 -0.1219  0.1027  0.2429
 1291POPI   GL220300  10.256   4.090   6.376 -0.3916  0.4061  0.1268
 1291POPI   C1A20301   9.806   4.044   6.614 -0.0790  0.2989 -0.1827
 1291POPI   D2A20302   9.679   4.245   6.981 -0.0663  0.0002 -0.0806
 1291POPI   C3A20303   9.558   4.657   7.307 -0.1084 -0.1579  0.1324
 1291POPI   C4A20304   9.788   4.960   7.593  0.4442  0.1491 -0.1473
 1291POPI   C1B20305  10.519   3.916   6.644  0.2339  0.0264  0.0096
 1291POPI   C2B20306  10.704   3.919   7.050  0.3000  0.1742  0.4513
 1291POPI   C3B20307  10.815   4.010   7.435  0.4254  0.0709  0.2092
 1291POPI   C4B20308  10.870   3.832   7.936 -0.0239 -0.0355 -0.0860
 1292POPI    C120309   0.380  11.308   5.147 -0.0896 -0.2839 -0.0851
 1292POPI    C220310  -0.013  11.378   5.129 -0.0274  0.1439  0.0882
 1292POPI    C320311   0.239  11.594   4.905  0.1232 -0.0047  0.1129
 1292POPI   PO420312   0.398  11.232   5.491  0.0223  0.0461 -0.0345
 1292POPI   GL120313   0.516  11.330   5.951  0.1351  0.2613 -0.1709
 1292POPI   GL220314   0.796  11.460   5.988  0.2871  0.3056 -0.0707
 1292POPI   C1A20315   0.379  11.262   6.258  0.1499  0.2330  0.1070
 1292POPI   D2A20316   0.286  11.121   6.698 -0.0688 -0.0090 -0.0740
 1292POPI   C3A20317   0.377  11.183   7.106 -0.1119 -0.2605  0.6397
 1292POPI   C4A20318   0.460  11.034   7.609 -0.0100 -0.1250  0.0114
 1292POPI   C1B20319   0.864  11.483   6.439  0.2678 -0.1387 -0.0145
 1292POPI   C2B20320   0.700  11.441   6.813  0.2310 -0.2923 -0.0448
 1292POPI   C3B20321   0.833  11.527   7.126  0.3352  0.2508  0.2481
 1292POPI   C4B20322   0.803  11.438   7.553 -0.0572  0.5406 -0.2283
 1293POPI    C120323   1.515   0.758   5.424  0.1053 -0.0856  0.0241
 1293POPI    C220324   1.146   0.816   5.281  0.1405 -0.2836 -0.1522
 1293POPI    C320325   1.457   1.004   5.114  0.1368 -0.2239 -0.0925
 1293POPI   PO420326   1.493   0.725   5.669  0.2011 -0.0859 -0.0593
 1293POPI   GL120327   1.416   0.886   6.016 -0.2320  0.3309 -0.0653
 1293POPI   GL220328   1.178   1.190   6.215 -0.2087  0.1245 -0.0943
 1293POPI   C1A20329   1.352   0.593   6.307 -0.0442  0.0923  0.0738
 1293POPI   D2A20330   1.220   0.618   6.761 -0.1343  0.0876  0.0591
 1293POPI   C3A20331   1.145   0.505   7.217 -0.1690 -0.1045 -0.0347
 1293POPI   C4A20332   1.096   0.563   7.626  0.0523 -0.1559 -0.0003
 1293POPI   C1B20333   1.278   1.143   6.652 -0.1032 -0.5584 -0.0558
 1293POPI   C2B20334   1.175   1.040   6.988 -0.0548  0.1545  0.2615
 1293POPI   C3B20335   1.122   1.047   7.470  0.3904  0.0457  0.0643
 1293POPI   C4B20336   1.223   1.128   7.838 -0.0344 -0.2223 -0.1884
 1294POPI    C120337   0.017  14.149   5.622 -0.0159  0.3270 -0.1371
 1294POPI    C220338   0.073  13.904   5.311  0.0407  0.2686 -0.0814
 1294POPI    C320339  -0.280  14.086   5.362 -0.0443  0.0980 -0.0517
 1294POPI   PO420340   0.138  14.154   5.820  0.1578 -0.0866  0.0040
 1294POPI   GL120341   0.062  13.921   6.147 -0.1060 -0.0656 -0.1959
 1294POPI   GL220342  -0.170  13.999   6.315  0.2303  0.0580  0.1447
 1294POPI   C1A20343   0.286  13.786   6.526  0.3014 -0.1602  0.1057
 1294POPI   D2A20344   0.362  13.871   7.018  0.0287 -0.3290 -0.2440
 1294POPI   C3A20345   0.343  13.765   7.465  0.1530  0.3341 -0.2169
 1294POPI   C4A20346   0.207  13.827   7.911  0.0733 -0.0351 -0.0339
 1294POPI   C1B20347  -0.089  14.022   6.754 -0.0715 -0.1319  0.0338
 1294POPI   C2B20348  -0.069  14.105   7.160 -0.1577 -0.3135 -0.0909
 1294POPI   C3B20349  -0.168  13.994   7.635 -0.0633  0.0295 -0.0770
 1294POPI   C4B20350  -0.181  14.125   8.083 -0.0588  0.0235  0.1405
 1295POPI    C120351  17.180   4.892   5.260 -0.2535  0.1523 -0.2511
 1295POPI    C220352  17.545   4.750   5.179 -0.2186  0.0116  0.1321
 1295POPI    C320353  17.240   4.669   4.933  0.0404  0.2905 -0.2944
 1295POPI   PO420354  17.274   4.925   5.485 -0.0557 -0.0937 -0.0524
 1295POPI   GL120355  17.337   4.790   5.914  0.0393 -0.1166  0.0515
 1295POPI   GL220356  16.990   4.831   6.018  0.2743 -0.1876  0.2361
 1295POPI   C1A20357  17.481   4.948   6.305 -0.0572  0.2037  0.0032
 1295POPI   D2A20358  17.378   4.948   6.779  0.1913 -0.0171 -0.1053
 1295POPI   C3A20359  17.452   4.984   7.082 -0.2553 -0.1921  0.1237
 1295POPI   C4A20360  17.450   4.830   7.469  0.2935 -0.0402  0.0923
 1295POPI   C1B20361  17.025   4.699   6.339  0.0944 -0.0839 -0.2629
 1295POPI   C2B20362  16.955   4.679   6.719 -0.3096  0.2570 -0.2990
 1295POPI   C3B20363  17.008   4.660   7.159  0.0835 -0.0535  0.1511
 1295POPI   C4B20364  17.032   4.523   7.582 -0.1875 -0.0608 -0.0925
 1296POPI    C120365  15.229   9.802   5.145 -0.1664 -0.0647 -0.0859
 1296POPI    C220366  15.560  10.019   5.201 -0.0317 -0.2592 -0.1178
 1296POPI    C320367  15.258  10.167   4.984 -0.0208 -0.0286  0.0202
 1296POPI   PO420368  15.236   9.666   5.415  0.1000  0.2158  0.1061
 1296POPI   GL120369  15.103   9.743   5.801  0.2730  0.0104  0.2277
 1296POPI   GL220370  15.323   9.547   5.892  0.2150  0.1249  0.1724
 1296POPI   C1A20371  15.040   9.822   6.194 -0.0341 -0.6295  0.0904
 1296POPI   D2A20372  15.180   9.829   6.686 -0.0183  0.1310 -0.1614
 1296POPI   C3A20373  15.150   9.785   7.078 -0.0955 -0.0084  0.1597
 1296POPI   C4A20374  15.020   9.770   7.474 -0.0640 -0.4278 -0.1448
 1296POPI   C1B20375  15.509   9.608   6.311 -0.0644  0.1022 -0.3090
 1296POPI   C2B20376  15.653   9.613   6.796  0.2945  0.1210  0.1726
 1296POPI   C3B20377  15.576   9.508   7.256 -0.1011  0.2547 -0.0953
 1296POPI   C4B20378  15.497   9.517   7.685  0.3013 -0.1042 -0.1759
 1297POPI    C120379  14.174  13.389   5.125  0.0612 -0.0513 -0.1551
 1297POPI    C220380  13.814  13.503   4.992 -0.0003 -0.1187 -0.0475
 1297POPI    C320381  14.122  13.478   4.738  0.0323  0.3532 -0.0622
 1297POPI   PO420382  14.164  13.337   5.398 -0.0828 -0.0084  0.2387
 1297POPI   GL120383  14.120  13.240   5.815  0.1292  0.0566  0.1474
 1297POPI   GL220384  14.455  13.089   5.861  0.4237 -0.2096  0.2738
 1297POPI   C1A20385  14.120  13.383   6.227 -0.3936 -0.0595  0.0761
 1297POPI   D2A20386  14.046  13.385   6.599 -0.0768 -0.2833  0.2160
 1297POPI   C3A20387  14.147  13.401   6.957  0.1275 -0.1410 -0.1397
 1297POPI   C4A20388  14.192  13.351   7.405 -0.2809  0.0252 -0.1165
 1297POPI   C1B20389  14.508  13.124   6.294 -0.1404  0.0479 -0.2493
 1297POPI   C2B20390  14.551  13.134   6.813 -0.0742  0.3472 -0.0584
 1297POPI   C3B20391  14.544  13.087   7.163  0.1068  0.1624 -0.0955
 1297POPI   C4B20392  14.599  13.110   7.594  0.0548  0.0015 -0.0411
 1298DPPI    C120393   9.452  13.652   5.400  0.0899  0.1691  0.2574
 1298DPPI    C220394   9.243  13.599   5.063  0.0448 -0.2148  0.3414
 1298DPPI    C320395   9.274  13.964   5.223  0.1719 -0.0048 -0.1429
 1298DPPI   PO420396   9.385  13.526   5.549 -0.0848 -0.5064  0.0906
 1298DPPI   GL120397   9.496  13.574   6.026  0.0817 -0.1396  0.0118
 1298DPPI   GL220398   9.381  13.299   6.230  0.1183  0.1197  0.3455
 1298DPPI   C1A20399   9.502  13.762   6.327 -0.1246 -0.0120  0.0140
 1298DPPI   C2A20400   9.620  13.814   6.693 -0.1080  0.0529  0.3314
 1298DPPI   C3A20401   9.731  13.729   7.180  0.1869  0.3997  0.3488
 1298DPPI   C4A20402   9.753  13.687   7.597  0.0725 -0.2524  0.2573
 1298DPPI   C1B20403   9.614  13.298   6.537 -0.0336 -0.8125  0.0355
 1298DPPI   C2B20404   9.626  13.267   6.961  0.0419 -0.1351 -0.3393
 1298DPPI   C3B20405   9.755  13.191   7.366  0.0311 -0.2723 -0.2133
 1298DPPI   C4B20406   9.782  13.157   7.788  0.0325  0.0146  0.0490
 1299DPPI    C120407   4.378  14.459   5.437 -0.1449  0.0314  0.1593
 1299DPPI    C220408   4.023  14.417   5.258  0.0181  0.0898 -0.1863
 1299DPPI    C320409   4.337  14.203   5.132  0.1663  0.2261 -0.0532
 1299DPPI   PO420410   4.342  14.410   5.786 -0.4089 -0.1634 -0.3166
 1299DPPI   GL120411   4.177  14.479   6.132 -0.3437  0.0421  0.2099
 1299DPPI   GL220412   4.238  14.220   6.261  0.1121 -0.2193 -0.0532
 1299DPPI   C1A20413   4.188  14.625   6.551  0.0241  0.2209 -0.1202
 1299DPPI   C2A20414   4.279  14.614   7.023 -0.3689  0.0724  0.2207
 1299DPPI   C3A20415   4.280  14.646   7.426 -0.0411 -0.0004 -0.1348
 1299DPPI   C4A20416   4.270  14.707   7.884 -0.2847 -0.0019  0.3348
 1299DPPI   C1B20417   4.239  14.093   6.722 -0.1371 -0.1025  0.1131
 1299DPPI   C2B20418   4.288  14.116   7.178  0.0058  0.2182 -0.4996
 1299DPPI   C3B20419   4.242  14.220   7.694 -0.0232  0.1697  0.0916
 1299DPPI   C4B20420   4.249  14.288   8.195  0.1356 -0.2728  0.0423
 1300DPPI    C120421   5.135  17.653   5.913 -0.0334 -0.1426  0.0199
 1300DPPI    C220422   5.265  17.765   5.551  0.1233  0.1503  0.1634
 1300DPPI    C320423   4.874  17.717   5.617  0.0859  0.2035 -0.0153
 1300DPPI   PO420424   5.315  17.664   6.106  0.0654 -0.1888  0.0435
 1300DPPI   GL120425   5.326  17.410   6.446 -0.1496  0.0379 -0.1106
 1300DPPI   GL220426   5.006  17.209   6.387 -0.1370 -0.3504  0.1479
 1300DPPI   C1A20427   5.275  17.509   6.854  0.2834  0.2160  0.4090
 1300DPPI   C2A20428   5.405  17.447   7.355  0.3936 -0.0512 -0.3567
 1300DPPI   C3A20429   5.467  17.460   7.815 -0.2060  0.1617 -0.0780
 1300DPPI   C4A20430   5.397  17.358   8.195 -0.2209 -0.1130 -0.1316
 1300DPPI   C1B20431   4.916  17.197   6.807  0.0806 -0.0535  0.1360
 1300DPPI   C2B20432   4.944  17.159   7.350 -0.1210  0.1374 -0.2970
 1300DPPI   C3B20433   5.042  17.153   7.769 -0.2250  0.1926  0.0080
 1300DPPI   C4B20434   4.861  17.291   8.141 -0.0693  0.0236  0.0352
 1301DPPI    C120435  11.324   4.653   5.740 -0.0695 -0.0229 -0.2499
 1301DPPI    C220436  11.450   4.374   5.997 -0.0804  0.2118  0.0158
 1301DPPI    C320437  11.205   4.273   5.697 -0.0547 -0.0685  0.0856
 1301DPPI   PO420438  11.506   4.915   5.707  0.0984  0.1140  0.2277
 1301DPPI   GL120439  11.768   5.018   6.112 -0.0591  0.0162 -0.1111
 1301DPPI   GL220440  12.008   5.357   6.202 -0.0080 -0.1155 -0.1157
 1301DPPI   C1A20441  11.968   4.891   6.454 -0.0611  0.4671  0.0352
 1301DPPI   C2A20442  12.084   4.758   6.891 -0.0698 -0.3100  0.3150
 1301DPPI   C3A20443  12.120   4.847   7.328  0.1163  0.2907 -0.1345
 1301DPPI   C4A20444  12.026   4.801   7.835  0.0900 -0.0283 -0.0635
 1301DPPI   C1B20445  12.022   5.447   6.655  0.0988 -0.2825  0.0709
 1301DPPI   C2B20446  12.035   5.436   7.106  0.0439 -0.2234 -0.1034
 1301DPPI   C3B20447  12.121   5.306   7.497 -0.2403  0.1543  0.3105
 1301DPPI   C4B20448  12.251   5.322   7.915  0.2764  0.3398  0.0033
 1302DPPI    C120449   4.493  15.226   5.438  0.2411 -0.0339  0.3082
 1302DPPI    C220450   4.572  14.858   5.573  0.1775 -0.1653 -0.0021
 1302DPPI    C320451   4.745  14.989   5.237 -0.0344 -0.0251 -0.0584
 1302DPPI   PO420452   4.373  15.318   5.563 -0.2872  0.1005  0.0112
 1302DPPI   GL120453   4.312  15.185   6.024 -0.1294 -0.3291 -0.0937
 1302DPPI   GL220454   4.503  14.860   6.062  0.1576  0.0364  0.2041
 1302DPPI   C1A20455   4.271  15.074   6.403  0.2806 -0.0611 -0.4520
 1302DPPI   C2A20456   4.248  15.119   6.813  0.2211  0.2272  0.1323
 1302DPPI   C3A20457   4.218  15.113   7.240 -0.2919  0.1060  0.3011
 1302DPPI   C4A20458   4.237  15.118   7.632 -0.2299 -0.1630  0.0734
 1302DPPI   C1B20459   4.708  14.872   6.514 -0.0490  0.0947 -0.0826
 1302DPPI   C2B20460   4.783  14.885   6.987 -0.1103 -0.0119  0.3284
 1302DPPI   C3B20461   4.650  14.935   7.346  0.1145  0.1270 -0.1243
 1302DPPI   C4B20462   4.772  14.969   7.808 -0.1627 -0.4692  0.0877
 1303DPPI    C120463   5.895   5.481   6.090 -0.1230  0.2651  0.1490
 1303DPPI    C220464   5.775   5.739   5.808  0.1621  0.1884 -0.0469
 1303DPPI    C320465   6.152   5.750   5.942  0.1381 -0.0363  0.0437
 1303DPPI   PO420466   5.569   5.500   6.247 -0.1048  0.0984 -0.0216
 1303DPPI   GL120467   5.509   5.552   6.618 -0.0682 -0.5475  0.1889
 1303DPPI   GL220468   5.790   5.446   6.707 -0.1959 -0.2116 -0.3261
 1303DPPI   C1A20469   5.333   5.721   6.976 -0.1959  0.1433 -0.0041
 1303DPPI   C2A20470   5.090   5.581   7.374 -0.0186  0.2076 -0.3130
 1303DPPI   C3A20471   4.981   5.395   7.770  0.1518  0.0941 -0.0762
 1303DPPI   C4A20472   5.167   5.378   8.049 -0.0424  0.0563 -0.1049
 1303DPPI   C1B20473   5.616   5.356   7.109 -0.1479  0.1276  0.0543
 1303DPPI   C2B20474   5.511   5.382   7.592  0.0536  0.0662  0.0072
 1303DPPI   C3B20475   5.549   5.694   7.819 -0.3981 -0.2248  0.0010
 1303DPPI   C4B20476   5.533   6.154   8.005 -0.2529  0.0939 -0.3051
 1304DPPI    C120477  15.283   4.356   5.291  0.0208  0.0567  0.0182
 1304DPPI    C220478  15.324   4.072   5.012 -0.0164 -0.0149  0.0852
 1304DPPI    C320479  15.628   4.320   5.092  0.1327 -0.2480  0.2581
 1304DPPI   PO420480  15.202   4.260   5.492  0.0168  0.0301 -0.1282
 1304DPPI   GL120481  15.132   4.273   5.972 -0.0122  0.1046 -0.1798
 1304DPPI   GL220482  14.866   4.482   5.963 -0.0812 -0.1839  0.0262
 1304DPPI   C1A20483  15.249   4.126   6.306 -0.0953 -0.0314  0.0983
 1304DPPI   C2A20484  15.236   4.213   6.737 -0.1004 -0.0251 -0.1458
 1304DPPI   C3A20485  15.195   4.122   7.089  0.0805  0.4013 -0.0971
 1304DPPI   C4A20486  15.249   4.069   7.496  0.3209  0.1234  0.1223
 1304DPPI   C1B20487  14.799   4.390   6.405  0.0370  0.1647  0.1921
 1304DPPI   C2B20488  14.759   4.382   6.893  0.0746 -0.1757 -0.2273
 1304DPPI   C3B20489  14.711   4.233   7.323  0.1013 -0.0010  0.1393
 1304DPPI   C4B20490  14.665   4.245   7.823 -0.2043  0.1273 -0.1089
 1305DPPI    C120491   4.659  12.284   5.672  0.0188  0.0453 -0.0729
 1305DPPI    C220492   4.339  12.370   5.448 -0.0357  0.0996  0.0255
 1305DPPI    C320493   4.590  12.080   5.335  0.0432  0.2556 -0.2070
 1305DPPI   PO420494   4.558  12.250   5.876  0.0427 -0.0217  0.2018
 1305DPPI   GL120495   4.742  12.131   6.288 -0.0585 -0.3977  0.0817
 1305DPPI   GL220496   4.725  11.840   6.469  0.0915 -0.0670 -0.1686
 1305DPPI   C1A20497   4.734  12.359   6.652 -0.0226 -0.0005  0.0458
 1305DPPI   C2A20498   4.767  12.336   7.045  0.0775 -0.0317  0.4261
 1305DPPI   C3A20499   4.760  12.353   7.435 -0.1467 -0.0222 -0.2118
 1305DPPI   C4A20500   4.854  12.312   7.863 -0.0167  0.1968 -0.0160
 1305DPPI   C1B20501   4.806  11.849   6.861 -0.0659 -0.0414 -0.2678
 1305DPPI   C2B20502   4.797  11.869   7.288 -0.2111  0.0856 -0.1839
 1305DPPI   C3B20503   4.847  11.828   7.682  0.0605  0.0733  0.1174
 1305DPPI   C4B20504   4.840  11.808   8.101 -0.1542  0.3022 -0.1667
 1306DPPI    C120505  10.808   7.086   5.421  0.1109 -0.0622 -0.1553
 1306DPPI    C220506  10.654   7.408   5.240  0.2555  0.1117  0.0265
 1306DPPI    C320507  10.511   7.044   5.156 -0.0719  0.2436 -0.0046
 1306DPPI   PO420508  10.840   7.124   5.696 -0.1797 -0.0050 -0.0908
 1306DPPI   GL120509  10.738   7.199   6.050  0.1935  0.0370 -0.0201
 1306DPPI   GL220510  10.420   7.379   6.124 -0.4253 -0.0897 -0.1277
 1306DPPI   C1A20511  10.933   7.260   6.409 -0.0079 -0.0353 -0.0864
 1306DPPI   C2A20512  11.082   7.398   6.768 -0.1372 -0.0799  0.1020
 1306DPPI   C3A20513  11.133   7.394   7.252  0.0098  0.0233  0.1839
 1306DPPI   C4A20514  11.155   7.416   7.642  0.0630  0.2592  0.0398
 1306DPPI   C1B20515  10.525   7.547   6.479  0.1644  0.0605  0.0747
 1306DPPI   C2B20516  10.600   7.525   6.882 -0.3003  0.1208 -0.1115
 1306DPPI   C3B20517  10.657   7.553   7.366 -0.2903  0.0182 -0.0046
 1306DPPI   C4B20518  10.712   7.644   7.800 -0.0147  0.1076 -0.1457
 1307DPPI    C120519  12.104  17.250   5.399 -0.1648 -0.0579 -0.0998
 1307DPPI    C220520  12.053  17.582   5.182  0.0970 -0.0488 -0.1505
 1307DPPI    C320521  12.304  17.297   5.056 -0.0146 -0.2006 -0.0334
 1307DPPI   PO420522  12.053  17.378   5.634 -0.0391 -0.1124 -0.3409
 1307DPPI   GL120523  12.143  17.510   6.073 -0.1294 -0.0568 -0.1213
 1307DPPI   GL220524  11.949  17.665   6.249 -0.1457 -0.2373 -0.1889
 1307DPPI   C1A20525  12.232  17.441   6.569  0.3147  0.1193 -0.2611
 1307DPPI   C2A20526  12.242  17.468   7.062  0.0096  0.2104  0.0535
 1307DPPI   C3A20527  12.209  17.451   7.516  0.0882  0.0829 -0.1288
 1307DPPI   C4A20528  12.419  17.424   7.823 -0.3939 -0.0478  0.1427
 1307DPPI   C1B20529  11.810  17.729   6.641 -0.0893  0.0400  0.0256
 1307DPPI   C2B20530  11.818  17.757   7.025 -0.2053  0.1390 -0.3318
 1307DPPI   C3B20531  11.787  17.737   7.446  0.1256 -0.4634  0.1652
 1307DPPI   C4B20532  11.802  17.683   7.819  0.0244 -0.1577 -0.0642
 1308PYPI    C120533   7.388   1.762   5.761 -0.0745  0.0697 -0.4627
 1308PYPI    C220534   6.999   1.854   5.769 -0.0764  0.0546  0.1888
 1308PYPI    C320535   7.122   1.497   5.900  0.1601  0.0601 -0.0113
 1308PYPI   PO420536   7.477   2.028   5.847  0.2680 -0.1453 -0.0897
 1308PYPI   GL120537   7.731   2.157   6.262  0.0815 -0.0690  0.0415
 1308PYPI   GL220538   7.561   2.454   6.346  0.1097  0.0604 -0.0609
 1308PYPI   C1A20539   7.662   2.069   6.732  0.2248 -0.2312  0.0090
 1308PYPI   C2A20540   7.754   2.184   7.158 -0.0332  0.2607 -0.1462
 1308PYPI   D3A20541   7.992   2.450   7.328 -0.1607 -0.2910 -0.0731
 1308PYPI   C4A20542   8.389   2.569   7.033  0.2185 -0.1936 -0.2239
 1308PYPI   C1B20543   7.898   2.542   6.747 -0.0140 -0.1035 -0.0526
 1308PYPI   C2B20544   8.171   2.139   6.851  0.1819  0.1375 -0.2819
 1308PYPI   C3B20545   8.038   1.662   6.916 -0.1323  0.0739  0.0373
 1308PYPI   C4B20546   7.875   1.370   7.063 -0.3204  0.0758  0.3286
 1309PYPI    C120547   1.970   3.153   5.857  0.0691  0.1148 -0.1643
 1309PYPI    C220548   2.096   2.913   5.563  0.3731  0.2474 -0.1463
 1309PYPI    C320549   1.846   3.214   5.481 -0.0339 -0.0846 -0.1643
 1309PYPI   PO420550   2.118   3.134   6.068 -0.0619 -0.1287  0.1050
 1309PYPI   GL120551   2.241   2.985   6.305  0.1389 -0.1789 -0.1966
 1309PYPI   GL220552   2.380   2.653   6.367 -0.2950 -0.3349 -0.1891
 1309PYPI   C1A20553   2.323   3.056   6.721  0.0057 -0.1019 -0.0885
 1309PYPI   C2A20554   2.308   2.988   7.167 -0.0496 -0.0469 -0.1205
 1309PYPI   D3A20555   2.472   3.002   7.513  0.0336 -0.0122 -0.1901
 1309PYPI   C4A20556   2.850   3.263   7.495 -0.1797  0.1640 -0.3251
 1309PYPI   C1B20557   2.332   2.496   6.829  0.3593  0.0979  0.1993
 1309PYPI   C2B20558   2.353   2.496   7.266  0.1148 -0.0253 -0.0922
 1309PYPI   C3B20559   2.301   2.413   7.633  0.0465 -0.0400  0.0660
 1309PYPI   C4B20560   2.451   2.578   8.016  0.1407 -0.1671  0.0830
 1310PYPI    C120561  10.558  14.551   5.294  0.0181  0.5167 -0.0534
 1310PYPI    C220562  10.206  14.387   5.198  0.2823 -0.0531 -0.0898
 1310PYPI    C320563  10.419  14.581   4.920  0.2276 -0.1477 -0.1984
 1310PYPI   PO420564  10.739  14.387   5.389  0.1179  0.0723  0.1197
 1310PYPI   GL120565  10.787  14.352   5.834  0.0133 -0.0680 -0.1529
 1310PYPI   GL220566  10.515  14.581   5.819  0.0332 -0.0663  0.0996
 1310PYPI   C1A20567  10.833  14.119   6.326  0.1740 -0.0065  0.2961
 1310PYPI   C2A20568  10.964  14.176   6.755 -0.1444 -0.3714 -0.1765
 1310PYPI   D3A20569  11.010  13.999   7.164 -0.1035 -0.2031 -0.4823
 1310PYPI   C4A20570  11.040  13.953   7.586 -0.2351  0.1014  0.1181
 1310PYPI   C1B20571  10.420  14.371   6.225 -0.0863  0.0406  0.0279
 1310PYPI   C2B20572  10.411  14.307   6.743 -0.1916 -0.2550  0.2464
 1310PYPI   C3B20573  10.590  14.334   7.088  0.4213 -0.0791 -0.1668
 1310PYPI   C4B20574  10.575  14.276   7.526 -0.2206 -0.0869  0.1151
 1311PYPI    C120575   3.539  10.662   5.518  0.0055  0.0893 -0.0839
 1311PYPI    C220576   3.753  10.999   5.539  0.0070  0.0832  0.0006
 1311PYPI    C320577   3.896  10.683   5.338  0.0940  0.0669  0.0875
 1311PYPI   PO420578   3.471  10.695   5.814  0.0929 -0.1149 -0.1037
 1311PYPI   GL120579   3.088  10.870   6.093 -0.3050  0.0249  0.1193
 1311PYPI   GL220580   2.971  10.626   6.243  0.2351 -0.0244  0.2055
 1311PYPI   C1A20581   3.004  11.175   6.420  0.4937  0.1084  0.1208
 1311PYPI   C2A20582   3.041  11.199   6.835  0.0624  0.1251  0.0609
 1311PYPI   D3A20583   3.084  11.256   7.249 -0.2564  0.0651  0.1997
 1311PYPI   C4A20584   2.993  11.251   7.643  0.1553  0.5289 -0.0737
 1311PYPI   C1B20585   2.999  10.570   6.702  0.0180 -0.2429 -0.1291
 1311PYPI   C2B20586   3.052  10.626   7.198  0.1027  0.1454  0.1980
 1311PYPI   C3B20587   3.086  10.751   7.617  0.1825 -0.0486  0.0451
 1311PYPI   C4B20588   3.087  10.941   8.109  0.0206  0.3102  0.0097
 1312PYPI    C120589   5.820   3.381   6.471 -0.1343 -0.2687  0.0275
 1312PYPI    C220590   6.126   3.592   6.619 -0.3605 -0.0532  0.1949
 1312PYPI    C320591   6.176   3.373   6.288 -0.0667  0.0985  0.1359
 1312PYPI   PO420592   5.706   3.215   6.627  0.1463 -0.2413 -0.2375
 1312PYPI   GL120593   5.931   3.208   7.028 -0.3294  0.2679 -0.2146
 1312PYPI   GL220594   6.179   3.124   6.741  0.0506 -0.2162 -0.1139
 1312PYPI   C1A20595   6.020   3.199   7.442 -0.1743  0.2340  0.0793
 1312PYPI   C2A20596   6.200   3.462   7.579 -0.0959 -0.4133  0.1531
 1312PYPI   D3A20597   6.390   3.845   7.584  0.0360  0.1274  0.0135
 1312PYPI   C4A20598   6.809   3.903   7.521 -0.0685  0.1775 -0.1153
 1312PYPI   C1B20599   6.403   3.170   7.165 -0.1670 -0.2825  0.0641
 1312PYPI   C2B20600   6.428   2.936   7.562 -0.0992 -0.0623 -0.3558
 1312PYPI   C3B20601   6.637   2.849   8.015  0.3597 -0.0923  0.0775
 1312PYPI   C4B20602   6.987   2.619   8.190  0.0566 -0.1245  0.2844
 1313PYPI    C120603  14.226   5.517   5.090  0.1253  0.2242  0.2180
 1313PYPI    C220604  14.397   5.189   4.937 -0.0013  0.1992  0.1275
 1313PYPI    C320605  14.173   5.425   4.704 -0.0066  0.2869  0.2204
 1313PYPI   PO420606  14.200   5.451   5.408 -0.0419  0.0439  0.0238
 1313PYPI   GL120607  14.232   5.264   5.749 -0.0059 -0.0543 -0.0401
 1313PYPI   GL220608  14.487   5.457   5.815  0.0239 -0.2049 -0.2060
 1313PYPI   C1A20609  14.130   5.080   6.061 -0.0527  0.4020 -0.1748
 1313PYPI   C2A20610  14.315   5.061   6.431 -0.3245 -0.2177  0.0014
 1313PYPI   D3A20611  14.184   5.121   6.829  0.1842 -0.1887  0.0022
 1313PYPI   C4A20612  14.326   5.088   7.262 -0.3072 -0.1514  0.0652
 1313PYPI   C1B20613  14.255   5.576   6.124  0.2276 -0.0544 -0.0084
 1313PYPI   C2B20614  14.258   5.630   6.667  0.1886  0.3095  0.0318
 1313PYPI   C3B20615  14.321   5.608   7.074  0.1589 -0.1061  0.0750
 1313PYPI   C4B20616  14.372   5.655   7.536  0.1217  0.1624  0.1265
 1314ERGO   ROH20617   8.826   9.663   6.130 -0.1353 -0.2228 -0.1107
 1314ERGO    R120618   8.847   9.716   6.407 -0.0104 -0.1850 -0.1259
 1314ERGO    R220619   8.626   9.728   6.573  0.0518 -0.0437 -0.0472
 1314ERGO    R320620   8.763   9.542   6.716  0.0088 -0.0906 -0.0679
 1314ERGO    R420621   8.667   9.733   6.916  0.1617 -0.0274 -0.0608
 1314ERGO    R520622   8.873   9.667   6.887  0.1200 -0.1256 -0.1159
 1314ERGO    C120623   8.820   9.561   7.250  0.1854 -0.0619 -0.0882
 1314ERGO    C220624   8.759   9.567   7.545  0.3031 -0.0074  0.0179
 1315ERGO   ROH20625   3.950   0.855   6.585  0.1206  0.0155  0.0586
 1315ERGO    R120626   3.864   0.759   6.838  0.2430 -0.0959  0.0599
 1315ERGO    R220627   4.034   0.737   7.054  0.2576  0.2099  0.0860
 1315ERGO    R320628   3.845   0.890   7.177 -0.0123 -0.0790  0.0406
 1315ERGO    R420629   3.985   0.754   7.396  0.2454  0.2473  0.0822
 1315ERGO    R520630   3.770   0.755   7.360  0.2365 -0.1496  0.0926
 1315ERGO    C120631   3.779   0.907   7.710 -0.0151 -0.0022  0.0372
 1315ERGO    C220632   3.950   1.014   8.020 -0.0837 -0.2998 -0.1389
 1316ERGO   ROH20633  12.553   5.039   6.171 -0.1526  0.2348  0.0592
 1316ERGO    R120634  12.560   5.169   6.422 -0.3827  0.0722  0.1527
 1316ERGO    R220635  12.372   5.123   6.618 -0.2616 -0.4687  0.1568
 1316ERGO    R320636  12.590   5.069   6.771 -0.1129 -0.1242  0.0766
 1316ERGO    R420637  12.376   5.120   6.964 -0.0853 -0.3085  0.1583
 1316ERGO    R520638  12.571   5.217   6.958 -0.2077 -0.0621  0.0184
 1316ERGO    C120639  12.583   5.067   7.308  0.1569  0.1082  0.0838
 1316ERGO    C220640  12.623   5.116   7.667  0.0328 -0.0037  0.2642
 1317ERGO   ROH20641  12.264  12.368   6.056  0.3105  0.1981  0.0550
 1317ERGO    R120642  12.231  12.265   6.317  0.0985  0.1452  0.0107
 1317ERGO    R220643  12.441  12.240   6.496 -0.0081 -0.0521  0.1233
 1317ERGO    R320644  12.279  12.387   6.657  0.0037  0.0190  0.0681
 1317ERGO    R420645  12.443  12.229   6.841 -0.2589 -0.1769  0.1212
 1317ERGO    R520646  12.225  12.240   6.837 -0.2426  0.0023 -0.0224
 1317ERGO    C120647  12.291  12.360   7.193 -0.3940 -0.1827  0.0680
 1317ERGO    C220648  12.405  12.326   7.537  0.1612  0.0024 -0.0600
 1318ERGO   ROH20649   9.651   1.316   5.889  0.0632  0.0903 -0.1400
 1318ERGO    R120650   9.701   1.433   6.142 -0.0927  0.1117 -0.1185
 1318ERGO    R220651   9.586   1.338   6.375 -0.1195  0.0370 -0.1617
 1318ERGO    R320652   9.845   1.326   6.459 -0.1400  0.1846 -0.0724
 1318ERGO    R420653   9.686   1.282   6.701 -0.1956  0.1009 -0.1268
 1318ERGO    R520654   9.842   1.431   6.674 -0.2707  0.1882 -0.0758
 1318ERGO    C120655   9.986   1.238   6.970 -0.2591  0.2767 -0.0227
 1318ERGO    C220656   9.980   1.217   7.253 -0.0740 -0.2918  0.0860
 1319ERGO   ROH20657   6.353   1.066   6.488  0.0092 -0.0105  0.2230
 1319ERGO    R120658   6.388   0.955   6.746  0.3124  0.1583  0.2594
 1319ERGO    R220659   6.515   1.090   6.951 -0.0450  0.5766  0.2192
 1319ERGO    R320660   6.286   1.036   7.086  0.0842 -0.0055  0.2320
 1319ERGO    R420661   6.468   1.142   7.289 -0.1822  0.5307  0.2078
 1319ERGO    R520662   6.359   0.954   7.298  0.3105  0.2318  0.2505
 1319ERGO    C120663   6.224   1.122   7.613 -0.1408 -0.0426  0.2130
 1319ERGO    C220664   6.164   1.277   7.993  0.0137  0.0917  0.1201
 1320ERGO   ROH20665  10.123   9.891   5.981  0.0303 -0.1345  0.1879
 1320ERGO    R120666  10.224   9.958   6.237 -0.1208  0.0450  0.2028
 1320ERGO    R220667  10.063  10.055   6.440 -0.3194 -0.2129  0.1719
 1320ERGO    R320668  10.170   9.848   6.579  0.0051 -0.0342  0.1990
 1320ERGO    R420669  10.052  10.022   6.783 -0.5605 -0.3297  0.1542
 1320ERGO    R520670  10.257   9.949   6.778 -0.3843  0.1066  0.3104
 1320ERGO    C120671  10.145   9.808   7.115 -0.3963 -0.2299  0.1692
 1320ERGO    C220672  10.160   9.827   7.469  0.1730 -0.1464 -0.1226
 1321ERGO   ROH20673  13.941   1.499   6.212  0.1905  0.0218 -0.1295
 1321ERGO    R120674  14.036   1.623   6.448  0.0859  0.0775 -0.1164
 1321ERGO    R220675  13.880   1.795   6.599 -0.0496 -0.0439 -0.1160
 1321ERGO    R320676  13.945   1.625   6.800  0.0621 -0.0095 -0.1216
 1321ERGO    R420677  13.891   1.880   6.933 -0.4800 -0.1384 -0.0723
 1321ERGO    R520678  14.071   1.759   6.954 -0.2893  0.1521  0.0365
 1321ERGO    C120679  13.958   1.770   7.318 -0.6257 -0.1611 -0.0522
 1321ERGO    C220680  13.976   1.667   7.640  0.1236 -0.0093 -0.2415
 1322ERGO   ROH20681   5.165   4.644   6.832  0.2879  0.0910  0.0187
 1322ERGO    R120682   5.139   4.634   7.113  0.1235  0.0951  0.0039
 1322ERGO    R220683   5.072   4.402   7.249  0.2421  0.0533 -0.0196
 1322ERGO    R320684   5.299   4.456   7.387  0.1092  0.2601  0.1238
 1322ERGO    R420685   5.174   4.237   7.534  0.2143  0.1116  0.0244
 1322ERGO    R520686   5.238   4.428   7.617 -0.0158  0.1750  0.0874
 1322ERGO    C120687   5.447   4.191   7.831  0.0735  0.3396  0.1847
 1322ERGO    C220688   5.506   3.950   8.011 -0.2001  0.0195 -0.0781
 1323ERGO   ROH20689   8.321  10.541   6.144 -0.1802 -0.1633 -0.0580
 1323ERGO    R120690   8.403  10.685   6.373 -0.0380 -0.2258 -0.0689
 1323ERGO    R220691   8.227  10.830   6.529  0.1036 -0.0358 -0.0814
 1323ERGO    R320692   8.329  10.678   6.730 -0.0488 -0.1246 -0.0692
 1323ERGO    R420693   8.231  10.920   6.863  0.0337 -0.0976 -0.0633
 1323ERGO    R520694   8.432  10.835   6.878 -0.0172 -0.2061 -0.0052
 1323ERGO    C120695   8.331  10.829   7.246 -0.1501 -0.2170 -0.0413
 1323ERGO    C220696   8.358  10.860   7.681 -0.0790  0.1363  0.5430
 1324ERGO   ROH20697  14.878  15.995   6.175 -0.3047 -0.1070  0.0956
 1324ERGO    R120698  15.035  15.947   6.405 -0.2230 -0.1461  0.0320
 1324ERGO    R220699  15.066  16.135   6.606  0.0512 -0.0831 -0.0644
 1324ERGO    R320700  14.980  15.933   6.764 -0.0469  0.0605  0.0692
 1324ERGO    R420701  15.104  16.124   6.949  0.0809  0.0998 -0.0601
 1324ERGO    R520702  15.150  15.912   6.932 -0.0418  0.0635  0.0627
 1324ERGO    C120703  15.044  15.927   7.298  0.0060  0.3412  0.0677
 1324ERGO    C220704  14.954  15.912   7.650  0.1605  0.3459  0.0436
 1325ERGO   ROH20705   2.298  16.282   6.446  0.0967  0.0580 -0.0831
 1325ERGO    R120706   2.301  16.259   6.728  0.0299  0.0231 -0.0842
 1325ERGO    R220707   2.320  16.478   6.895 -0.0282  0.0060 -0.0498
 1325ERGO    R320708   2.095  16.373   7.005 -0.0476 -0.0268 -0.1221
 1325ERGO    R420709   2.245  16.481   7.233 -0.0145 -0.2451 -0.0435
 1325ERGO    R520710   2.169  16.278   7.212 -0.0637 -0.2091 -0.2006
 1325ERGO    C120711   1.990  16.383   7.532 -0.0246 -0.4222 -0.1076
 1325ERGO    C220712   1.850  16.478   7.964 -0.3467  0.3914  0.0576
 1326ERGO   ROH20713  16.556  12.592   5.983 -0.0286  0.1599  0.1138
 1326ERGO    R120714  16.559  12.717   6.237 -0.0710  0.1388  0.1262
 1326ERGO    R220715  16.341  12.712   6.408 -0.0542  0.0023  0.1550
 1326ERGO    R320716  16.523  12.613   6.584  0.0237  0.0834  0.1176
 1326ERGO    R420717  16.301  12.706   6.751  0.0192 -0.0312  0.1619
 1326ERGO    R520718  16.511  12.761   6.771 -0.0084  0.0656  0.1240
 1326ERGO    C120719  16.449  12.610   7.116  0.1351  0.0252  0.1307
 1326ERGO    C220720  16.359  12.632   7.395  0.1723 -0.2002  0.0077
 1327ERGO   ROH20721   2.857   5.211   6.309 -0.3537 -0.1047 -0.0341
 1327ERGO    R120722   2.865   5.283   6.582 -0.3449  0.0091 -0.0640
 1327ERGO    R220723   2.655   5.234   6.755 -0.2370 -0.1592  0.0213
 1327ERGO    R320724   2.847   5.111   6.902 -0.0491  0.1091  0.0097
 1327ERGO    R420725   2.636   5.175   7.095 -0.0658 -0.0612  0.0496
 1327ERGO    R520726   2.847   5.228   7.111 -0.1176  0.1845 -0.0321
 1327ERGO    C120727   2.805   5.024   7.431  0.2103  0.2477  0.0552
 1327ERGO    C220728   2.856   4.867   7.796  0.1838 -0.2054  0.0381
 1328ERGO   ROH20729   5.933  12.143   6.345 -0.2232  0.2979  0.0265
 1328ERGO    R120730   6.102  12.126   6.571 -0.0219  0.3427 -0.1181
 1328ERGO    R220731   6.089  12.306   6.779 -0.0408  0.2121 -0.0093
 1328ERGO    R320732   6.060  12.081   6.930  0.3137  0.0962 -0.1038
 1328ERGO    R420733   6.125  12.294   7.123 -0.0259  0.1337 -0.0133
 1328ERGO    R520734   6.228  12.103   7.100  0.2847  0.2991 -0.0934
 1328ERGO    C120735   6.118  12.076   7.465  0.3155 -0.0209 -0.1044
 1328ERGO    C220736   6.231  12.086   7.756  0.3377 -0.0141 -0.3823
 1329ERGO   ROH20737   0.821   1.802   6.063  0.0600  0.0910 -0.0361
 1329ERGO    R120738   0.747   1.921   6.309  0.3166  0.0441  0.0649
 1329ERGO    R220739   0.533   1.833   6.459  0.0535  0.4394 -0.0721
 1329ERGO    R320740   0.720   1.816   6.656 -0.0195 -0.2310 -0.0380
 1329ERGO    R420741   0.475   1.906   6.792  0.2589  0.7961 -0.1085
 1329ERGO    R520742   0.671   2.001   6.800  0.6720  0.0443 -0.1135
 1329ERGO    C120743   0.617   1.932   7.171  0.3099  0.3744 -0.0976
 1329ERGO    C220744   0.572   1.812   7.524  0.1600 -0.2966  0.0665
 1330ERGO   ROH20745   0.838   9.462   6.073  0.0326 -0.2254 -0.0589
 1330ERGO    R120746   0.721   9.455   6.331 -0.0614 -0.2940 -0.1032
 1330ERGO    R220747   0.732   9.232   6.493  0.2267 -0.2088 -0.0020
 1330ERGO    R320748   0.837   9.407   6.673 -0.1188  0.0404 -0.0327
 1330ERGO    R420749   0.781   9.166   6.829  0.4478 -0.0937 -0.0092
 1330ERGO    R520750   0.713   9.368   6.874  0.0039 -0.2310 -0.0039
 1330ERGO    C120751   0.908   9.292   7.193  0.2523  0.2070 -0.0423
 1330ERGO    C220752   0.848   9.325   7.475 -0.0784  0.1975  0.0013
 1331ERGO   ROH20753  17.512   3.638   6.086 -0.1025 -0.1869  0.0011
 1331ERGO    R120754  17.612   3.742   6.330 -0.0969 -0.1089 -0.0343
 1331ERGO    R220755  17.485   3.943   6.470 -0.0551 -0.0143 -0.1332
 1331ERGO    R320756  17.496   3.765   6.675 -0.1219  0.0703 -0.0537
 1331ERGO    R420757  17.433   4.020   6.803 -0.2069  0.1147 -0.1843
 1331ERGO    R520758  17.597   3.886   6.855 -0.2131  0.1546 -0.0589
 1331ERGO    C120759  17.414   3.897   7.189 -0.3579  0.2692 -0.1396
 1331ERGO    C220760  17.516   3.815   7.419 -0.0089  0.0160 -0.0446
 1332ERGO   ROH20761   2.821   4.252   6.778 -0.0930  0.0373  0.2295
 1332ERGO    R120762   2.767   4.159   7.040  0.0336  0.1382  0.2919
 1332ERGO    R220763   2.733   3.891   7.098 -0.2677  0.1892  0.3500
 1332ERGO    R320764   2.929   3.938   7.280 -0.0253 -0.0522  0.1606
 1332ERGO    R420765   2.754   3.743   7.410 -0.2432  0.2788  0.3916
 1332ERGO    R520766   2.817   3.935   7.491  0.1438  0.2189  0.2627
 1332ERGO    C120767   2.951   3.702   7.762 -0.0013  0.1045  0.2380
 1332ERGO    C220768   3.009   3.777   8.098  0.0377 -0.2017  0.0549
 1333ERGO   ROH20769   2.493  10.824   6.350 -0.0070 -0.0179  0.0327
 1333ERGO    R120770   2.609  10.869   6.605  0.0671  0.0160 -0.0065
 1333ERGO    R220771   2.535  11.081   6.766  0.0877  0.0168  0.0025
 1333ERGO    R320772   2.492  10.885   6.949  0.1734  0.0230  0.0295
 1333ERGO    R420773   2.573  11.118   7.107  0.0574  0.0846 -0.0013
 1333ERGO    R520774   2.662  10.919   7.114  0.1511  0.1274  0.0314
 1333ERGO    C120775   2.554  10.955   7.478  0.1201  0.1298  0.0219
 1333ERGO    C220776   2.612  10.999   7.798  0.2119 -0.4698  0.1379
 1334ERGO   ROH20777  16.748   2.260   6.276 -0.1059 -0.0249  0.0042
 1334ERGO    R120778  16.759   2.399   6.522 -0.0661 -0.0311  0.0063
 1334ERGO    R220779  16.546   2.405   6.699 -0.0280 -0.0572  0.0531
 1334ERGO    R320780  16.732   2.314   6.875  0.0190 -0.0439  0.0102
 1334ERGO    R420781  16.501   2.386   7.041  0.0209 -0.1278  0.0552
 1334ERGO    R520782  16.706   2.455   7.067  0.0097 -0.0826  0.0387
 1334ERGO    C120783  16.649   2.288   7.405  0.0936 -0.1564  0.0162
 1334ERGO    C220784  16.649   2.257   7.708 -0.2020  0.0537  0.0464
 1335ERGO   ROH20785  10.933   6.666   6.092 -0.0092  0.0976 -0.0108
 1335ERGO    R120786  10.911   6.802   6.339 -0.1015  0.0601  0.0039
 1335ERGO    R220787  10.820   6.680   6.569 -0.0085 -0.0301  0.0016
 1335ERGO    R320788  11.055   6.772   6.672 -0.0680  0.1286 -0.0062
 1335ERGO    R420789  10.889   6.708   6.906  0.0805 -0.2150 -0.0010
 1335ERGO    R520790  10.989   6.898   6.865 -0.1274 -0.0854  0.1110
 1335ERGO    C120791  11.150   6.811   7.199  0.0766 -0.1738 -0.0099
 1335ERGO    C220792  11.148   6.900   7.540  0.1122 -0.0192  0.0345
 1336ERGO   ROH20793   1.692  13.192   6.170 -0.0465 -0.1593  0.0042
 1336ERGO    R120794   1.654  13.007   6.382 -0.0935 -0.1127  0.0376
 1336ERGO    R220795   1.838  12.976   6.587 -0.0910 -0.1359  0.0356
 1336ERGO    R320796   1.621  13.023   6.744 -0.0694 -0.0392  0.0359
 1336ERGO    R420797   1.846  13.006   6.931 -0.0661 -0.0179  0.0246
 1336ERGO    R520798   1.660  12.893   6.941 -0.0847  0.0239  0.0777
 1336ERGO    C120799   1.647  13.069   7.279 -0.0313  0.1418  0.0184
 1336ERGO    C220800   1.638  13.026   7.615 -0.0461 -0.0184  0.1521
 1337ERGO   ROH20801   2.061   4.422   6.530  0.0819 -0.2314  0.1885
 1337ERGO    R120802   2.042   4.601   6.748  0.2252 -0.2507  0.2156
 1337ERGO    R220803   1.803   4.654   6.877  0.2035  0.1705  0.0035
 1337ERGO    R320804   1.945   4.582   7.098 -0.1361 -0.1570  0.1268
 1337ERGO    R420805   1.723   4.745   7.201  0.0801  0.2967 -0.0605
 1337ERGO    R520806   1.935   4.775   7.240  0.1263 -0.1422  0.1391
 1337ERGO    C120807   1.808   4.730   7.597 -0.3106  0.0627  0.0180
 1337ERGO    C220808   1.924   4.733   7.814  0.0304 -0.0846 -0.0639
 1338ERGO   ROH20809  12.299  16.085   6.253 -0.0437 -0.1608 -0.1020
 1338ERGO    R120810  12.194  16.027   6.510 -0.0327 -0.1636 -0.0998
 1338ERGO    R220811  12.286  15.817   6.664  0.0522 -0.0903 -0.0627
 1338ERGO    R320812  12.323  16.012   6.850 -0.0504 -0.0465 -0.0853
 1338ERGO    R420813  12.339  15.761   7.001  0.3673 -0.0487 -0.1008
 1338ERGO    R520814  12.209  15.931   7.044  0.1837 -0.2012 -0.0020
 1338ERGO    C120815  12.404  15.912   7.371  0.4544  0.0167 -0.1443
 1338ERGO    C220816  12.348  15.909   7.683  0.2225 -0.3683 -0.0940
 1339ERGO   ROH20817   8.352   3.363   6.991  0.1411 -0.2958 -0.2094
 1339ERGO    R120818   8.469   3.166   7.157  0.0408 -0.0990  0.1045
 1339ERGO    R220819   8.495   3.197   7.430 -0.3709  0.1190  0.1269
 1339ERGO    R320820   8.363   2.959   7.437 -0.2238  0.0360  0.1065
 1339ERGO    R420821   8.529   2.960   7.679 -0.3087  0.1658  0.1633
 1339ERGO    R520822   8.524   2.805   7.525 -0.1578  0.1457  0.1786
 1339ERGO    C120823   8.425   2.598   7.830 -0.1345  0.1152  0.1652
 1339ERGO    C220824   8.318   2.461   8.117 -0.5206 -0.0227 -0.2948
 1340ERGO   ROH20825  10.507  15.149   5.979  0.0073 -0.0528 -0.0084
 1340ERGO    R120826  10.558  15.272   6.228  0.0538 -0.0143 -0.0368
 1340ERGO    R220827  10.360  15.390   6.380  0.0654 -0.0789  0.0282
 1340ERGO    R320828  10.454  15.224   6.573  0.2012 -0.0285  0.0068
 1340ERGO    R420829  10.390  15.473   6.714  0.0013 -0.0930  0.0375
 1340ERGO    R520830  10.580  15.367   6.718  0.0888  0.0578  0.0223
 1340ERGO    C120831  10.495  15.366   7.090  0.0914 -0.0538  0.0228
 1340ERGO    C220832  10.528  15.300   7.414 -0.1414  0.2275  0.1535
 1341ERGO   ROH20833   6.354  12.296   6.226  0.3507  0.0541 -0.0920
 1341ERGO    R120834   6.526  12.321   6.450  0.3027 -0.3210 -0.0090
 1341ERGO    R220835   6.487  12.512   6.646  0.6730 -0.1676 -0.0859
 1341ERGO    R320836   6.493  12.296   6.812  0.0459 -0.1535 -0.0159
 1341ERGO    R420837   6.518  12.527   6.990  0.6775 -0.1396 -0.0860
 1341ERGO    R520838   6.652  12.355   6.981  0.2095 -0.5376 -0.0180
 1341ERGO    C120839   6.543  12.334   7.345  0.0915 -0.1099 -0.0203
 1341ERGO    C220840   6.567  12.388   7.668  0.2812 -0.0593  0.1269
 1342ERGO   ROH20841   7.890   0.917   6.328  0.0370  0.3595  0.2356
 1342ERGO    R120842   8.000   0.875   6.585 -0.0203  0.1699  0.2295
 1342ERGO    R220843   7.873   0.954   6.817 -0.0314  0.0738  0.2523
 1342ERGO    R320844   7.907   0.693   6.887 -0.1291  0.0208  0.1087
 1342ERGO    R420845   7.841   0.829   7.138  0.1754 -0.0370  0.2319
 1342ERGO    R520846   8.014   0.702   7.101  0.0696 -0.1319  0.0221
 1342ERGO    C120847   7.855   0.512   7.390  0.2042 -0.1512  0.0852
 1342ERGO    C220848   7.744   0.418   7.756 -0.1053 -0.2114 -0.0703
 1343ERGO   ROH20849   7.093  17.553   6.395  0.0209 -0.1672 -0.2055
 1343ERGO    R120850   7.199  17.514   6.654 -0.0579 -0.1523 -0.1705
 1343ERGO    R220851   7.320  17.716   6.798  0.0173 -0.1747 -0.1982
 1343ERGO    R320852   7.138  17.646   6.988 -0.0644 -0.0280 -0.2211
 1343ERGO    R420853   7.384  17.700   7.137 -0.0644 -0.1540 -0.1817
 1343ERGO    R520854   7.264  17.519   7.146 -0.1775 -0.0768 -0.1720
 1343ERGO    C120855   7.251  17.625   7.513 -0.1886 -0.0041 -0.1936
 1343ERGO    C220856   7.273  17.547   7.911  0.0091  0.0936  0.0654
 1344ERGO   ROH20857  14.478   8.494   5.997  0.1646 -0.1352  0.0200
 1344ERGO    R120858  14.628   8.491   6.237  0.0861  0.0420  0.0742
 1344ERGO    R220859  14.593   8.678   6.437 -0.1322  0.0659  0.0220
 1344ERGO    R320860  14.558   8.457   6.593 -0.0132  0.0718  0.0562
 1344ERGO    R420861  14.651   8.666   6.778 -0.1271  0.1437  0.0231
 1344ERGO    R520862  14.738   8.467   6.750 -0.0221  0.1896  0.0547
 1344ERGO    C120863  14.652   8.452   7.122 -0.0123  0.1945  0.0559
 1344ERGO    C220864  14.716   8.511   7.389 -0.0851  0.0459 -0.2297
 1345ERGO   ROH20865  13.715  10.752   5.841 -0.0680  0.0052  0.0586
 1345ERGO    R120866  13.665  10.616   6.085 -0.0026  0.0443  0.0919
 1345ERGO    R220867  13.869  10.519   6.245  0.0350  0.0472  0.0321
 1345ERGO    R320868  13.745  10.667   6.436  0.1156  0.0798  0.0629
 1345ERGO    R420869  13.867  10.446   6.583 -0.1522 -0.1338 -0.0039
 1345ERGO    R520870  13.659  10.506   6.591 -0.1040  0.0768 -0.0499
 1345ERGO    C120871  13.750  10.543   6.959 -0.1858 -0.2085  0.0039
 1345ERGO    C220872  13.812  10.493   7.386  0.0774 -0.0530 -0.0987
 1346ERGO   ROH20873  14.995   0.841   6.351 -0.0844  0.2559  0.2185
 1346ERGO    R120874  15.194   0.752   6.532 -0.0316  0.1375  0.1050
 1346ERGO    R220875  15.358   0.927   6.670  0.0854  0.0455  0.0899
 1346ERGO    R320876  15.265   0.792   6.887  0.1346  0.0073  0.0864
 1346ERGO    R420877  15.454   0.987   6.997  0.0503  0.0784  0.0936
 1346ERGO    R520878  15.456   0.772   7.031  0.1356  0.0816  0.0918
 1346ERGO    C120879  15.423   0.895   7.390  0.0761  0.0617  0.0926
 1346ERGO    C220880  15.469   0.809   7.708  0.0561  0.0022 -0.0471
 1347W        W20881   7.547  10.226  13.087 -0.0655 -0.2670  0.4325
 1348W        W20882   0.725   8.274   0.062 -0.1503  0.0714 -0.1243
 1349W        W20883  12.308   8.090  15.839  0.0366  0.0225 -0.2403
 1350W        W20884   1.436   0.812  16.118 -0.1661 -0.2754  0.0533
 1351W        W20885   4.554  17.561   4.072  0.0210  0.1683 -0.1109
 1352W        W20886  11.220   2.917  16.388  0.2647 -0.1034 -0.3966
 1353W        W20887  12.130   6.487  15.926  0.0219 -0.3009 -0.1228
 1354W        W20888  11.295   5.356  12.132  0.0842 -0.1356 -0.1632
 1355W        W20889   7.480   8.816  13.874  0.2249 -0.0798 -0.0024
 1356W        W20890  15.765  12.406   3.294 -0.0283 -0.0516  0.3145
 1357W        W20891  12.282   2.173  16.518 -0.2018  0.0538 -0.3452
 1358W        W20892  13.943   6.323   4.836  0.0200 -0.1449 -0.2627
 1359W        W20893  15.754   2.282  15.222  0.2154 -0.1294  0.1530
 1360W        W20894  15.660   3.593   2.495 -0.1179  0.0070  0.1409
 1361W        W20895   6.755  14.885  12.415 -0.1880  0.0394 -0.1759
 1362W        W20896  15.893  11.541  13.137  0.3559  0.0136 -0.0334
 1363W        W20897   4.232   2.073  11.755  0.1817  0.0798  0.0666
 1364W        W20898   9.892  15.914   4.056 -0.0133  0.2606 -0.2480
 1365W        W20899  11.436   1.975   3.375 -0.2952 -0.1401  0.4089
 1366W        W20900   9.091   7.725   4.983  0.2256 -0.0267 -0.1412
 1367W        W20901  13.471   1.070  12.619 -0.2390 -0.0178  0.0646
 1368W        W20902  16.172   8.672   1.589  0.1051  0.0632 -0.0275
 1369W        W20903   5.054  13.118  15.339  0.2238  0.1952  0.3172
 1370W        W20904  13.049  13.277   1.520  0.1551 -0.2871  0.0299
 1371W        W20905   3.590  16.690   1.786  0.1223 -0.0320  0.0712
 1372W        W20906   4.213  14.253  13.781 -0.0888 -0.0171  0.0912
 1373W        W20907  14.566  16.677   0.950 -0.1092 -0.0987  0.1549
 1374W        W20908  15.636  15.231  15.432 -0.0856 -0.0325  0.0704
 1375W        W20909  15.379   0.462  15.797 -0.3091 -0.2121  0.1685
 1376W        W20910   4.025   9.341   4.748  0.0219 -0.0903 -0.3608
 1377W        W20911   1.737   7.212   0.075 -0.0584 -0.0371  0.0734
 1378W        W20912  10.740  14.329  16.313 -0.0676  0.2939 -0.0742
 1379W        W20913  14.646   7.803  13.300 -0.1767 -0.0104 -0.0855
 1380W        W20914  13.218  14.505   3.439  0.0850 -0.0600 -0.1167
 1381W        W20915   7.754   4.984   4.548  0.3272  0.2937 -0.0662
 1382W        W20916   6.351   8.112   3.803  0.1880  0.1071 -0.5698
 1383W        W20917   4.364   6.621   2.166  0.1148 -0.3062 -0.0825
 1384W        W20918  10.366   5.213  15.161  0.4943 -0.0272 -0.1636
 1385W        W20919  11.735   8.102   2.987  0.1604 -0.0927  0.1507
 1386W        W20920   0.548   2.834  16.164 -0.1528 -0.0859 -0.0580
 1387W        W20921  13.412   4.207  12.148 -0.1561 -0.4504  0.1064
 1388W        W20922   7.128   6.603   5.163  0.1151 -0.0268 -0.1840
 1389W        W20923   7.494   5.449  11.670 -0.0468 -0.0214 -0.2150
 1390W        W20924   2.940   5.361  12.551  0.0626  0.0452 -0.0877
 1391W        W20925   7.677   3.401  11.748 -0.1433 -0.2327 -0.0618
 1392W        W20926  17.763   8.000  16.260 -0.1921  0.3085  0.1459
 1393W        W20927   9.480   7.055  16.437  0.2133 -0.1526 -0.1237
 1394W        W20928   2.554   9.157   3.098 -0.1565 -0.0491  0.0300
 1395W        W20929   0.827  10.567  16.552 -0.0378 -0.0303  0.2639
 1396W        W20930  11.424  10.008  15.587  0.1791 -0.0905  0.0708
 1397W        W20931  10.735   1.187  13.983 -0.1671 -0.0743  0.0205
 1398W        W20932   0.411   7.774  15.387  0.2321  0.2243  0.0760
 1399W        W20933   8.146   9.290   1.936  0.0701  0.2542 -0.1445
 1400W        W20934  16.467  15.842  14.900  0.2230 -0.1550  0.2550
 1401W        W20935  12.940  16.923  12.294  0.0987  0.1648  0.2976
 1402W        W20936  13.714  12.120   3.500 -0.0355  0.2487 -0.1200
 1403W        W20937   9.201  12.608  14.231  0.2738  0.1369  0.4133
 1404W        W20938  12.024   1.083  13.754  0.1578  0.1789  0.3079
 1405W        W20939   2.826   5.896  14.142 -0.1129 -0.1709  0.2570
 1406W        W20940  17.303  11.339   2.913  0.0736  0.3316  0.1942
 1407W        W20941   3.642  13.952  14.159 -0.0922  0.0722 -0.0633
 1408W        W20942   2.253  14.810  15.670  0.1348  0.1647  0.1614
 1409W        W20943  13.596   2.200  14.279  0.0229  0.0496 -0.1378
 1410W        W20944   8.268   5.737   5.047 -0.0759  0.1412  0.0830
 1411W        W20945   6.470   0.539   2.055 -0.0122  0.1917  0.0519
 1412W        W20946  13.497  10.043   4.133  0.2463  0.4128 -0.1783
 1413W        W20947   3.846   1.459  16.314 -0.0162 -0.0613 -0.1801
 1414W        W20948   8.920   5.779   0.917 -0.0205  0.2767  0.0671
 1415W        W20949   6.160  13.419   1.698  0.3133  0.0142  0.0186
 1416W        W20950  10.960   2.660  14.487 -0.1109 -0.3907 -0.0813
 1417W        W20951  17.847  11.838   3.748 -0.0579  0.1160 -0.2720
 1418W        W20952  17.482   7.019   1.049  0.0191  0.3031  0.1495
 1419W        W20953  15.156   9.940  14.955 -0.3349 -0.0664  0.0356
 1420W        W20954   6.750  13.208  15.953  0.1016 -0.0494 -0.1178
 1421W        W20955   2.250  12.321   3.562 -0.1070 -0.2032  0.0376
 1422W        W20956   6.290  14.750   3.615 -0.4492 -0.1247  0.4167
 1423W        W20957   3.581  11.791  12.637 -0.0183  0.3169  0.2227
 1424W        W20958   9.214   3.009   3.738 -0.2050 -0.0979 -0.1323
 1425W        W20959   3.218   4.816  13.173  0.0517 -0.3116  0.1244
 1426W        W20960  11.849   3.880   4.129 -0.0502  0.0142 -0.2739
 1427W        W20961   9.069  16.877   3.606 -0.3420 -0.0525  0.4090
 1428W        W20962   2.821   1.688  13.917 -0.4024  0.2296  0.1053
 1429W        W20963  14.993   4.604   2.710  0.0441  0.0893  0.1773
 1430W        W20964  15.347   9.496  15.550  0.1827 -0.2440 -0.1252
 1431W        W20965   2.249   4.106   1.488 -0.0233  0.0281 -0.0436
 1432W        W20966   6.824  10.300  16.499  0.2301  0.1958 -0.1296
 1433W        W20967   6.291  15.274   2.815 -0.0568  0.1099  0.1651
 1434W        W20968   2.947   3.611   2.827 -0.0770  0.0723  0.0257
 1435W        W20969   3.315  11.064   1.861 -0.3306 -0.1696 -0.1027
 1436W        W20970  10.803  10.812  16.539  0.0987  0.0726 -0.4262
 1437W        W20971  11.542   9.488   0.806 -0.3227  0.0822 -0.0481
 1438W        W20972   4.698  15.922  15.918 -0.5054 -0.0294  0.1120
 1439W        W20973  17.113  16.667   5.019 -0.0531  0.3937  0.2276
 1440W        W20974   6.119  13.126  11.769  0.0789  0.0604 -0.1588
 1441W        W20975   4.225   5.040   2.405  0.1271  0.2592 -0.1681
 1442W        W20976  15.404   8.947   0.098  0.0285  0.0307  0.3245
 1443W        W20977  10.129   7.109   3.786  0.1756  0.1183  0.1558
 1444W        W20978  14.848  12.979  14.306  0.1385  0.1330  0.0907
 1445W        W20979   2.746   3.248   6.546 -0.0289  0.0520  0.1976
 1446W        W20980  17.432  10.592   3.446  0.3044  0.1882  0.0415
 1447W        W20981   6.740   1.158  16.584  0.0613  0.0789 -0.1840
 1448W        W20982  11.003  16.978   0.301 -0.2852 -0.0403  0.0463
 1449W        W20983  16.498   7.739   0.129 -0.1700 -0.0311 -0.1772
 1450W        W20984  16.028  10.429   0.466  0.1409  0.2057  0.1587
 1451W        W20985   2.846   2.160   2.318 -0.3464 -0.2942  0.2427
 1452W        W20986  12.130   5.774   2.554  0.2286 -0.1896  0.0986
 1453W        W20987   0.604  10.954  16.118 -0.0998 -0.0656 -0.1559
 1454W        W20988   7.721   6.329   1.543 -0.2669 -0.3276  0.2003
 1455W        W20989   5.209  15.558   4.027 -0.0333  0.4368  0.4286
 1456W        W20990   8.052   8.749   3.553  0.0012 -0.0549 -0.2973
 1457W        W20991  11.361  13.948  13.222  0.1768  0.0487  0.1616
 1458W        W20992   1.681  13.753  16.002 -0.0016 -0.0487 -0.1901
 1459W        W20993   2.774   9.565  15.104 -0.3626  0.0044  0.2064
 1460W        W20994  11.892  15.998   2.141 -0.0180  0.2932 -0.2510
 1461W        W20995   4.031   0.841   1.544  0.2229  0.3012 -0.1008
 1462W        W20996   8.639  12.882   2.909  0.0330  0.5181  0.3986
 1463W        W20997   4.888   7.615   3.974  0.2254  0.1032 -0.1174
 1464W        W20998   5.809   6.712  13.440  0.0032  0.1565 -0.1064
 1465W        W20999  12.741  16.427  13.414  0.0725  0.1600  0.0436
 1466W        W21000   0.262   3.685   2.718 -0.1863  0.2414 -0.1147
 1467W        W21001   4.766   5.873   4.528 -0.2742  0.2315 -0.0668
 1468W        W21002   6.956   3.356  11.150 -0.0989  0.0128  0.0044
 1469W        W21003  13.564  10.925  15.853 -0.0042  0.2183  0.1489
 1470W        W21004   7.393   4.864   0.740  0.2066  0.1720 -0.2944
 1471W        W21005   3.138  11.561   1.832 -0.0430  0.3224  0.0815
 1472W        W21006   6.297  11.468  12.795  0.1493 -0.0138  0.1219
 1473W        W21007   4.276  12.416   3.363  0.0947 -0.1806  0.3886
 1474W        W21008  11.593  13.403  11.993 -0.1118 -0.1457  0.3769
 1475W        W21009   8.278  15.826   0.489  0.2349 -0.2049 -0.1770
 1476W        W21010   8.355  13.652  13.519  0.0795 -0.0210 -0.3985
 1477W        W21011  12.148   7.106  10.669  0.0943  0.0225  0.0906
 1478W        W21012  15.865  14.131   4.529 -0.3046  0.0228  0.2198
 1479W        W21013   3.561   4.476   2.766  0.3332 -0.0444  0.1703
 1480W        W21014   2.063  11.676   1.430  0.0051  0.2499  0.0151
 1481W        W21015  17.033   6.644   0.829  0.0482  0.1960  0.1245
 1482W        W21016  15.855   9.545  15.725 -0.1973 -0.0274  0.0625
 1483W        W21017  12.975   7.000   4.057  0.1993 -0.0707  0.0530
 1484W        W21018   7.732   7.706  12.125 -0.2602  0.0903 -0.0790
 1485W        W21019  17.186   4.380  15.245  0.0011 -0.0897  0.1593
 1486W        W21020   1.315  15.454  14.169 -0.1127 -0.0895  0.1873
 1487W        W21021   1.883  14.169   2.097  0.0184 -0.0419 -0.2112
 1488W        W21022   1.140  17.610   4.398  0.0101 -0.0195  0.0779
 1489W        W21023   3.647  16.214   0.039  0.0879  0.2139 -0.0767
 1490W        W21024   8.046   0.443  13.854  0.1026 -0.3272 -0.1191
 1491W        W21025  16.949   0.844   0.099 -0.1538 -0.1496  0.0114
 1492W        W21026  16.356   6.794   4.135 -0.0937 -0.0553  0.3071
 1493W        W21027  12.393   2.105   2.984  0.0542 -0.1564  0.0940
 1494W        W21028   4.100  16.941   3.785 -0.1320 -0.1802  0.0930
 1495W        W21029  16.305   6.852   2.867 -0.2216 -0.0025  0.0209
 1496W        W21030  16.307  11.719  12.383  0.1117 -0.2963 -0.1430
 1497W        W21031   7.907   6.248  11.866  0.2711 -0.1904 -0.0339
 1498W        W21032   6.953  12.318   1.709  0.1571  0.2784  0.2044
 1499W        W21033  11.148  16.954  12.474  0.1096 -0.0245  0.1187
 1500W        W21034  16.118   2.983   5.531  0.1550  0.0100 -0.3622
 1501W        W21035   3.825   1.361   0.330  0.1023 -0.0597  0.0127
 1502W        W21036  12.763   6.336  13.673 -0.1052 -0.1028  0.0614
 1503W        W21037  15.747  16.018   3.615  0.3679  0.0160  0.2001
 1504W        W21038   9.461  16.668  12.155 -0.2135  0.0864 -0.0080
 1505W        W21039   3.031  15.698  14.227  0.2064 -0.0115 -0.1839
 1506W        W21040  15.450   2.374   4.913  0.2781  0.2106 -0.0607
 1507W        W21041   7.735  17.838   0.788 -0.3733  0.3107 -0.0724
 1508W        W21042   0.033   8.098  15.367 -0.1246  0.2040  0.1700
 1509W        W21043  10.634   1.157  14.942 -0.2808 -0.0979  0.3341
 1510W        W21044  10.456   1.583  12.459 -0.0219 -0.0261 -0.0145
 1511W        W21045   4.922  14.828   0.455  0.0155 -0.1617  0.0948
 1512W        W21046   0.581  13.975   4.000 -0.0957  0.2154 -0.1780
 1513W        W21047  16.792   8.258  14.647 -0.0859  0.3720 -0.2397
 1514W        W21048   8.772   8.504  13.644  0.1719 -0.1683 -0.2287
 1515W        W21049  15.087   0.163   1.485  0.2530 -0.0465 -0.1284
 1516W        W21050  14.461  15.342  13.937  0.1127  0.1248 -0.3798
 1517W        W21051  12.283  10.905   0.987  0.4795  0.1351  0.3677
 1518W        W21052   8.371  11.613   4.668  0.1907  0.1654 -0.0117
 1519W        W21053   1.144  12.066  14.792 -0.3011 -0.3254 -0.2088
 1520W        W21054  14.115   9.124  15.023 -0.1076  0.1417  0.0075
 1521W        W21055  13.886   0.231  15.684 -0.2375  0.0591  0.0227
 1522W        W21056   5.829  13.692  15.139  0.0805  0.1061  0.1666
 1523W        W21057  10.054   0.336   0.820  0.0301 -0.0053  0.2030
 1524W        W21058  14.742   2.704   4.004  0.0026  0.2204 -0.0078
 1525W        W21059   9.046   3.757   0.782  0.2039 -0.0426 -0.0055
 1526W        W21060  10.914  13.668   1.067 -0.1022 -0.1043 -0.0708
 1527W        W21061   4.394  13.875  12.803 -0.2135  0.2463 -0.0367
 1528W        W21062  10.955  14.341  13.307  0.1384  0.0305 -0.0378
 1529W        W21063   1.404  17.087   3.368 -0.1234 -0.1103 -0.1591
 1530W        W21064   5.681   7.641  11.771  0.1424  0.2476 -0.0004
 1531W        W21065   4.753   3.929   2.445 -0.1203 -0.0326  0.1403
 1532W        W21066   6.384   5.833  16.565  0.0740 -0.2166 -0.2793
 1533W        W21067  10.506   1.154   1.107 -0.0757 -0.0683  0.1999
 1534W        W21068   4.043   4.847  16.688 -0.1200  0.1562 -0.0190
 1535W        W21069   4.189   0.693  16.409 -0.0239  0.0109 -0.0888
 1536W        W21070   2.658   8.503  12.468 -0.0262 -0.0996  0.1259
 1537W        W21071   5.777   4.229  15.111 -0.3431 -0.0685  0.1780
 1538W        W21072   8.073   5.099   4.951 -0.0072 -0.0752  0.3621
 1539W        W21073   7.326   0.961  12.833 -0.0989 -0.0084  0.0160
 1540W        W21074  11.532  13.864   2.636  0.3827 -0.0607  0.1918
 1541W        W21075  16.437   9.174   1.402 -0.0739  0.0211  0.0430
 1542W        W21076   6.882   6.163  11.870 -0.3805  0.3723  0.0636
 1543W        W21077  11.643   9.004   3.653  0.2860  0.2240 -0.0803
 1544W        W21078  14.882  16.238  13.806  0.0913  0.2086 -0.0158
 1545W        W21079   8.652   6.092   4.973 -0.2534 -0.0102  0.0767
 1546W        W21080   9.545   4.954  12.052 -0.1451 -0.2241 -0.0120
 1547W        W21081  11.499   3.499   3.095 -0.0325  0.0209  0.3012
 1548W        W21082   3.241   7.109   4.581 -0.1330  0.0367  0.0375
 1549W        W21083  12.274   7.330  14.615 -0.5266 -0.1446  0.0714
 1550W        W21084   8.764  10.578  13.358  0.0736 -0.1090  0.1189
 1551W        W21085   5.740  12.306   4.483  0.0107  0.1442 -0.1102
 1552W        W21086   5.475   6.401   4.995  0.1609 -0.3073 -0.1744
 1553W        W21087  15.192   6.650  11.756  0.0516  0.0179  0.2915
 1554W        W21088   5.877  12.627   4.987  0.2882  0.0733 -0.0434
 1555W        W21089   2.045  17.039   4.072  0.1344 -0.0666  0.2047
 1556W        W21090  16.027   1.891   0.274  0.1630 -0.1216  0.2255
 1557W        W21091   5.150   8.111  13.401 -0.2354 -0.0289 -0.0818
 1558W        W21092   1.053  16.676  15.297  0.1477  0.2217 -0.3170
 1559W        W21093   9.418   9.889   1.462  0.0009 -0.1199 -0.1317
 1560W        W21094  16.944   8.544  16.509  0.3373  0.3156 -0.1883
 1561W        W21095   2.430   5.344  12.116 -0.1514 -0.0790 -0.3149
 1562W        W21096  17.404   8.997  12.281  0.4754  0.1140 -0.1430
 1563W        W21097  16.075   4.737  16.225 -0.0106  0.0465  0.0515
 1564W        W21098  11.118   1.937  14.539  0.0125  0.1398  0.1131
 1565W        W21099   9.300  12.393   3.326  0.2111  0.4756  0.2226
 1566W        W21100   9.056  16.281  13.102 -0.2809  0.2886 -0.0222
 1567W        W21101  11.744  11.735  16.076 -0.1173 -0.2260 -0.1076
 1568W        W21102  15.652   9.742   4.409 -0.2335 -0.2610 -0.1831
 1569W        W21103  17.558  11.619   4.759  0.1422  0.1870 -0.2411
 1570W        W21104  17.872   1.770   0.161  0.2384  0.0501  0.1267
 1571W        W21105   5.092   7.737  14.306  0.1259  0.1815 -0.1783
 1572W        W21106  16.671   3.843  13.880  0.3229  0.0672 -0.1799
 1573W        W21107  17.277  15.068  16.525 -0.0659 -0.1815 -0.0402
 1574W        W21108  16.601   1.047  14.072 -0.0307  0.0200 -0.1856
 1575W        W21109  14.704   9.077  16.105 -0.1198  0.1077  0.2440
 1576W        W21110   0.331  14.903   3.576 -0.3166  0.0574  0.0289
 1577W        W21111   7.816   4.962  12.516 -0.1198 -0.1356 -0.0407
 1578W        W21112   7.857  11.721   1.091 -0.0927 -0.1241 -0.0909
 1579W        W21113   0.256  14.201  15.087  0.0735 -0.0202 -0.0715
 1580W        W21114  15.465  14.805  15.232 -0.1801 -0.0850 -0.0780
 1581W        W21115   1.859   6.739   2.790  0.0820  0.0410 -0.0320
 1582W        W21116  17.320   7.228  16.133 -0.0211  0.0139  0.2022
 1583W        W21117  13.640   5.485  15.378 -0.2078 -0.1460 -0.2536
 1584W        W21118  10.276   6.829   3.392  0.0420  0.1294 -0.1536
 1585W        W21119   6.515   4.424  13.775 -0.0646  0.1319  0.1819
 1586W        W21120   0.503   2.593   2.530  0.0915 -0.0634 -0.0557
 1587W        W21121  11.452   5.196  14.882  0.0639 -0.1462  0.0119
 1588W        W21122  15.649   9.698  16.513  0.2203  0.0468  0.5504
 1589W        W21123  10.459   4.632  14.530  0.0639  0.0886 -0.1624
 1590W        W21124   7.766   4.010  14.381 -0.2792 -0.0217  0.0405
 1591W        W21125  16.063  11.769   0.606 -0.0490  0.1234  0.1954
 1592W        W21126  12.454   9.631   3.303 -0.1184  0.0241 -0.0845
 1593W        W21127   0.732  16.014  15.656 -0.1751 -0.0926  0.0321
 1594W        W21128  12.697  11.067   4.020  0.2358  0.1422 -0.1012
 1595W        W21129   2.169  16.609   2.957 -0.1653 -0.1102  0.0656
 1596W        W21130   3.148   3.666   1.376 -0.1608 -0.1164  0.1316
 1597W        W21131   0.084  15.912   2.285  0.0148 -0.0549 -0.2730
 1598W        W21132  13.037   6.987   4.594 -0.0484 -0.0318 -0.0519
 1599W        W21133   1.422   7.903  12.704 -0.1849 -0.1460 -0.1306
 1600W        W21134   6.706  12.831   3.744  0.2288  0.0276  0.2287
 1601W        W21135  14.828   9.806  15.413  0.0038  0.0969 -0.1329
 1602W        W21136   4.480  10.543   2.432  0.0460  0.2353  0.2277
 1603W        W21137   7.085   1.479   5.396 -0.1197 -0.1654  0.0833
 1604W        W21138  15.093  10.578   1.743 -0.3865 -0.0700  0.2450
 1605W        W21139   8.111  16.869  11.805 -0.2927 -0.0503  0.0996
 1606W        W21140  12.818  15.112   1.218 -0.0359  0.2780 -0.2180
 1607W        W21141   8.152   7.434  14.381  0.2310 -0.0968  0.1175
 1608W        W21142   0.614  12.675   0.035  0.1418  0.1795  0.1743
 1609W        W21143   0.644   2.237  15.860  0.0508  0.1629  0.1980
 1610W        W21144   1.854  17.574   2.431 -0.0123  0.3239 -0.1628
 1611W        W21145   2.739   0.561   1.360 -0.1371 -0.0735  0.2131
 1612W        W21146   7.214   0.255  15.208  0.1663 -0.2503  0.0275
 1613W        W21147  16.864   8.182  13.714  0.0343  0.2864  0.0402
 1614W        W21148   0.217   1.169  13.306 -0.2897 -0.3057 -0.2548
 1615W        W21149  11.180   2.387   6.134 -0.1737  0.0345 -0.1115
 1616W        W21150  13.121   1.267  15.049 -0.0627 -0.1948 -0.0590
 1617W        W21151  14.695  12.741  12.214  0.6196  0.4094 -0.5011
 1618W        W21152   8.835  12.696  16.609  0.0583 -0.1651  0.1544
 1619W        W21153  17.798  13.682  11.771  0.2036 -0.2020 -0.0053
 1620W        W21154   0.942  17.905   1.621  0.5031 -0.2244 -0.0324
 1621W        W21155   5.029  13.332   3.954 -0.1761 -0.0976  0.1214
 1622W        W21156  13.302   0.097   3.739 -0.1467 -0.2231  0.2286
 1623W        W21157  16.222  15.948  12.679 -0.0755 -0.2027 -0.0510
 1624W        W21158   7.758   3.255  15.553  0.1501  0.0424  0.2693
 1625W        W21159  16.491   8.543  11.411 -0.0471  0.2306  0.0783
 1626W        W21160   7.762   3.491  13.123 -0.2244 -0.2101 -0.2109
 1627W        W21161  12.481  15.313  16.703  0.1445 -0.2068  0.0862
 1628W        W21162   6.125   8.493  14.930 -0.2851 -0.0391  0.2281
 1629W        W21163  16.062   9.068  12.353  0.1433 -0.0865  0.0523
 1630W        W21164  10.889  12.069   4.673 -0.1972  0.0065 -0.0657
 1631W        W21165  13.242   7.543   3.162  0.0683  0.2326 -0.1005
 1632W        W21166  11.964   9.967  15.807  0.1199  0.1428  0.0739
 1633W        W21167   0.130   7.323   2.298 -0.1139 -0.1610 -0.0317
 1634W        W21168   5.226  13.143  15.809 -0.1008 -0.0820  0.1711
 1635W        W21169   5.964   1.320   2.327  0.2449  0.2215  0.2092
 1636W        W21170   3.618  10.824   3.467 -0.0184 -0.0675  0.3234
 1637W        W21171   0.917   6.980  14.460  0.2112  0.0475 -0.1043
 1638W        W21172  12.175  13.128   3.132 -0.2056 -0.1290 -0.0294
 1639W        W21173   7.643   2.178   0.878 -0.1119  0.1724  0.4080
 1640W        W21174   6.764   8.976   3.488 -0.0897 -0.0424  0.0148
 1641W        W21175  16.801   6.639  14.664 -0.1014  0.0223 -0.1311
 1642W        W21176  15.769  14.292   2.130 -0.3696  0.0228  0.0462
 1643W        W21177  16.490   0.395  15.743  0.0794  0.1924  0.0188
 1644W        W21178  15.297  10.505  13.151 -0.1884 -0.0424  0.2074
 1645W        W21179  15.078  13.633   3.194  0.0976  0.0828 -0.2170
 1646W        W21180   6.496   3.208   3.233  0.0415  0.0718  0.1851
 1647W        W21181  13.048  14.121   1.827  0.4010 -0.0471 -0.0428
 1648W        W21182  15.741  15.737  12.988  0.0100 -0.3549 -0.0192
 1649W        W21183  17.004  16.224  12.474 -0.1393 -0.1045 -0.1434
 1650W        W21184  10.849   4.553   0.262  0.1159  0.0792  0.0218
 1651W        W21185  12.618   7.293  12.410 -0.0071 -0.0765 -0.2938
 1652W        W21186  16.385   3.166  16.086 -0.2312  0.5681 -0.1399
 1653W        W21187   3.728   4.337   3.967  0.0379  0.2518 -0.2868
 1654W        W21188   1.928   8.443  13.438  0.0662 -0.3055  0.1593
 1655W        W21189   5.481  12.162  11.908 -0.1528  0.1334 -0.0652
 1656W        W21190   7.373  10.150   2.233  0.0223  0.0385 -0.1328
 1657W        W21191   3.095  14.752   1.683 -0.2609  0.0799 -0.0536
 1658W        W21192  13.909   2.040   0.614  0.2329  0.5531 -0.0030
 1659W        W21193  11.928   5.584  16.686  0.1365 -0.1073  0.1082
 1660W        W21194  15.793  14.671   1.754  0.1168 -0.2085 -0.2037
 1661W        W21195   6.322   7.210   3.882  0.0692  0.0119  0.2420
 1662W        W21196  10.883  15.546  13.555 -0.2032  0.2540 -0.1217
 1663W        W21197   3.919  16.442  16.007 -0.0212  0.3761 -0.0960
 1664W        W21198  17.794   1.631   4.021  0.2215  0.2138  0.1930
 1665W        W21199  17.889  11.997   1.804 -0.1677 -0.1019  0.0422
 1666W        W21200  10.581   0.520   4.678  0.1413 -0.0616  0.1831
 1667W        W21201   1.316   9.570   1.071 -0.2925  0.0864  0.0739
 1668W        W21202   3.436   6.346  12.265 -0.1488  0.1442 -0.0423
 1669W        W21203   6.481   1.507   3.821 -0.1871 -0.1527  0.0530
 1670W        W21204  13.884  10.253   1.173 -0.0371 -0.1888  0.0807
 1671W        W21205  13.168   7.977   1.847 -0.2071  0.1190 -0.0527
 1672W        W21206  11.101  16.659  12.872 -0.2353  0.0095  0.1954
 1673W        W21207  13.057  11.339  14.038  0.0030 -0.2318  0.1594
 1674W        W21208  10.222  17.720   4.717  0.0438 -0.0503 -0.1031
 1675W        W21209   1.119   0.627  13.355 -0.0038  0.2754  0.2874
 1676W        W21210  11.705   4.311  13.465 -0.0638  0.1437  0.1301
 1677W        W21211   4.403  14.982   3.927  0.1371 -0.1338 -0.3492
 1678W        W21212  14.180  17.707   1.889 -0.2166  0.1282  0.0563
 1679W        W21213  11.554  11.896   0.732 -0.1751  0.2295 -0.0491
 1680W        W21214   1.686  17.304  16.347 -0.2341  0.1627  0.1119
 1681W        W21215  17.842   7.365  13.403  0.0943  0.4334  0.1102
 1682W        W21216  16.832  14.311  16.420 -0.0181  0.2609 -0.2169
 1683W        W21217  17.347   3.767   4.829  0.2566  0.0336 -0.2057
 1684W        W21218  11.969   2.279   3.456 -0.0881  0.0685  0.2435
 1685W        W21219   2.610   8.335   3.476 -0.0360  0.0193  0.0015
 1686W        W21220   1.545  16.625  13.933  0.0858  0.3282  0.0200
 1687W        W21221  10.551   7.409   2.143 -0.1020  0.1677 -0.2472
 1688W        W21222  13.452   5.706  14.169  0.2463  0.0519 -0.1571
 1689W        W21223  11.625  10.764  13.596  0.2514  0.0956 -0.1645
 1690W        W21224  10.973   5.318  14.878 -0.0199 -0.1035 -0.1379
 1691W        W21225  11.843   7.004  12.948  0.2712 -0.0275 -0.0562
 1692W        W21226  11.580  14.630   4.898 -0.0581 -0.0204  0.2548
 1693W        W21227   3.877  14.460   4.536 -0.0390 -0.1374 -0.1750
 1694W        W21228   7.890  16.214  14.319 -0.0530  0.0693 -0.1831
 1695W        W21229   5.617   6.364  14.965  0.1302 -0.1778 -0.3138
 1696W        W21230   3.621  15.768   2.399 -0.0370 -0.2621 -0.2282
 1697W        W21231   6.435  16.599   0.652 -0.1265 -0.0168  0.0872
 1698W        W21232  16.424  12.684  16.675  0.0790 -0.1593  0.3482
 1699W        W21233  14.261   5.083  15.429  0.0425 -0.2335 -0.0654
 1700W        W21234  16.082   5.322   3.508 -0.0625 -0.0390  0.1779
 1701W        W21235   8.952   1.708   4.351 -0.1312  0.0790  0.2244
 1702W        W21236  11.973  12.820  12.276 -0.0883  0.1539 -0.1965
 1703W        W21237   6.230  12.906  15.478 -0.0524  0.3406  0.1718
 1704W        W21238   1.518   6.513  12.920 -0.0149 -0.0790 -0.1184
 1705W        W21239   4.530   7.238   0.093  0.0572  0.0014  0.0603
 1706W        W21240   1.944   5.157  13.133  0.1683  0.0196  0.2166
 1707W        W21241   7.478  11.642   3.365 -0.0971 -0.0746 -0.1952
 1708W        W21242  14.686   8.759  12.062 -0.3643 -0.0010 -0.1083
 1709W        W21243  11.179  15.747   3.877  0.0869  0.2008  0.1537
 1710W        W21244   8.263  15.771   1.892  0.0853 -0.2182  0.0508
 1711W        W21245  14.218   9.795  13.013 -0.1304 -0.3636  0.0836
 1712W        W21246  16.431   2.473  12.800 -0.1641 -0.2233 -0.0348
 1713W        W21247   5.559   1.893  16.495  0.2054  0.3652 -0.3173
 1714W        W21248   3.686  10.454  14.159  0.1582 -0.1765 -0.0789
 1715W        W21249  12.483   2.683  14.893 -0.3983  0.1228  0.0051
 1716W        W21250  12.166  12.909  13.207  0.0086 -0.0578 -0.3115
 1717W        W21251  15.985   8.749  14.895 -0.1545 -0.0320 -0.5360
 1718W        W21252  13.870  11.286   2.647 -0.1583  0.2783 -0.0731
 1719W        W21253  17.635   1.110   5.283 -0.1419  0.0918 -0.0355
 1720W        W21254  10.287   1.019   4.633 -0.1776  0.0555 -0.0558
 1721W        W21255   4.582   5.989  11.685  0.0530 -0.1195 -0.0256
 1722W        W21256   6.144  12.447  15.716  0.0643 -0.0599 -0.0635
 1723W        W21257   5.650  15.354   4.967  0.0559  0.1307  0.3530
 1724W        W21258  14.579   6.202  13.161 -0.2008  0.0530  0.1067
 1725W        W21259   5.238   0.681   1.715  0.1866  0.1886 -0.1311
 1726W        W21260   5.500   5.006   0.677  0.1301 -0.0936 -0.2782
 1727W        W21261   6.864  15.936  13.079  0.1639  0.0259  0.0944
 1728W        W21262  15.619   3.467  14.501  0.0175 -0.1683 -0.1338
 1729W        W21263  17.901  13.231   1.169 -0.2302 -0.2032 -0.0605
 1730W        W21264   0.348  10.528  14.873  0.2201  0.1283  0.1994
 1731W        W21265  15.823  14.573  13.188 -0.0731 -0.0597 -0.2446
 1732W        W21266  12.937   6.155   3.585 -0.0587  0.1078 -0.0405
 1733W        W21267  17.139  16.320   2.509 -0.0374 -0.4583 -0.1627
 1734W        W21268  14.144  10.493  15.453  0.2125  0.2624  0.1571
 1735W        W21269  12.538   8.224   3.184 -0.1194  0.2325  0.1205
 1736W        W21270   8.290  12.856  12.464 -0.1503  0.1941 -0.1232
 1737W        W21271  11.843  10.529   0.828 -0.3406  0.1344  0.0822
 1738W        W21272   6.374   5.265  15.291  0.1038 -0.0640 -0.1705
 1739W        W21273   4.150  12.592  12.985 -0.1499 -0.3266 -0.0273
 1740W        W21274   6.375   7.399   5.556  0.0238 -0.0088  0.0213
 1741W        W21275  11.449   4.646  15.026 -0.0865  0.2091  0.2699
 1742W        W21276  17.413   7.718  13.211 -0.1473  0.1536 -0.0653
 1743W        W21277   4.268  11.352   3.538 -0.2141 -0.2769  0.2950
 1744W        W21278  11.231  14.546   1.825 -0.1083 -0.3339  0.0447
 1745W        W21279  11.796   0.633   4.834 -0.2009  0.0556 -0.0195
 1746W        W21280   9.169   5.846  15.448  0.0072  0.0628 -0.1172
 1747W        W21281   5.665   7.275  14.729  0.0679  0.0930 -0.2039
 1748W        W21282  15.592  16.878  13.865 -0.2817 -0.1485 -0.1615
 1749W        W21283  13.927  13.250  16.213 -0.2514 -0.0889 -0.0209
 1750W        W21284   0.293   6.423   3.658 -0.1417 -0.5625  0.3051
 1751W        W21285  13.449  17.478  13.162  0.1914  0.1053 -0.1858
 1752W        W21286  12.354   7.217   0.275 -0.1757  0.0878 -0.1181
 1753W        W21287   3.544  17.560   1.775  0.0513  0.1797 -0.2298
 1754W        W21288   7.469   1.072   3.995  0.2720 -0.0021 -0.1394
 1755W        W21289  10.150   8.770  13.562 -0.0988  0.0016 -0.1079
 1756W        W21290   3.357  14.415   1.056 -0.0110  0.1569 -0.1497
 1757W        W21291  11.895   3.050   4.622  0.0861 -0.1579 -0.0301
 1758W        W21292   1.083   8.132  14.440 -0.2978 -0.1371 -0.2717
 1759W        W21293  17.494   9.801  14.899  0.0706  0.0020  0.2895
 1760W        W21294   0.346   0.957  12.639  0.2114 -0.0027 -0.0464
 1761W        W21295  11.656  17.160   4.432 -0.1004 -0.0481  0.2982
 1762W        W21296   8.328  13.338   1.667  0.0778  0.0205  0.1458
 1763W        W21297  14.335  14.525  14.018  0.1437  0.0437  0.0227
 1764W        W21298   5.644   7.631  13.668 -0.3139  0.3275  0.0107
 1765W        W21299  15.249   2.752  14.341 -0.0725 -0.0971 -0.3159
 1766W        W21300   9.032  14.219   3.746  0.0976 -0.1410  0.1232
 1767W        W21301   0.342   9.665  14.395 -0.0097  0.0231  0.1168
 1768W        W21302  17.546  15.184   2.638 -0.2120 -0.4066 -0.1233
 1769W        W21303   6.776   1.589   0.137  0.1904 -0.1904  0.0308
 1770W        W21304   6.615  15.390   5.071 -0.0886  0.1063  0.2708
 1771W        W21305  10.385  15.115  15.035  0.0543  0.0079 -0.1386
 1772W        W21306  14.163   1.440  15.913 -0.2821  0.2308  0.0016
 1773W        W21307   6.078  15.854   3.385 -0.1665  0.1823  0.0337
 1774W        W21308   8.600  14.165   3.408 -0.0829 -0.0835 -0.1054
 1775W        W21309   3.576  16.209  12.361 -0.0142  0.4038 -0.0009
 1776W        W21310  16.598   1.516  12.478  0.2803 -0.1125  0.1188
 1777W        W21311  14.281   4.078   4.148 -0.1013  0.1635  0.3930
 1778W        W21312  11.722   6.123   2.172  0.3442  0.1380  0.0571
 1779W        W21313   1.119  15.815  12.935 -0.2744  0.1617  0.0918
 1780W        W21314   7.121   0.169  16.347  0.0804  0.0755  0.1545
 1781W        W21315   0.933   5.147   0.306  0.2766  0.2368 -0.1556
 1782W        W21316  11.971  15.370   2.109 -0.3282  0.0405 -0.0956
 1783W        W21317  12.207   4.011   0.061 -0.0412 -0.1737 -0.1807
 1784W        W21318  13.775   3.435  10.890  0.2787 -0.1169  0.0049
 1785W        W21319  16.237   1.564  16.565 -0.1307  0.0483  0.0065
 1786W        W21320   0.089  13.193   0.634 -0.1551  0.0607  0.2185
 1787W        W21321   0.743  13.619   2.842  0.0537  0.2420  0.1258
 1788W        W21322  14.119   1.240   4.242  0.2524  0.3888 -0.1722
 1789W        W21323   9.816   1.496   0.447  0.2889 -0.0313 -0.3384
 1790W        W21324  11.880   6.680  12.541  0.1552  0.2664 -0.2170
 1791W        W21325   8.741  15.610   0.642  0.0496 -0.2853  0.0378
 1792W        W21326  11.982  16.426   2.936  0.1797  0.1196  0.1230
 1793W        W21327  12.132   5.562   3.379  0.1420  0.0591 -0.1342
 1794W        W21328   7.909  12.166   0.564 -0.1596  0.2484 -0.1485
 1795W        W21329  17.380  15.288  12.272 -0.0588 -0.1395  0.0415
 1796W        W21330   8.915   7.272   4.950  0.0986 -0.0107 -0.0734
 1797W        W21331  16.338  10.318   4.349  0.2748  0.2594  0.6551
 1798W        W21332   4.474  13.498  13.155 -0.0114 -0.0018  0.3304
 1799W        W21333   8.115   2.999   3.992  0.4104  0.1084  0.0158
 1800W        W21334   0.282  16.825   4.965  0.0854 -0.0296  0.1112
 1801W        W21335   0.042  17.039   3.914 -0.1593  0.0261  0.0164
 1802W        W21336   9.139   9.000   3.596 -0.2063 -0.2035  0.2064
 1803W        W21337  16.491   7.142  14.038  0.1195  0.1419  0.0701
 1804W        W21338   8.278   8.535  14.628  0.0057  0.0113 -0.2195
 1805W        W21339   8.233  10.517   0.066  0.1816 -0.0319 -0.2651
 1806W        W21340  11.764  11.041   0.924 -0.1185  0.1247 -0.3521
 1807W        W21341  10.420   1.134  12.777 -0.1194  0.0051  0.0853
 1808W        W21342  10.246  17.695   3.693 -0.0077 -0.0408 -0.0263
 1809W        W21343  12.368   9.324  11.704  0.0841  0.0775 -0.0064
 1810W        W21344  11.129   1.120   2.813  0.2689  0.2878 -0.1349
 1811W        W21345   6.649   0.228   0.691  0.1356  0.0288 -0.2790
 1812W        W21346   7.756  10.013   4.748 -0.0027  0.0105 -0.3087
 1813W        W21347   0.728   2.566  11.756  0.0340 -0.3419  0.0617
 1814W        W21348   6.375  10.245  14.392  0.2144 -0.2549  0.1555
 1815W        W21349   6.019   9.919   1.413 -0.1143  0.3210  0.2590
 1816W        W21350  13.655   3.824   3.191  0.0223  0.0233  0.1455
 1817W        W21351   4.071  11.718   0.892  0.1309 -0.1414 -0.4239
 1818W        W21352   2.810   0.235   5.057  0.0907  0.2007  0.4442
 1819W        W21353  12.229   6.316  14.945  0.0329 -0.0918 -0.1599
 1820W        W21354   0.583  15.341  16.276  0.2368 -0.1815  0.0584
 1821W        W21355   5.472   1.806  14.741 -0.1344 -0.3317 -0.3037
 1822W        W21356  12.458  17.086   1.066  0.1438  0.0652  0.0580
 1823W        W21357   9.183   7.435   1.361  0.0573 -0.1601 -0.3794
 1824W        W21358  13.533  16.181   3.372  0.0542  0.2657 -0.0955
 1825W        W21359  16.571  11.061   3.449  0.2117  0.0006  0.2250
 1826W        W21360  17.220   5.154  12.992  0.0593 -0.2476  0.1828
 1827W        W21361   5.901   3.062   0.528 -0.0052 -0.0393  0.0707
 1828W        W21362   6.120  13.311   3.859 -0.0865 -0.0814 -0.2581
 1829W        W21363  17.179   5.978   4.603 -0.5827 -0.0170 -0.0491
 1830W        W21364  11.896   1.309   3.266  0.1695 -0.1649 -0.2551
 1831W        W21365   0.634   8.738   1.012 -0.1938 -0.0308  0.0636
 1832W        W21366   7.924   4.209  13.851 -0.1162  0.0554  0.2244
 1833W        W21367   1.470  14.662  14.436 -0.0847  0.2018  0.1826
 1834W        W21368  13.750   8.977  13.728 -0.0375  0.1975  0.0615
 1835W        W21369  16.183   3.160   3.768  0.0560 -0.0539 -0.3794
 1836W        W21370  17.032   2.782   0.666  0.1168  0.2036 -0.1065
 1837W        W21371  15.895   0.471   3.469  0.0861 -0.1087 -0.2970
 1838W        W21372  10.078   6.581  16.737  0.2609 -0.1313  0.2092
 1839W        W21373   1.335  11.715  13.810  0.0372  0.0978  0.0186
 1840W        W21374  11.865   8.027  12.433 -0.3258  0.1218 -0.0054
 1841W        W21375   2.101  10.409  14.047  0.1361  0.2382 -0.1191
 1842W        W21376  14.451   3.878  13.952  0.4632  0.2282 -0.1859
 1843W        W21377  13.215   6.660   3.827 -0.1023  0.3209  0.1117
 1844W        W21378   1.809  12.369  16.260 -0.2351  0.3044  0.1061
 1845W        W21379   7.335   0.113   2.883 -0.1062  0.2740 -0.2346
 1846W        W21380   7.442  14.203  13.621 -0.0209 -0.0125 -0.4434
 1847W        W21381   6.392  14.741   0.084 -0.3107  0.0185 -0.0828
 1848W        W21382   8.651   6.361  11.575  0.1431 -0.2887 -0.2502
 1849W        W21383  13.074  14.463  15.086  0.1470  0.0989  0.1420
 1850W        W21384   7.564  16.308  16.645  0.3842  0.1605 -0.1642
 1851W        W21385  10.796  16.691  12.138 -0.1833  0.0731 -0.2117
 1852W        W21386   8.423  14.647  14.965  0.0756  0.2276 -0.1342
 1853W        W21387  15.891   3.965  15.998  0.0475 -0.0195  0.1085
 1854W        W21388   9.269   4.903  10.409 -0.0172  0.3423 -0.0979
 1855W        W21389   5.107   6.855  12.752  0.0942  0.4420  0.2497
 1856W        W21390  13.527  16.502   2.536 -0.0012  0.0237 -0.3243
 1857W        W21391  14.900   2.546  12.986 -0.2172 -0.2854 -0.2580
 1858W        W21392  15.531  13.941  16.009 -0.2041 -0.3601  0.0410
 1859W        W21393  12.209  16.878   2.062 -0.2549 -0.2657 -0.1101
 1860W        W21394   8.317   7.519   2.920  0.1394  0.1976 -0.0526
 1861W        W21395  16.074   6.890  13.920  0.0533  0.0365  0.2441
 1862W        W21396  13.688   0.263  14.174  0.0841 -0.0605 -0.2386
 1863W        W21397  11.069   1.653   2.065 -0.1506 -0.2554  0.0669
 1864W        W21398   3.980   9.803   4.541 -0.4351  0.0880  0.1791
 1865W        W21399  15.649   4.846   0.739 -0.3830  0.0046 -0.1939
 1866W        W21400  10.991   8.059  15.432 -0.1262 -0.1559 -0.3204
 1867W        W21401   4.835   2.624   2.892 -0.3487 -0.0862  0.5145
 1868W        W21402  16.126   2.609   3.797  0.1316  0.0285 -0.2117
 1869W        W21403   3.328  11.577   3.994 -0.0127 -0.1472 -0.0335
 1870W        W21404  17.509  13.860   3.935 -0.0486 -0.0470 -0.0691
 1871W        W21405  14.604   2.011   0.380  0.1329  0.1328  0.0448
 1872W        W21406   7.936   5.468  13.340 -0.1810  0.1281  0.0852
 1873W        W21407   9.317   3.734  15.251  0.5264 -0.1424 -0.0912
 1874W        W21408  17.369  13.028   4.459  0.0818  0.2704  0.2641
 1875W        W21409  12.729  10.535   3.969  0.2325 -0.2319 -0.0844
 1876W        W21410   0.713   5.213  12.761 -0.1352  0.0433  0.0525
 1877W        W21411  11.835  11.170  14.891  0.1724 -0.0613  0.2920
 1878W        W21412   2.665   4.836  11.466  0.0239 -0.1715 -0.1303
 1879W        W21413   1.165  10.915  12.219  0.1477  0.2745  0.1118
 1880W        W21414   7.806   7.610  13.565 -0.2699 -0.1279  0.0616
 1881W        W21415  11.663   6.233  14.346 -0.2222 -0.0247  0.2515
 1882W        W21416   6.961  16.382  12.898 -0.1409  0.1144 -0.3404
 1883W        W21417   9.310   5.162   1.995  0.1251 -0.2083  0.0810
 1884W        W21418  15.751  10.745  11.843 -0.2600  0.0682  0.0215
 1885W        W21419  14.001   3.084   0.908  0.2042 -0.0597 -0.1238
 1886W        W21420  17.325   6.756  15.369  0.4416  0.0375  0.2300
 1887W        W21421   1.795  12.357   3.790 -0.5297 -0.0148 -0.2752
 1888W        W21422   6.257  13.970   2.634  0.1404  0.2061  0.1625
 1889W        W21423   1.565  17.500   4.717  0.0401  0.0555 -0.1134
 1890W        W21424   2.101  13.606  13.327  0.1346  0.0457 -0.1438
 1891W        W21425  10.399  10.505   3.807 -0.0295  0.4038  0.2513
 1892W        W21426   1.750  12.524   1.566  0.0414  0.0051  0.1530
 1893W        W21427  10.851   2.105   1.376  0.4469 -0.0253 -0.1594
 1894W        W21428  12.621  13.717   1.975  0.1028 -0.0784  0.1950
 1895W        W21429  14.955  16.274  15.262 -0.1613 -0.2962  0.2493
 1896W        W21430   6.197   7.571   5.162  0.2320 -0.2097  0.2103
 1897W        W21431   4.040  17.249  16.018  0.0224 -0.0198 -0.0502
 1898W        W21432   4.125  14.282   0.295 -0.0172 -0.2737  0.0774
 1899W        W21433   0.759   0.741   3.546 -0.1569  0.2197  0.2798
 1900W        W21434  14.358   5.817  14.028 -0.3468 -0.0172  0.0661
 1901W        W21435   5.424   4.475   5.675 -0.0897  0.0568  0.0063
 1902W        W21436   6.439   4.500   6.331 -0.1394 -0.4267 -0.1833
 1903W        W21437   7.717   0.766  13.579  0.0382  0.2382  0.1102
 1904W        W21438   9.094  13.894   3.283 -0.1035  0.2011  0.0983
 1905W        W21439   8.007   5.493   4.648 -0.3356  0.0722  0.0603
 1906W        W21440  14.721  14.928  14.834 -0.0998  0.0734 -0.1189
 1907W        W21441   3.496  15.572   4.380  0.1141 -0.0373  0.1377
 1908W        W21442   6.836  16.898  12.661 -0.1589 -0.0704  0.1396
 1909W        W21443  13.931   2.194  13.270  0.0459  0.2836  0.2973
 1910W        W21444   4.957  11.353  14.197  0.0434  0.2325  0.0414
 1911W        W21445  12.662  12.179   0.178 -0.4734  0.4828 -0.0192
 1912W        W21446   3.948  10.373   3.336 -0.0306  0.0866 -0.3119
 1913W        W21447  11.063  16.658  15.741 -0.2629  0.0161  0.1025
 1914W        W21448   8.750  13.658  16.399 -0.0238  0.0900 -0.0113
 1915W        W21449  12.360   1.069  15.247  0.0320 -0.2660 -0.2038
 1916W        W21450  17.169  13.656   1.040 -0.2801 -0.2156 -0.1054
 1917W        W21451  15.970   8.824   4.298 -0.3183  0.4150  0.1523
 1918W        W21452  10.970   1.461  14.629 -0.0765  0.0056 -0.3037
 1919W        W21453   3.334  14.766  13.362 -0.1092 -0.1079  0.2344
 1920W        W21454   9.602   3.494  14.946  0.2939 -0.0911 -0.0196
 1921W        W21455  14.953  10.057  13.176  0.1271  0.1215 -0.1787
 1922W        W21456  10.003  13.437  11.888  0.0490  0.1081  0.1616
 1923W        W21457   6.619   0.776   0.155 -0.2035  0.2140  0.0071
 1924W        W21458  11.990   3.933  14.816 -0.2989 -0.2292 -0.0402
 1925W        W21459  11.724   2.597   4.607  0.0111 -0.0823  0.1305
 1926W        W21460  11.724   3.027  15.129  0.0193 -0.2019  0.3458
 1927W        W21461  10.579  15.108   2.311  0.1763 -0.2873 -0.1490
 1928W        W21462   7.765   5.175  15.662  0.3428 -0.0564 -0.0477
 1929W        W21463  17.385  12.078   0.427 -0.0996  0.0009  0.0093
 1930W        W21464   1.671  16.895  12.405  0.1297 -0.0052 -0.2551
 1931W        W21465   8.334  13.201   4.433 -0.1084  0.1454 -0.0223
 1932W        W21466   0.306   4.364  12.831  0.0122 -0.0228 -0.2590
 1933W        W21467   2.308  10.476  12.837  0.0084 -0.0966 -0.0003
 1934W        W21468  11.617  16.852  16.337 -0.0381 -0.5127 -0.0495
 1935W        W21469  11.083   0.127   5.266  0.1071  0.0305  0.0698
 1936W        W21470  13.255  10.638   4.673 -0.1803  0.0738  0.3267
 1937W        W21471   2.823  13.944  13.469  0.0818 -0.0421  0.0278
 1938W        W21472   4.708   6.156   2.841  0.0418  0.2714 -0.0626
 1939W        W21473  11.934   9.759   4.654 -0.1110 -0.2140  0.2414
 1940W        W21474   8.615   6.581   3.930 -0.0487 -0.1510 -0.0270
 1941W        W21475  10.836  15.991  15.321 -0.2256  0.1650  0.2271
 1942W        W21476   9.113   0.619   1.801 -0.0320  0.2887 -0.0657
 1943W        W21477  11.060   3.721  12.907 -0.1645 -0.1249 -0.2036
 1944W        W21478   3.815   3.641  14.724 -0.2104 -0.2044  0.0537
 1945W        W21479   2.451  17.520   4.651 -0.0173 -0.2095  0.1286
 1946W        W21480   5.422   6.020  13.991  0.1113 -0.1020  0.1456
 1947W        W21481   0.905  17.770  11.881  0.1838 -0.2546  0.0748
 1948W        W21482  15.427  14.997   2.136  0.0456 -0.1353  0.0361
 1949W        W21483   1.741   2.512  15.235  0.2106  0.1121  0.4493
 1950W        W21484   4.198  14.591   3.592 -0.1735  0.0555 -0.0005
 1951W        W21485   8.484  13.790  12.918  0.0990  0.1795 -0.2637
 1952W        W21486   2.966   7.497   4.395 -0.1069 -0.2851  0.0182
 1953W        W21487  10.153  13.058   0.311 -0.1424  0.0458 -0.3574
 1954W        W21488  11.429   0.136  14.693  0.0554 -0.1251 -0.0010
 1955W        W21489  11.452   1.900  11.649 -0.0804  0.1355 -0.1777
 1956W        W21490   7.151   6.417   2.987 -0.2990  0.1060  0.1994
 1957W        W21491  17.156  14.400   1.773  0.0139 -0.0100  0.1854
 1958W        W21492  15.080   4.802  11.938 -0.1685  0.2988  0.2843
 1959W        W21493   1.641   4.042  14.728  0.2562 -0.0582  0.0679
 1960W        W21494  14.027   3.056  16.094  0.2342 -0.0891  0.2865
 1961W        W21495   3.815  10.718  15.605  0.3150 -0.1193 -0.0435
 1962W        W21496  11.846  15.226  14.071 -0.1034 -0.0839  0.0298
 1963W        W21497   8.431  13.124   5.273 -0.0326 -0.1376 -0.0435
 1964W        W21498  15.704  10.480   3.167  0.0578 -0.0535  0.0900
 1965W        W21499   5.942   7.733  14.838  0.1827  0.1262  0.1784
 1966W        W21500   3.893   9.589   2.853  0.0625  0.0131 -0.2382
 1967W        W21501  11.284   1.975   4.685  0.3687  0.2317 -0.0823
 1968W        W21502   1.594   1.521  15.614 -0.0093  0.1277 -0.1893
 1969W        W21503   2.879  14.688   1.239 -0.2168  0.5534 -0.1609
 1970W        W21504  14.786   6.802   1.947 -0.1634 -0.1367 -0.3654
 1971W        W21505   8.159   3.049   1.724  0.0059 -0.2826 -0.3220
 1972W        W21506  10.925   2.973  14.922  0.2657 -0.0387 -0.0393
 1973W        W21507  12.739   2.352   2.180  0.1378 -0.0230  0.0882
 1974W        W21508  10.609   2.564  14.811 -0.0766  0.0851  0.0954
 1975W        W21509   8.626  10.976  12.355 -0.0227  0.3704  0.0976
 1976W        W21510   6.780   3.907   5.647  0.2132 -0.2101  0.0820
 1977W        W21511   4.500   0.093  14.215 -0.1536 -0.0585 -0.2239
 1978W        W21512  16.163   1.735   3.287 -0.3077  0.0031 -0.1019
 1979W        W21513   8.708   5.874  12.632 -0.0489 -0.4139  0.0457
 1980W        W21514   1.167  16.767   3.595  0.0786  0.0142 -0.1042
 1981W        W21515   1.080   6.370  14.471 -0.1809 -0.1112 -0.1637
 1982W        W21516  12.640   5.692  12.774  0.1586 -0.2261 -0.0721
 1983W        W21517  12.287   9.168  13.772 -0.0861  0.2014 -0.0747
 1984W        W21518   1.497   9.702   3.632 -0.4033 -0.2756  0.1902
 1985W        W21519   0.621   7.801   4.280  0.2078 -0.0532  0.0206
 1986W        W21520   6.623  16.498   2.845  0.1739 -0.0441 -0.0195
 1987W        W21521  15.986  14.426   1.001  0.3751 -0.1683 -0.0854
 1988W        W21522  11.942   5.589  13.473  0.3905  0.1975  0.2584
 1989W        W21523   2.984   1.069  15.801 -0.0323 -0.2425 -0.1160
 1990W        W21524  17.484   4.013  15.469 -0.2136 -0.0422 -0.0004
 1991W        W21525  15.685  15.141  12.335  0.2365 -0.0204 -0.2056
 1992W        W21526   3.201  15.837  12.666  0.1621  0.1132  0.0237
 1993W        W21527  10.923  10.711   0.297 -0.1522  0.1270  0.1058
 1994W        W21528  17.622   6.751   3.996  0.3000 -0.0202 -0.0189
 1995W        W21529   3.832   0.195  15.621  0.0824 -0.3099  0.4120
 1996W        W21530   5.940  13.767   0.759 -0.0703 -0.0459  0.2168
 1997W        W21531   5.185  13.991  12.705 -0.1269  0.2890  0.1023
 1998W        W21532  14.117   5.795  16.644 -0.0986 -0.2410  0.1253
 1999W        W21533   6.204   3.120  15.626  0.1815  0.0290  0.1690
 2000W        W21534   1.463  14.849   0.733 -0.1202 -0.1268 -0.1198
 2001W        W21535   7.511   7.183   2.865 -0.3766  0.0853 -0.1030
 2002W        W21536  14.603   1.909  14.570 -0.1947 -0.0103 -0.0850
 2003W        W21537  14.469  10.089   4.520 -0.1510 -0.0754 -0.0877
 2004W        W21538   4.505   3.496  15.607  0.0904  0.2399  0.1812
 2005W        W21539  11.773  14.869   2.395  0.2068  0.1234  0.2760
 2006W        W21540  16.489   2.658  16.141  0.0527 -0.0218 -0.0952
 2007W        W21541  14.744   4.808   1.378 -0.0501  0.1345  0.0089
 2008W        W21542  15.314   6.490  14.930  0.4314  0.1064 -0.0750
 2009W        W21543  15.533   4.729  12.176 -0.1509 -0.3242  0.0200
 2010W        W21544   1.449   6.108   0.300  0.0169 -0.1439 -0.3161
 2011W        W21545  17.525  13.142  14.587 -0.0778  0.1320 -0.0616
 2012W        W21546   2.389   6.341  12.243 -0.0629  0.1330 -0.1861
 2013W        W21547  16.170   8.377  15.226 -0.3129  0.2150  0.1565
 2014W        W21548   1.063   3.761  12.886 -0.0565  0.1484 -0.1713
 2015W        W21549   0.993  15.818  15.015 -0.1251 -0.0390 -0.1603
 2016W        W21550  13.213   8.553  16.104 -0.0101  0.0335 -0.2763
 2017W        W21551   3.758   5.455  11.895  0.0131  0.0708  0.0166
 2018W        W21552   9.311   4.173   0.028 -0.0685 -0.0893 -0.0125
 2019W        W21553   5.118  17.116   4.819  0.0196  0.0473 -0.1294
 2020W        W21554   8.619   0.341   4.990  0.1630  0.0856 -0.1040
 2021W        W21555  13.953   2.580  16.037 -0.1010 -0.0588 -0.1093
 2022W        W21556  11.827   1.347  15.103  0.0852  0.0170 -0.1566
 2023W        W21557   2.671  15.162   4.303 -0.1281 -0.3903 -0.0559
 2024W        W21558   2.739  15.233  12.050  0.0626  0.0845 -0.0835
 2025W        W21559   3.470  15.074  12.914 -0.3719  0.2084 -0.0210
 2026W        W21560   5.646   1.239   1.086 -0.1969  0.0344  0.1793
 2027W        W21561   2.764   6.893  12.348  0.3764 -0.0452  0.3614
 2028W        W21562   2.736  17.222  12.538 -0.2694  0.0145  0.0280
 2029W        W21563   3.532   9.978   4.133  0.0158 -0.3181  0.2559
 2030W        W21564   0.991   3.930   1.419  0.0637 -0.1706 -0.0309
 2031W        W21565  11.835   5.140  13.749  0.3606  0.0059  0.1114
 2032W        W21566   9.719   7.506  12.236  0.0729  0.1788  0.2305
 2033W        W21567   9.818  16.829   1.031  0.1678  0.2811 -0.0861
 2034W        W21568  14.072  10.471  16.569 -0.0631  0.0484 -0.0981
 2035W        W21569  14.039   3.295   1.778 -0.1203  0.0731  0.2323
 2036W        W21570  14.647   7.023  15.818 -0.1149  0.1119 -0.0829
 2037W        W21571   4.347  16.943   0.986 -0.0900 -0.0504 -0.2652
 2038W        W21572  17.077   2.199  13.192 -0.1021  0.0790  0.0452
 2039W        W21573   3.240  15.357  16.619  0.1459  0.0753  0.0182
 2040W        W21574  17.209   5.123   4.119 -0.0629 -0.1184 -0.1015
 2041W        W21575   0.111   3.775  16.654  0.1170 -0.1502 -0.2099
 2042W        W21576   8.636   1.682  12.483 -0.3482  0.1825  0.0786
 2043W        W21577   0.646   1.181  13.012  0.1469 -0.1193 -0.0467
 2044W        W21578   0.998  16.653   0.989 -0.3379 -0.0057  0.1384
 2045W        W21579  12.922  15.512  11.984  0.1988 -0.0622 -0.2305
 2046W        W21580   3.178   0.646  12.527 -0.1836 -0.1549 -0.0807
 2047W        W21581   9.464  11.359  12.847 -0.2489  0.2558  0.4305
 2048W        W21582  13.704   7.657   0.534  0.0253  0.1590  0.1792
 2049W        W21583   5.296   9.987  16.747 -0.0358  0.0050  0.3081
 2050W        W21584   0.977   9.398   4.431  0.0078 -0.0471  0.3055
 2051W        W21585  12.644  11.680  14.054 -0.1944  0.0305  0.1046
 2052W        W21586  16.114   5.570   4.499 -0.0042  0.0708  0.0750
 2053W        W21587   2.844  12.211   0.586 -0.0318 -0.1083  0.0529
 2054W        W21588   5.655  11.683   3.202 -0.0589  0.3340 -0.2177
 2055W        W21589   1.584  15.490  16.214  0.0643 -0.1659  0.1405
 2056W        W21590  11.522   5.828  14.556 -0.2994  0.1294 -0.2733
 2057W        W21591   5.984  12.524  13.827  0.0161 -0.1327  0.2465
 2058W        W21592   1.165  11.471  11.951 -0.0894  0.2788 -0.0984
 2059W        W21593  11.338   4.435  10.583 -0.1564 -0.1607 -0.4856
 2060W        W21594   6.576  11.155   2.174  0.2145  0.1096 -0.0038
 2061W        W21595  17.136  10.675  14.902  0.0399  0.1794 -0.0413
 2062W        W21596   9.637  11.144   2.528 -0.2006 -0.2344 -0.0410
 2063W        W21597  12.231   5.388  15.138 -0.2163 -0.4093 -0.2386
 2064W        W21598  10.443   1.633   4.210 -0.0103 -0.1012 -0.0209
 2065W        W21599  11.269   4.657   1.356  0.0047  0.2146  0.0625
 2066W        W21600  17.012  15.183   0.450 -0.0269 -0.1306 -0.1197
 2067W        W21601   0.292  17.618   4.044  0.0808 -0.1269  0.0302
 2068W        W21602   3.242   5.137  15.252 -0.0260  0.4505 -0.0027
 2069W        W21603  14.974  14.109   2.038  0.1284  0.1578  0.0108
 2070W        W21604  10.139   6.984   0.336 -0.0295  0.1850 -0.5616
 2071W        W21605   5.061  11.394   2.532 -0.2140  0.2142  0.4399
 2072W        W21606   5.124   2.886   4.382 -0.1346 -0.2298 -0.4129
 2073W        W21607   2.132   4.630   4.770 -0.3292  0.1962 -0.0250
 2074W        W21608   2.947  16.228  16.417  0.0141 -0.1034  0.0617
 2075W        W21609   3.572   3.216  15.548  0.0836 -0.1997 -0.2396
 2076W        W21610   1.235  11.341   0.999  0.1161 -0.2044  0.0503
 2077W        W21611  13.508   5.013  12.344  0.2552  0.0741 -0.1255
 2078W        W21612  15.800   0.968  15.027 -0.0573 -0.3028  0.1821
 2079W        W21613  13.526  13.094  16.467 -0.0003 -0.0554 -0.3107
 2080W        W21614  16.370   5.456  15.311 -0.4290  0.1111 -0.3459
 2081W        W21615  16.837  12.612  13.690 -0.0701  0.2010  0.3047
 2082W        W21616   6.755   7.629   3.127 -0.1245 -0.2365 -0.1104
 2083W        W21617   5.740  14.561  13.506 -0.0055 -0.0848 -0.1293
 2084W        W21618  10.377   5.746   2.278 -0.2123  0.0990  0.3780
 2085W        W21619   0.262   8.079  11.580 -0.1793 -0.2804  0.2009
 2086W        W21620   2.187   6.838  12.214 -0.0766  0.1310  0.4326
 2087W        W21621  15.787  15.490   1.269 -0.0956  0.3953 -0.0342
 2088W        W21622  14.357   6.263   4.542  0.0306 -0.0982  0.0866
 2089W        W21623  11.060  15.238  16.313 -0.2801 -0.0099  0.2478
 2090W        W21624  11.841   7.632  13.693 -0.0801 -0.2228  0.1161
 2091W        W21625  16.295  10.093   1.292  0.2665 -0.1400  0.0431
 2092W        W21626  12.469   7.363  13.732 -0.3106  0.2655 -0.4104
 2093W        W21627  17.106   5.445   0.853  0.1259  0.2043  0.1459
 2094W        W21628  17.543  17.034   0.386  0.1934 -0.0495 -0.2325
 2095W        W21629   9.126   6.642  16.596 -0.3283  0.1440  0.1810
 2096W        W21630  13.069  13.615   3.242 -0.1213 -0.1362  0.1478
 2097W        W21631   4.186   6.512  13.512  0.2954  0.0651  0.1693
 2098W        W21632   6.473  13.983  12.823  0.0355  0.2226  0.0530
 2099W        W21633   0.337   6.056  16.318  0.1757  0.0992 -0.1246
 2100W        W21634   5.244   0.460   4.964  0.2451  0.5238 -0.1031
 2101W        W21635  15.659  12.659  15.570 -0.0791 -0.2319 -0.0277
 2102W        W21636  10.264   5.994   3.546 -0.2128 -0.4981  0.3063
 2103W        W21637   0.415  13.400  15.447  0.2483  0.3442  0.0441
 2104W        W21638   8.205  15.436  14.614 -0.3225 -0.2148 -0.2948
 2105W        W21639   3.920   8.877  16.717 -0.1353 -0.1760 -0.1070
 2106W        W21640  16.566  16.676  16.030  0.2668 -0.2124  0.0152
 2107W        W21641  16.194   6.428  16.360  0.0294 -0.0215 -0.0641
 2108W        W21642  17.005  17.089   3.837  0.0196 -0.1122 -0.0453
 2109W        W21643   2.465  11.249  12.022  0.0805  0.1417 -0.1267
 2110W        W21644  14.172   2.133  16.005 -0.1228  0.1654  0.2028
 2111W        W21645   5.845  16.741   2.851 -0.1127 -0.0395 -0.1094
 2112W        W21646  13.458  14.450  14.378  0.2076 -0.1314 -0.2518
 2113W        W21647  17.204  17.427   4.231 -0.1791  0.0683  0.0903
 2114W        W21648  10.912   6.551   1.929  0.1909  0.1951  0.3627
 2115W        W21649  13.423  10.352  11.957  0.1838 -0.1569 -0.1526
 2116W        W21650  17.900   5.598  12.369 -0.0395 -0.0792 -0.1062
 2117W        W21651   7.443   1.981   3.409  0.3576  0.1634  0.1292
 2118W        W21652   3.582   9.236   0.421 -0.2715  0.0553 -0.2060
 2119W        W21653  13.291  10.574  13.194 -0.0391  0.0114  0.0770
 2120W        W21654  16.310   5.537   1.414 -0.1187 -0.1303  0.1341
 2121W        W21655   7.373   7.347  16.188 -0.1619  0.2499 -0.0291
 2122W        W21656   5.226   4.606   1.971  0.1422  0.0352 -0.1630
 2123W        W21657  12.796   0.931   1.378 -0.1058  0.2107  0.0086
 2124W        W21658   1.798  12.891   2.476  0.2594 -0.0758  0.0991
 2125W        W21659  15.828   9.116   2.710  0.1437  0.1483 -0.0770
 2126W        W21660   9.775   1.544   2.080 -0.0331 -0.3710 -0.0997
 2127W        W21661  14.248   3.565  14.360  0.2113 -0.0931 -0.1620
 2128W        W21662   3.937   9.736   1.508  0.1811 -0.0807 -0.2738
 2129W        W21663   9.983   0.205  14.318  0.0248  0.0629 -0.0258
 2130W        W21664  16.420  13.166  16.685  0.2878  0.1404 -0.0713
 2131W        W21665   5.701   6.514   0.822  0.0290  0.0976  0.1964
 2132W        W21666  10.324   4.115   3.789 -0.1933 -0.0052  0.4082
 2133W        W21667   8.075   9.778  15.249  0.1785 -0.1675  0.1224
 2134W        W21668  15.485   3.208   0.764  0.0839  0.2006 -0.0522
 2135W        W21669  12.840   7.563   0.950  0.1624 -0.0754 -0.1111
 2136W        W21670   0.628  15.953   2.741 -0.2370  0.1060 -0.1547
 2137W        W21671   5.082  11.753  15.694  0.0477 -0.2330  0.2051
 2138W        W21672   9.675   4.758  12.521  0.0946  0.0892  0.0738
 2139W        W21673   0.302  11.096  12.083  0.4542 -0.3013 -0.0159
 2140W        W21674  12.963   8.325  16.532 -0.1294  0.2053 -0.0814
 2141W        W21675  15.318  14.422   1.836  0.0527 -0.0247  0.2010
 2142W        W21676  15.675  16.450   4.996 -0.0925 -0.0006 -0.1601
 2143W        W21677  10.476  13.245   1.129  0.3386 -0.0331 -0.1722
 2144W        W21678   2.169   0.237  13.618  0.1003  0.1324 -0.1084
 2145W        W21679   0.143  14.814  12.512  0.0503  0.2121  0.0956
 2146W        W21680   3.905  12.119  12.750  0.0030 -0.2167  0.0655
 2147W        W21681  17.158   7.820  13.661 -0.1099  0.0512 -0.0188
 2148W        W21682  16.506  15.027   1.345  0.1231 -0.0407  0.4267
 2149W        W21683   8.223   2.036  13.461 -0.0590 -0.2764 -0.0268
 2150W        W21684   6.642   7.206   3.426  0.1250  0.1355  0.4868
 2151W        W21685  11.639  11.589   2.902 -0.1322 -0.0604  0.0397
 2152W        W21686  15.580  14.645  13.610 -0.0150 -0.2793  0.5629
 2153W        W21687   7.828  11.666  14.468 -0.3088 -0.2322  0.2193
 2154W        W21688  17.023  15.194  13.474 -0.0572 -0.0090  0.2025
 2155W        W21689   6.290   2.509   5.565  0.1869 -0.1292 -0.1996
 2156W        W21690   2.709   3.911   1.282 -0.1603 -0.1684  0.0641
 2157W        W21691   2.844  12.778   1.491 -0.4869 -0.3038 -0.1200
 2158W        W21692   3.463  13.913   0.882 -0.1049 -0.2138 -0.3005
 2159W        W21693  12.406  10.005   2.263 -0.0862  0.1358 -0.1825
 2160W        W21694  16.642   4.383  16.506 -0.2626  0.2151  0.2490
 2161W        W21695  13.801   0.888  15.104  0.2344 -0.2674 -0.1897
 2162W        W21696   2.874   0.793   2.617 -0.1887 -0.0577  0.1737
 2163W        W21697   4.763  10.634   0.209 -0.0443 -0.0448 -0.1174
 2164W        W21698   9.700  14.003  11.611 -0.3933  0.2195  0.3467
 2165W        W21699  16.800  16.122   3.372  0.0135  0.1370  0.3307
 2166W        W21700   5.986   1.691  15.906 -0.4945  0.2775  0.5036
 2167W        W21701  17.538   3.987   0.854 -0.0891 -0.1936 -0.1278
 2168W        W21702   1.016  12.639   4.769  0.1066 -0.0324  0.0577
 2169W        W21703   6.841   7.098   3.866 -0.1689 -0.0309 -0.1796
 2170W        W21704   1.249  14.176  12.505 -0.1424 -0.0623  0.0083
 2171W        W21705  14.611   9.759   3.736 -0.0328  0.1875 -0.0281
 2172W        W21706  12.546   7.616   2.076 -0.1438 -0.1639  0.0318
 2173W        W21707   0.223   3.954  12.213  0.0667  0.4106  0.1487
 2174W        W21708  17.426   5.866   0.697  0.0233 -0.1007  0.0072
 2175W        W21709   3.499  14.053  16.357 -0.3118 -0.1602 -0.2402
 2176W        W21710   1.858   3.516   0.889  0.0479  0.1453 -0.0739
 2177W        W21711   2.037   7.698   3.580 -0.2231 -0.0196 -0.0143
 2178W        W21712   5.189   1.112  12.214 -0.0380  0.0690  0.2097
 2179W        W21713  15.599   5.002  16.465  0.1358  0.3814 -0.1964
 2180W        W21714  17.576  16.464   0.376  0.1252 -0.3526 -0.2167
 2181W        W21715   2.971  17.757  12.596 -0.1656  0.0355 -0.3095
 2182W        W21716   4.588  16.487  13.608 -0.2946  0.0101 -0.0684
 2183W        W21717  13.708  12.497   4.690  0.1423  0.1034 -0.1229
 2184W        W21718   9.750  14.286  15.847  0.0856 -0.1755  0.2777
 2185W        W21719   2.341  14.066  13.468 -0.1686 -0.3500 -0.1126
 2186W        W21720  15.293   6.852   3.635  0.1553 -0.3105 -0.3821
 2187W        W21721  17.528  11.145   2.188  0.2609  0.1177  0.2835
 2188W        W21722   6.947   7.533   3.634 -0.4895 -0.0357  0.0987
 2189W        W21723   4.687   3.948  15.832 -0.0152 -0.0261  0.0367
 2190W        W21724   6.056   4.446   4.498  0.3012 -0.2770 -0.0647
 2191W        W21725  15.689   3.833   0.583  0.0202  0.1483 -0.2027
 2192W        W21726  16.048   4.455  13.251  0.0932 -0.1997  0.1061
 2193W        W21727  15.755   0.596  12.998  0.0552  0.1237  0.2734
 2194W        W21728  11.356  14.620   2.418 -0.1663  0.2795 -0.2587
 2195W        W21729  12.062  10.012   0.725 -0.1602  0.2482  0.0325
 2196W        W21730  13.352   0.091   4.255  0.1139 -0.0735 -0.1199
 2197W        W21731   8.725   7.744  12.450  0.0399 -0.0686  0.1404
 2198W        W21732   4.606   1.470   2.379 -0.3350 -0.2425  0.4600
 2199W        W21733   5.878   4.763  15.046  0.1344 -0.0201  0.1884
 2200W        W21734   7.966   2.275  11.660  0.1725 -0.0281  0.0795
 2201W        W21735   9.042   8.210   4.801  0.1073  0.1685 -0.3533
 2202W        W21736  15.813  17.349   1.542  0.1168 -0.1401  0.2047
 2203W        W21737   0.087   4.071   1.660 -0.0840  0.1288 -0.0283
 2204W        W21738  17.195  15.323   3.586 -0.1155 -0.0998 -0.3204
 2205W        W21739   9.833   7.906   0.294 -0.1082  0.0168  0.1714
 2206W        W21740   8.972  16.027   3.222  0.1592  0.2328  0.0412
 2207W        W21741   7.616   0.739  14.280  0.3888  0.3059  0.1535
 2208W        W21742   9.988   5.203   4.040 -0.1958  0.1716  0.2822
 2209W        W21743   7.224  12.825  15.752  0.2617 -0.2135  0.2650
 2210W        W21744   4.887  16.820   2.372 -0.0238  0.0098  0.0681
 2211W        W21745   5.714   6.830   4.362  0.1686 -0.1596 -0.0563
 2212W        W21746  12.665   5.747  15.509 -0.4015 -0.2413  0.1032
 2213W        W21747  16.908   1.469  14.432 -0.1667  0.2302 -0.0857
 2214W        W21748   9.817   7.107   0.758 -0.1037 -0.0936 -0.0932
 2215W        W21749   9.082   0.198  13.223 -0.0274 -0.3696 -0.1295
 2216W        W21750   7.598   1.828   2.163 -0.0573 -0.0185  0.1100
 2217W        W21751   4.450   8.827  16.638  0.0836  0.0930 -0.2909
 2218W        W21752  10.344   9.222   4.489  0.2221 -0.0538 -0.1539
 2219W        W21753  15.218   6.084   0.111  0.1055  0.0001 -0.1061
 2220W        W21754   1.589   7.954   4.464 -0.1513  0.0013 -0.0891
 2221W        W21755  10.147   8.189   0.007 -0.0497 -0.2650  0.2478
 2222W        W21756  13.618   2.507  16.396 -0.0659 -0.0549  0.0087
 2223W        W21757   1.534   8.912   5.165  0.1684 -0.2970  0.0220
 2224W        W21758  13.750   4.099   0.087 -0.0320  0.0755  0.1903
 2225W        W21759  12.189   6.412  12.238  0.0393  0.0395 -0.1933
 2226W        W21760  10.998  12.318   1.694 -0.3145 -0.0577 -0.1559
 2227W        W21761  14.930  12.730   1.326  0.1105 -0.2191  0.0206
 2228W        W21762  10.682  12.006   0.838 -0.0710 -0.4322  0.2172
 2229W        W21763  16.678  13.402   3.723  0.2192  0.2263 -0.1089
 2230W        W21764   2.918  12.824  12.196  0.0402 -0.1419 -0.2069
 2231W        W21765   7.674  16.620   3.195 -0.1948  0.1174 -0.2652
 2232W        W21766  17.439   6.884  12.287  0.0633  0.0266  0.0661
 2233W        W21767  17.610  13.282  15.113 -0.4289 -0.2205  0.3589
 2234W        W21768   3.364   6.022   3.790 -0.0551  0.0450 -0.1132
 2235W        W21769  17.834   7.524   1.619  0.1011 -0.1821  0.1154
 2236W        W21770  12.289   7.208  12.039 -0.2760 -0.2421  0.0073
 2237W        W21771   7.894  15.104  15.685  0.0543 -0.0976 -0.0197
 2238W        W21772   9.175  10.249   3.891  0.2532  0.0465 -0.0738
 2239W        W21773   8.664   7.183  16.009  0.0979 -0.0910 -0.2346
 2240W        W21774  17.047   0.171   1.242  0.2904  0.0682  0.0169
 2241W        W21775   8.699   9.406  12.610  0.4118  0.3144  0.0022
 2242W        W21776  11.078   3.289   3.090 -0.0246  0.1564  0.0997
 2243W        W21777   6.165   6.024   2.917  0.1667 -0.0666 -0.0372
 2244W        W21778  12.920   1.846   2.131 -0.0630 -0.0083  0.0287
 2245W        W21779   3.997  17.446   3.849  0.0210 -0.0430 -0.1968
 2246W        W21780  10.374  10.482   4.637  0.1114  0.4422 -0.1103
 2247W        W21781   9.163   5.767  14.117 -0.1658  0.4423  0.0333
 2248W        W21782  14.345   9.825  14.285 -0.0500 -0.0076  0.3355
 2249W        W21783  11.371  12.735   0.036 -0.2982 -0.2461 -0.0476
 2250W        W21784  12.697   1.507   3.904  0.0221 -0.2743  0.3272
 2251W        W21785   1.314   3.815  14.984 -0.2529 -0.2418 -0.2846
 2252W        W21786   7.591  13.155   3.778  0.2863 -0.2337  0.2838
 2253W        W21787  10.949   2.388   4.646 -0.0199 -0.1315  0.0917
 2254W        W21788   5.757   2.807   5.256 -0.0893 -0.1534 -0.2586
 2255W        W21789   5.979  15.580   4.626 -0.0445  0.1500  0.0157
 2256W        W21790  15.350   2.381  16.644 -0.2128 -0.0849  0.0922
 2257W        W21791  11.908  12.772  12.766  0.1244  0.0615  0.0364
 2258W        W21792   0.043   2.293  15.914 -0.1711  0.1979 -0.3319
 2259W        W21793   4.168  10.595  14.973  0.1916 -0.0887  0.0962
 2260W        W21794   4.176   8.535  13.420 -0.0296 -0.0007  0.0937
 2261W        W21795  12.702  15.288  12.385  0.3232 -0.1423 -0.0028
 2262W        W21796   2.549  16.531  16.303 -0.1503 -0.2639 -0.1164
 2263W        W21797  17.127   0.660   1.138  0.3292 -0.3457  0.1467
 2264W        W21798   1.690   8.949   2.934  0.0540 -0.0925  0.0216
 2265W        W21799   0.020   0.784  14.705 -0.1972 -0.0559 -0.0481
 2266W        W21800   2.564   4.126  12.520 -0.1016 -0.2133 -0.1050
 2267W        W21801   3.451   4.194  16.355  0.1020  0.1495  0.0369
 2268W        W21802   9.236   0.614  15.139 -0.0183  0.3361  0.0517
 2269W        W21803   0.384  15.859   4.561  0.3321  0.1212  0.2000
 2270W        W21804  13.620  16.079   4.190  0.0356 -0.1930  0.1504
 2271W        W21805   9.536  13.865   1.345 -0.0404 -0.1832  0.2843
 2272W        W21806  15.291   5.603  14.831  0.2755  0.0212 -0.3734
 2273W        W21807  17.831  14.890  14.300  0.2173 -0.4081 -0.1799
 2274W        W21808  12.180  14.923  14.291  0.0373  0.0659 -0.2231
 2275W        W21809   4.802  15.708  16.360  0.0823 -0.1353  0.0106
 2276W        W21810   4.160   9.260  15.195  0.1130 -0.3323  0.6661
 2277W        W21811  14.438   1.965  13.317 -0.2664 -0.0360 -0.0755
 2278W        W21812  17.026   1.164   1.815 -0.0808 -0.0820 -0.1734
 2279W        W21813  15.066   2.721   0.462 -0.0049 -0.2022  0.1971
 2280W        W21814   8.711   0.875  16.579 -0.1325  0.0627  0.3083
 2281W        W21815  15.979   6.584   2.578  0.3074 -0.1452 -0.0212
 2282W        W21816   5.665  17.309   2.557 -0.2278  0.0182 -0.6316
 2283W        W21817   8.538  11.225  15.428 -0.2000  0.1017 -0.0499
 2284W        W21818   7.320   6.004  13.810 -0.0030 -0.0010  0.0032
 2285W        W21819   5.468  13.963  14.820  0.1430  0.1956  0.2273
 2286W        W21820   6.837   7.976   3.938  0.0362  0.0861  0.0356
 2287W        W21821   2.973  12.315   1.074 -0.0782  0.2048 -0.0495
 2288W        W21822  13.203   2.299  14.584 -0.1005  0.1416  0.0653
 2289W        W21823   0.264  13.261   0.165 -0.0437 -0.0011  0.1674
 2290W        W21824  14.938   3.583  13.209  0.0926  0.0488  0.0311
 2291W        W21825   0.264   1.062   3.799  0.0915 -0.1601  0.0242
 2292W        W21826   0.813   8.491   2.719 -0.0775  0.3274 -0.2431
 2293W        W21827   1.183   5.302  14.413  0.3967  0.2915  0.1258
 2294W        W21828   2.051   9.197   3.779 -0.1420 -0.1205  0.0991
 2295W        W21829   4.027   5.329   4.290  0.1721  0.4028  0.1758
 2296W        W21830   0.510   8.255   4.465  0.0321  0.1614  0.1677
 2297W        W21831   1.942   4.602  11.929 -0.0399  0.1315 -0.0823
 2298W        W21832   6.021   0.793  12.347 -0.0397 -0.1288  0.2884
 2299W        W21833   8.186  16.600   3.481  0.2559 -0.0591 -0.0446
 2300W        W21834  10.486  14.867  16.610  0.2708 -0.0037 -0.0790
 2301W        W21835   6.287   6.769   4.573  0.1001 -0.1528  0.0094
 2302W        W21836  13.464  17.063   4.230  0.0363  0.1820  0.1948
 2303W        W21837  11.733   5.364   2.616  0.1671  0.0848 -0.0224
 2304W        W21838   9.156  11.663  12.512  0.3637  0.2173 -0.0284
 2305W        W21839   1.825  10.179  12.217 -0.1913  0.0334 -0.0032
 2306W        W21840   5.704   3.993   2.307 -0.0246 -0.2197 -0.0340
 2307W        W21841   0.487   9.252   4.272 -0.1987  0.1109  0.4165
 2308W        W21842  15.689   1.748   1.801 -0.0306  0.0506  0.1442
 2309W        W21843  15.855   4.001   2.880 -0.1631  0.2314 -0.0023
 2310W        W21844  13.489  10.808   1.294 -0.0028  0.0903  0.3093
 2311W        W21845   8.877   6.461  15.267  0.0317  0.1072 -0.2512
 2312W        W21846  10.058   7.637  14.425 -0.0883  0.2564  0.0042
 2313W        W21847   2.173   1.257   3.689 -0.0404  0.3139 -0.1661
 2314W        W21848   8.480   6.866   1.707  0.2722  0.1403 -0.2915
 2315W        W21849   8.769  11.829   0.121  0.2412  0.0573 -0.1008
 2316W        W21850  12.337  15.206   5.828 -0.1707  0.0509  0.1262
 2317W        W21851   7.586   6.684   2.959  0.0590  0.4571 -0.1957
 2318W        W21852   7.992   1.179   4.043  0.0778  0.2460  0.2196
 2319W        W21853   0.094   2.372   2.358 -0.1867  0.2288  0.1012
 2320W        W21854  11.718  15.400   2.955 -0.4015  0.0928 -0.0003
 2321W        W21855   3.238   8.182  13.042  0.0892  0.2609  0.1589
 2322W        W21856   7.797   0.385  15.666  0.1972 -0.1192 -0.1514
 2323W        W21857   0.380   7.011   0.784  0.1115 -0.0541  0.0254
 2324W        W21858   0.525   0.080   3.228  0.0556 -0.0262  0.1847
 2325W        W21859  13.592  13.991  14.468  0.1589 -0.0840 -0.0394
 2326W        W21860  15.756   8.174  11.279 -0.0915  0.0935  0.3428
 2327W        W21861  11.242  12.117  14.302  0.0329 -0.0154 -0.1191
 2328W        W21862  15.083   5.173  15.025  0.2026 -0.0404 -0.2464
 2329W        W21863   6.994  16.421   0.003 -0.0296  0.3837 -0.2576
 2330W        W21864  14.689  14.614   4.727  0.2107 -0.0149 -0.0922
 2331W        W21865  16.816  11.318  13.500 -0.0905 -0.0419 -0.1045
 2332W        W21866   5.204  10.159  13.431  0.0153  0.1593 -0.3366
 2333W        W21867  16.230   9.148  15.068 -0.1635  0.3978 -0.1740
 2334W        W21868  15.495   6.405   4.424 -0.0422 -0.0082 -0.3019
 2335W        W21869  12.111   0.099  12.032 -0.0651  0.2602 -0.0109
 2336W        W21870   6.403   9.073  15.730  0.2852  0.1582 -0.1493
 2337W        W21871   0.020   4.318  16.719  0.0657 -0.3178 -0.1371
 2338W        W21872  14.696  15.780  16.028  0.3062  0.1985 -0.0054
 2339W        W21873  11.152   1.181   3.698  0.0514 -0.1016  0.2969
 2340W        W21874   5.769   5.229   3.814  0.2645 -0.0817  0.0453
 2341W        W21875   2.388   1.226  13.549  0.2692 -0.0155  0.0604
 2342W        W21876   0.443  17.840   4.571 -0.0621 -0.1406  0.0702
 2343W        W21877   6.097   0.580  14.428  0.0514  0.0674  0.0380
 2344W        W21878   2.553  12.743   3.681 -0.2094  0.0814  0.2193
 2345W        W21879  14.670   0.541   1.480 -0.2212 -0.0274  0.0485
 2346W        W21880  10.789   9.936  13.890 -0.3142  0.2838 -0.0814
 2347W        W21881  12.803  16.348   3.054 -0.0897  0.2830 -0.2143
 2348W        W21882   4.228  14.270  12.360  0.0228 -0.0847  0.0378
 2349W        W21883   1.921   4.449   4.024  0.2905 -0.0199  0.2541
 2350W        W21884  17.488   8.796  16.201 -0.2303 -0.1712  0.0375
 2351W        W21885   2.203   7.322  13.056  0.0260 -0.0817  0.0485
 2352W        W21886  15.415  10.338   0.460  0.0277 -0.1054  0.1015
 2353W        W21887   7.866  17.770   2.866  0.3212 -0.0084 -0.0034
 2354W        W21888  11.174   0.958  13.189  0.1519 -0.3479  0.3078
 2355W        W21889  17.233   8.059  12.869 -0.1315  0.2269  0.4549
 2356W        W21890  11.658   8.746   1.363  0.0578  0.4219  0.0065
 2357W        W21891  15.026   1.586   4.088  0.0448 -0.1262  0.2237
 2358W        W21892  14.831   1.856  13.728 -0.0728 -0.0987  0.2329
 2359W        W21893  12.795  15.817  14.901 -0.0529  0.0619 -0.0910
 2360W        W21894  12.760  13.645  12.900 -0.2133 -0.2236  0.0744
 2361W        W21895  10.275   8.221  15.268  0.1222 -0.3423  0.0536
 2362W        W21896   7.451  10.531  15.214  0.2722  0.0258  0.0048
 2363W        W21897  13.102   7.244   3.616  0.1288  0.0808  0.0490
 2364W        W21898  12.455   0.337   3.570  0.0483 -0.2118  0.1789
 2365W        W21899   2.188   8.083  15.642 -0.1063  0.0374  0.1008
 2366W        W21900  10.539  16.862   4.589 -0.0263  0.0121 -0.1385
 2367W        W21901   0.541   6.401   1.693  0.2988  0.3801  0.2799
 2368W        W21902   8.321   8.751  15.346 -0.0378  0.1474  0.4243
 2369W        W21903  13.374   4.822   3.615  0.0672 -0.2981  0.0524
 2370W        W21904  10.860   0.346   3.437  0.0473 -0.0362  0.1404
 2371W        W21905  10.037  12.080   3.138 -0.1493 -0.0404 -0.1227
 2372W        W21906  11.387   3.081   5.605 -0.0392 -0.0890 -0.1221
 2373W        W21907   6.485  15.961  14.691  0.2949 -0.0139 -0.1634
 2374W        W21908  16.653   8.621  15.001 -0.2364  0.0967 -0.0036
 2375W        W21909  11.605   5.294  13.222 -0.0870 -0.1070 -0.0315
 2376W        W21910   5.484  11.880  15.439  0.1526 -0.0821  0.1607
 2377W        W21911  13.285   8.183  12.501 -0.0722 -0.1892  0.2529
 2378W        W21912   9.881   5.766  14.614 -0.0637  0.0570  0.2648
 2379W        W21913   3.357  12.247  15.055 -0.3295  0.1922  0.2529
 2380W        W21914   1.261   0.639  11.375  0.0171  0.0380 -0.0191
 2381W        W21915   5.724   7.353   2.432 -0.2432  0.2772 -0.0272
 2382W        W21916   5.334  13.874   0.035  0.1969  0.0306 -0.0783
 2383W        W21917  10.402   2.031  13.004  0.0015  0.2049  0.2423
 2384W        W21918  14.743   1.313   1.439  0.0820 -0.0259  0.2828
 2385W        W21919   4.470  10.082  15.381 -0.1489  0.1514 -0.0453
 2386W        W21920   8.344   6.330  12.030  0.0615 -0.3587 -0.1534
 2387W        W21921   0.698  10.082   4.335 -0.0247  0.2861  0.1517
 2388W        W21922   7.247  13.760  12.663 -0.1875 -0.1847 -0.1920
 2389W        W21923  14.322   9.973  12.358  0.1160  0.2156 -0.3019
 2390W        W21924   0.816   6.998   2.905 -0.3440 -0.0876  0.0834
 2391W        W21925  15.697  14.381  15.831 -0.0387 -0.2399  0.2582
 2392W        W21926  17.810  15.808  15.200 -0.3388 -0.1738 -0.0257
 2393W        W21927   8.584   4.550  12.325  0.2540  0.0145 -0.1334
 2394W        W21928  12.688   8.317   0.825  0.0955 -0.0498 -0.1099
 2395W        W21929   6.208   2.986  16.731 -0.2485 -0.2178  0.1031
 2396W        W21930  16.233  14.659   1.492  0.1219 -0.1539  0.1891
 2397W        W21931  17.312  15.930   3.381 -0.0347 -0.2808  0.1249
 2398W        W21932   7.001  14.404   0.696  0.1977 -0.4263  0.1345
 2399W        W21933  13.767   0.576   1.740 -0.1864  0.0947 -0.3979
 2400W        W21934   6.706   4.474  16.305  0.1643 -0.0307  0.1512
 2401W        W21935   7.547   4.520  14.195 -0.4440  0.1958  0.1847
 2402W        W21936  12.487  10.203   1.619  0.4638 -0.3257  0.0400
 2403W        W21937  15.053  12.849  16.616 -0.2031 -0.0569  0.0702
 2404W        W21938   2.574   7.699   1.417 -0.1398  0.3585 -0.0892
 2405W        W21939  13.005   0.124   1.380  0.0557  0.5668  0.1722
 2406W        W21940  17.407  13.937  14.493  0.0606  0.1561  0.0936
 2407W        W21941  12.290  13.908  12.175 -0.0382  0.0891 -0.1444
 2408W        W21942  12.763  13.481  13.704 -0.2014  0.0511 -0.0643
 2409W        W21943  17.329   5.131  15.618 -0.0254 -0.1185  0.0351
 2410W        W21944   0.044  16.254  16.007  0.1037  0.0389 -0.1443
 2411W        W21945   7.737  14.722   1.926 -0.2366  0.1234 -0.1160
 2412W        W21946   2.328   6.433  13.586  0.1295 -0.0418  0.3079
 2413W        W21947   3.790  14.711   0.146  0.1034 -0.2175 -0.0286
 2414W        W21948  17.540  15.067   1.569  0.0022 -0.0874 -0.1066
 2415W        W21949  17.819  11.074   1.515 -0.2150 -0.2291  0.0701
 2416W        W21950   0.190   7.046  16.396 -0.2327  0.0154 -0.1772
 2417W        W21951   2.684   1.584   0.574  0.2629 -0.0438  0.1252
 2418W        W21952   3.127   7.417   0.994 -0.0926 -0.2344 -0.2093
 2419W        W21953   6.128   3.009   4.254 -0.1421  0.0033 -0.1222
 2420W        W21954   9.265  14.747  15.360  0.1662 -0.0200  0.0803
 2421W        W21955   5.573   0.424  15.349  0.0708  0.2241  0.0981
 2422W        W21956   8.203   3.386   0.514 -0.0411 -0.0264 -0.0833
 2423W        W21957  10.428   6.175   0.060  0.1536 -0.1681  0.0468
 2424W        W21958   1.696   3.171   3.088 -0.0743 -0.1322  0.2330
 2425W        W21959   4.382  17.851  16.683  0.1818 -0.0856  0.0526
 2426W        W21960  13.711  13.002  15.240  0.0969 -0.2822 -0.0267
 2427W        W21961  16.187  13.770  15.314  0.2567  0.0648  0.3087
 2428W        W21962   0.955   5.448   3.781 -0.1641  0.1508 -0.2232
 2429W        W21963  10.331  11.814   2.752 -0.1359  0.2346  0.0006
 2430W        W21964  15.366   8.889  13.782  0.3090  0.0283  0.0401
 2431W        W21965   5.842   9.718  16.238 -0.0671 -0.1050 -0.0228
 2432W        W21966   3.822  11.411   1.919 -0.1610 -0.2735 -0.1911
 2433W        W21967  13.913   6.279  15.869 -0.0843 -0.0471  0.0786
 2434W        W21968   6.061   7.086  11.625 -0.2494  0.2722 -0.0385
 2435W        W21969  14.534  11.157   2.464  0.0154 -0.0432 -0.0629
 2436W        W21970  12.082   9.019  12.051 -0.2488 -0.0525  0.0747
 2437W        W21971  10.783  13.944   4.157 -0.2017 -0.3218 -0.2245
 2438W        W21972  12.675   0.630   3.978  0.4821 -0.0427 -0.0649
 2439W        W21973  15.451  11.047   1.558  0.0343  0.0532  0.3073
 2440W        W21974   7.729   2.026  13.360 -0.0642 -0.0304  0.1881
 2441W        W21975   6.611  12.445   4.403 -0.0007 -0.1582  0.0955
 2442W        W21976   1.587   1.942   4.484 -0.0378 -0.1516  0.0549
 2443W        W21977   1.068  16.720   3.031 -0.0516 -0.0098 -0.1065
 2444W        W21978  10.521  15.797  12.611  0.2060 -0.1662 -0.0402
 2445W        W21979   5.778  17.178   3.068  0.2809  0.0204 -0.0924
 2446W        W21980  17.385   5.964   2.401 -0.3179 -0.1557  0.2504
 2447W        W21981  12.307   3.652  13.839 -0.2547 -0.0369  0.1010
 2448W        W21982   2.634   7.974  15.283 -0.1417  0.2043  0.2461
 2449W        W21983   7.921   8.108  13.566 -0.0998 -0.6608 -0.3369
 2450W        W21984   1.475   1.275   5.697 -0.0433  0.1606 -0.0967
 2451W        W21985  12.521   0.654   2.248  0.3289 -0.2070 -0.0877
 2452W        W21986   3.005  10.293   3.742 -0.1082  0.0330 -0.3761
 2453W        W21987   7.010  12.061  14.263 -0.2150  0.1231  0.0479
 2454W        W21988   0.858  10.047   1.754  0.1385  0.2292  0.0719
 2455W        W21989  10.363   4.811  11.388  0.0937  0.0707 -0.1065
 2456W        W21990  14.376  14.495  16.728  0.0900  0.2566  0.3945
 2457W        W21991   4.872   2.069  14.701  0.1511  0.2554  0.0508
 2458W        W21992  16.890   4.279  13.379 -0.0709 -0.2144 -0.0212
 2459W        W21993   6.307  12.419  11.791 -0.0231 -0.0879  0.3214
 2460W        W21994  10.236   0.642   4.277  0.0206 -0.0606  0.3572
 2461W        W21995  16.953   1.948  16.096  0.0682  0.4173 -0.1033
 2462W        W21996  10.048   3.741  13.150 -0.0611  0.0271 -0.1361
 2463W        W21997  12.260   8.761  14.082  0.1910  0.1594 -0.2187
 2464W        W21998   1.521  13.774  12.665 -0.0141 -0.0046  0.0266
 2465W        W21999   6.535   0.145   2.356  0.2071 -0.0963 -0.0815
 2466W        W22000   7.397   9.435   0.695  0.2689 -0.1072  0.4237
 2467W        W22001   7.391   2.709   1.536 -0.0687  0.1338  0.0248
 2468W        W22002  14.002  15.560  16.399 -0.2207 -0.2419  0.2234
 2469W        W22003   3.345  11.369  12.776  0.0350 -0.2303  0.2847
 2470W        W22004  13.637  11.676   1.140 -0.0838  0.0912 -0.1930
 2471W        W22005   4.779   7.793  15.927  0.3747  0.0690  0.2009
 2472W        W22006  10.846   9.170   2.235 -0.0292  0.2038  0.1751
 2473W        W22007   5.395   9.087   2.330 -0.0885  0.0107  0.1110
 2474W        W22008   3.658   0.322  14.693  0.0698 -0.1448 -0.1235
 2475W        W22009   6.546  10.492  13.129 -0.3303 -0.2375  0.0319
 2476W        W22010   3.243  16.574   2.202 -0.0821  0.0278  0.1563
 2477W        W22011   5.350   7.375  14.041  0.0403  0.0259 -0.0806
 2478W        W22012  15.364  15.773   1.632 -0.0620 -0.5554 -0.6627
 2479W        W22013   5.877   4.744   3.238  0.0572  0.0097  0.0432
 2480W        W22014  17.087   0.182   4.820  0.0344 -0.1901  0.0622
 2481W        W22015   0.191   5.608  15.740  0.2327 -0.1476 -0.1824
 2482W        W22016  14.324   4.080   2.527  0.0643  0.3838 -0.2331
 2483W        W22017  12.224   2.593   1.149  0.2938  0.2562  0.2550
 2484W        W22018   7.283   2.681  14.709 -0.2406  0.0163 -0.0811
 2485W        W22019   4.032   3.128  12.078 -0.2764  0.1056  0.2347
 2486W        W22020   0.570  16.912   3.057 -0.0863 -0.0147 -0.2525
 2487W        W22021   0.548   1.951   4.229 -0.0739 -0.1768  0.3332
 2488W        W22022   4.800   1.742   5.491 -0.0159  0.5127 -0.2249
 2489W        W22023  11.992  15.705  13.781 -0.3129 -0.1371 -0.0381
 2490W        W22024  10.842  13.213  14.551 -0.1476  0.0420 -0.0346
 2491W        W22025   6.738   4.294  14.274  0.3168 -0.1271  0.1562
 2492W        W22026  15.586   9.030  12.583  0.3181  0.0728 -0.1640
 2493W        W22027   2.076   7.314  12.579 -0.2610  0.0155  0.0468
 2494W        W22028   9.212  17.099  13.973  0.2765 -0.0401  0.2303
 2495W        W22029  10.790   9.971   1.395 -0.0456 -0.1445 -0.0950
 2496W        W22030   9.793   6.581   0.451  0.2919  0.0564  0.0008
 2497W        W22031  15.189   3.162  15.357  0.3194 -0.1379  0.0904
 2498W        W22032  13.447   2.912  16.122  0.0987 -0.1079  0.1239
 2499W        W22033  17.209  17.467  14.420 -0.1760 -0.0119  0.1029
 2500W        W22034   6.554   1.033   2.129  0.3902 -0.1310 -0.1027
 2501W        W22035   8.158   7.010  14.946 -0.1048 -0.4043 -0.0085
 2502W        W22036  10.374   2.952   2.408 -0.1230  0.0890  0.0933
 2503W        W22037   6.482  13.523  16.266 -0.3275  0.0905 -0.0187
 2504W        W22038  16.303   6.567  14.978  0.0363  0.0105  0.1610
 2505W        W22039  13.524   9.357  13.955 -0.2396 -0.0228  0.1262
 2506W        W22040   7.310   4.899   0.125  0.1543 -0.0462  0.0447
 2507W        W22041   8.978   7.616   0.925 -0.1706  0.0424 -0.2774
 2508W        W22042   6.546   3.709   2.922 -0.4899 -0.0194  0.0114
 2509W        W22043  10.624   3.523  11.971  0.1094  0.0171 -0.0928
 2510W        W22044   2.417  15.967   4.654 -0.1645  0.1370 -0.1768
 2511W        W22045  10.650   1.202  16.566  0.0390  0.1519  0.1274
 2512W        W22046   2.074   1.994   2.804  0.2064 -0.0968 -0.1273
 2513W        W22047  12.196  15.724   1.232 -0.1442 -0.3768  0.0893
 2514W        W22048  15.476  13.129   0.071  0.3304  0.3007 -0.1125
 2515W        W22049  10.234   3.316  14.178  0.3954 -0.4905 -0.0463
 2516W        W22050   1.888   0.046   2.874  0.0521  0.0083  0.0309
 2517W        W22051  17.307  16.405   3.473 -0.1403  0.3290 -0.2049
 2518W        W22052   7.205  11.430   1.000 -0.0164  0.1221 -0.2669
 2519W        W22053   8.944  11.405   0.272  0.1087 -0.1781  0.1612
 2520W        W22054  12.652   1.576   2.475  0.0066 -0.0397 -0.3692
 2521W        W22055   7.058  16.240  13.938 -0.2200  0.2165 -0.1513
 2522W        W22056  13.813  11.872  14.978  0.0038 -0.0039  0.1128
 2523W        W22057   0.756   0.564   1.961  0.1580  0.0587 -0.0402
 2524W        W22058   1.797   0.493   3.528  0.2078  0.2645 -0.0724
 2525W        W22059   9.318   1.446  15.431 -0.2425 -0.1104  0.2046
 2526W        W22060   0.173   4.697   0.668  0.0476  0.1389  0.4283
 2527W        W22061  10.954   5.391   4.157  0.2513 -0.0756  0.2211
 2528W        W22062   3.300   5.870  12.507  0.1786  0.1318 -0.2450
 2529W        W22063   5.403   1.818   0.392  0.2538  0.2074  0.2488
 2530W        W22064   6.092  12.028   3.825 -0.0275 -0.2626  0.1450
 2531W        W22065  10.046  13.972   1.241 -0.1500 -0.0829  0.0382
 2532W        W22066   3.080  17.179   2.984  0.0576 -0.1510  0.0565
 2533W        W22067  16.022  17.649  12.066 -0.4346 -0.0680  0.2741
 2534W        W22068  14.874   6.923  15.400 -0.1259 -0.0205 -0.0932
 2535W        W22069  15.786   0.821  12.514  0.0709 -0.0634  0.0196
 2536W        W22070  15.691  13.132  16.396 -0.2411  0.0204 -0.2400
 2537W        W22071   7.192  10.800   0.807 -0.0521  0.1489 -0.2204
 2538W        W22072  17.144  15.553  13.837  0.0273  0.0263  0.0282
 2539W        W22073  12.597   8.434   2.272  0.2220 -0.0460 -0.3551
 2540W        W22074   3.765   0.073   4.608 -0.0678  0.0248  0.2988
 2541W        W22075   1.444   8.041  15.726 -0.1640  0.0751  0.0710
 2542W        W22076  13.320   9.703  12.410  0.1442 -0.0420 -0.0421
 2543W        W22077   9.238  17.786  12.335  0.0844  0.1682 -0.1949
 2544W        W22078  10.891   5.576   1.645  0.0612  0.1027  0.1373
 2545W        W22079   3.389   3.292  16.068 -0.1155  0.1038  0.0343
 2546W        W22080  13.528  14.521  16.678 -0.1116 -0.2365 -0.1605
 2547W        W22081  16.572  12.537  11.043 -0.1615  0.1701  0.0355
 2548W        W22082  17.583   9.816  13.377  0.0197  0.0041  0.0702
 2549W        W22083   1.100  11.394   2.241  0.2094 -0.1754 -0.0403
 2550W        W22084  15.503   0.510  12.214  0.0855  0.0906  0.1495
 2551W        W22085   5.279  10.533  16.663  0.1498  0.0038  0.0515
 2552W        W22086   1.639  13.805   2.328  0.0868 -0.1744  0.2387
 2553W        W22087   7.840   4.278   3.964 -0.2519  0.1393  0.1420
 2554W        W22088  10.891   6.003  13.375 -0.1287  0.1855 -0.0485
 2555W        W22089  15.724  11.947   4.139  0.0586  0.0475 -0.0149
 2556W        W22090   7.920   4.770   4.114  0.1033  0.3078 -0.1130
 2557W        W22091   4.744   7.194   4.354 -0.0266  0.2693  0.1085
 2558W        W22092  16.577   8.998   4.204 -0.0977  0.3181  0.1589
 2559W        W22093  16.522   4.350   4.807  0.1089 -0.2044  0.2295
 2560W        W22094  13.685  16.162  13.174  0.0582  0.0201 -0.5035
 2561W        W22095  14.117   3.577   0.124  0.1500  0.0570 -0.2755
 2562W        W22096  17.017   6.531  15.859 -0.1327  0.2067  0.2193
 2563W        W22097   2.059   3.782  16.696 -0.1719  0.1499 -0.2946
 2564W        W22098   3.931  13.085   3.820 -0.2709  0.1902  0.4702
 2565W        W22099  13.137  13.459  14.714 -0.2255  0.1562 -0.1487
 2566W        W22100  14.910   7.502  16.616 -0.1145  0.1094 -0.0191
 2567W        W22101   6.683   3.783   2.126 -0.4912  0.0218 -0.1553
 2568W        W22102   0.082   4.821  16.574  0.1385  0.2169 -0.0356
 2569W        W22103   2.839  16.663  14.801  0.0134 -0.0019 -0.2176
 2570W        W22104  11.832   3.255  16.541  0.0687 -0.0478  0.1851
 2571W        W22105  16.746   8.468   4.088 -0.1605  0.1645  0.2014
 2572W        W22106   0.623  17.680   2.251 -0.2627 -0.1183 -0.0691
 2573W        W22107   0.644  13.230  16.609  0.0644  0.3126 -0.2825
 2574W        W22108   6.716   3.309  11.690  0.0329  0.5791 -0.1543
 2575W        W22109   6.776   7.035   4.336  0.3262 -0.0867 -0.4064
 2576W        W22110   0.532   8.660   4.100  0.0538  0.4438  0.1022
 2577W        W22111  14.982   0.402   3.005  0.0971  0.0199 -0.0490
 2578W        W22112  12.729   7.444  12.889 -0.0784 -0.3452  0.0046
 2579W        W22113   8.463  11.240  11.973 -0.0796 -0.1015 -0.5080
 2580W        W22114  10.871   8.928   2.888  0.0978  0.1380  0.0048
 2581W        W22115  10.741  10.594   4.260 -0.2782 -0.0520 -0.1905
 2582W        W22116   4.829  16.965   3.905 -0.4331  0.2147 -0.2756
 2583W        W22117   3.199  10.851   3.076  0.1962  0.2400  0.2010
 2584W        W22118   5.883   0.113  16.668 -0.2443 -0.1489 -0.2302
 2585W        W22119  16.224  16.351  14.477  0.0088 -0.0677 -0.0409
 2586W        W22120   2.776   6.688   2.971 -0.0207 -0.1183 -0.2840
 2587W        W22121  10.839   0.948   4.784 -0.0933 -0.0107  0.1166
 2588W        W22122  17.069   5.130   3.435 -0.2618 -0.0896 -0.3188
 2589W        W22123   5.175   0.936   2.658 -0.3254  0.2557  0.1073
 2590W        W22124   2.232  10.567  14.780 -0.0968  0.2109 -0.2045
 2591W        W22125   0.407   2.378   3.048  0.0556  0.1139 -0.3142
 2592W        W22126  11.529   7.616   5.631 -0.4318  0.0702 -0.1176
 2593W        W22127   4.953   2.360  15.203  0.0416 -0.3480 -0.1730
 2594W        W22128   9.908  10.393  15.173 -0.1682  0.0240  0.4052
 2595W        W22129  16.426  14.688  14.984  0.0258 -0.1821  0.0581
 2596W        W22130   3.412  15.834   1.081 -0.4499  0.1603 -0.0277
 2597W        W22131  16.509   6.883  13.594 -0.0331 -0.1716 -0.0261
 2598W        W22132   1.910  17.754  13.260 -0.1139  0.0595 -0.3209
 2599W        W22133   7.388   2.937   4.725  0.2631 -0.1770  0.2146
 2600W        W22134  11.464   9.440   3.371  0.0883 -0.0483  0.2305
 2601W        W22135   8.621  17.905  15.356 -0.2017  0.0006  0.0945
 2602W        W22136   6.622   7.119  16.174 -0.1995 -0.2727 -0.1559
 2603W        W22137  15.585   3.024  14.632  0.3284  0.0348  0.1306
 2604W        W22138  12.760  14.672   3.623  0.2299  0.0675  0.0863
 2605W        W22139  12.843  12.983   2.449  0.1559  0.1033 -0.1915
 2606W        W22140   4.212   8.913   2.215  0.0247 -0.1246 -0.2399
 2607W        W22141   8.272   1.628   5.227 -0.0299 -0.1137 -0.0879
 2608W        W22142   1.560  14.820   1.410  0.0424  0.0847 -0.0090
 2609W        W22143   9.475   5.636   2.083  0.2119  0.3507  0.2527
 2610W        W22144   1.017   7.673  11.666 -0.1150  0.2230 -0.2051
 2611W        W22145  10.653  17.337   0.107  0.1201 -0.0956  0.4842
 2612W        W22146   0.450   4.802  13.519 -0.1498 -0.4214  0.3957
 2613W        W22147  11.227   7.208   4.541 -0.0107  0.0636 -0.0709
 2614W        W22148  15.788   1.969   2.591 -0.2199 -0.1169 -0.1214
 2615W        W22149   4.962   4.101   4.586  0.3695 -0.0443 -0.0536
 2616W        W22150  10.071  13.397   0.922 -0.1911 -0.1106  0.1209
 2617W        W22151   2.626   3.413  15.376  0.2035 -0.0162 -0.1603
 2618W        W22152  15.450   7.364   2.700  0.0906  0.0730  0.0900
 2619W        W22153  17.853   1.673   2.742 -0.4398  0.4671  0.1806
 2620W        W22154   3.802   3.153   1.715 -0.0822  0.2804  0.3377
 2621W        W22155   2.594  10.626  15.808 -0.2938  0.1582  0.1941
 2622W        W22156   7.226   6.973  15.068  0.2300 -0.0779 -0.0606
 2623W        W22157   1.449  15.038   2.925  0.0535 -0.2445 -0.0699
 2624W        W22158  11.998  10.270  15.080 -0.0269  0.1054 -0.0299
 2625W        W22159   5.401  10.499   4.683  0.0918 -0.1053 -0.0130
 2626W        W22160   3.148  17.288   3.631  0.0550 -0.3992 -0.2091
 2627W        W22161  12.433   0.663  14.883  0.2992 -0.0561  0.0624
 2628W        W22162   4.071  16.009   2.244 -0.0796 -0.0993 -0.2542
 2629W        W22163   0.471  17.751  13.613  0.1712 -0.2755  0.0904
 2630W        W22164   0.735   6.915   1.619  0.0498 -0.1430  0.2817
 2631W        W22165  17.271  12.792   4.010 -0.2701  0.0764 -0.2891
 2632W        W22166  13.764  10.684   4.721  0.0217 -0.4281  0.2203
 2633W        W22167   4.853  15.689   0.534 -0.1053  0.1643 -0.1116
 2634W        W22168  11.495  17.436  14.540  0.1298  0.1222  0.0198
 2635W        W22169  10.873  13.143   3.879 -0.2669  0.4506  0.1972
 2636W        W22170   4.894   3.419  16.006  0.1318 -0.1034  0.2402
 2637W        W22171   1.976  16.319  16.399  0.1966 -0.0366  0.0304
 2638W        W22172  11.997   7.466  16.029 -0.0283 -0.0567 -0.0774
 2639W        W22173   4.959   7.576  15.205 -0.1084  0.0772  0.1807
 2640W        W22174   1.250  15.973  15.797 -0.1287  0.0528 -0.1285
 2641W        W22175  15.376   6.366   3.383  0.1833 -0.1347  0.0949
 2642W        W22176   8.761   5.826  15.091  0.3008  0.0916  0.0329
 2643W        W22177  14.641   0.386   2.102  0.1486  0.0358 -0.1070
 2644W        W22178  11.553   1.409   3.617  0.1271  0.0837 -0.2047
 2645W        W22179   2.144  14.154  13.001 -0.0765 -0.0776 -0.0301
 2646W        W22180  10.946   0.324  14.636 -0.1272  0.0740  0.0840
 2647W        W22181  14.100   0.477   0.835  0.0913 -0.0544  0.0791
 2648W        W22182   9.131  13.554  12.986 -0.0902  0.1917 -0.0358
 2649W        W22183  14.214  16.149  12.674 -0.1523  0.0448 -0.0538
 2650W        W22184   6.680   3.217  14.369  0.0945 -0.2543 -0.0641
 2651W        W22185   4.764   2.830   3.929  0.1092  0.2189  0.2343
 2652W        W22186  10.431   9.270  13.529  0.0181  0.1015 -0.0752
 2653W        W22187  15.042   0.926   0.369  0.0500  0.0819 -0.1167
 2654W        W22188  10.282  13.910  12.447 -0.0546  0.1677  0.0244
 2655W        W22189   0.429  13.978   1.933  0.1699  0.1809  0.1569
 2656W        W22190   9.988  16.162   4.520 -0.1205 -0.2429 -0.3464
 2657W        W22191  13.984  12.907  13.692 -0.0033  0.4598 -0.1150
 2658W        W22192   4.161  15.687   4.387  0.0925  0.4458 -0.2453
 2659W        W22193  16.827   9.926  14.897  0.0408  0.1869  0.0723
 2660W        W22194   5.213  15.271  13.965  0.1567  0.1631  0.1077
 2661W        W22195   5.989   0.924   3.336  0.0966  0.4382 -0.2089
 2662W        W22196  15.198  17.194  15.531 -0.1087  0.1336 -0.0798
 2663W        W22197  12.557  13.270   4.353 -0.1661 -0.0569  0.0785
 2664W        W22198   3.679  15.170  13.371  0.3040  0.2076 -0.2257
 2665W        W22199   3.071   4.144  12.342  0.4862 -0.1647  0.0302
 2666W        W22200   7.054   8.759  12.870 -0.0556  0.2643  0.0807
 2667W        W22201   3.990   7.376   2.852  0.0478  0.1460  0.0930
 2668W        W22202  15.216   9.110  15.873 -0.0119  0.1891 -0.1261
 2669W        W22203   6.942   4.162  13.451 -0.5441  0.0735  0.3063
 2670W        W22204   1.708  11.159   4.530 -0.1435 -0.0957 -0.1059
 2671W        W22205  12.986  10.432   3.566  0.0258 -0.0008  0.1904
 2672W        W22206   9.038   0.743  15.590  0.0167  0.0393 -0.2018
 2673W        W22207   4.928   3.537  12.917  0.2703  0.0710 -0.0463
 2674W        W22208  11.194  13.323   1.815  0.0822 -0.2504  0.0729
 2675W        W22209  11.956   0.561  15.706 -0.0043  0.2902 -0.1044
 2676W        W22210  15.273  14.722  16.636 -0.1938  0.3154  0.0441
 2677W        W22211  14.069  11.972   1.023  0.0795 -0.1892  0.2187
 2678W        W22212   3.532  16.297  14.474 -0.0153 -0.1082  0.1106
 2679W        W22213  13.804   9.523  14.956 -0.1097 -0.1955  0.0786
 2680W        W22214   6.072   9.729  12.146 -0.0432 -0.0852  0.0169
 2681W        W22215  17.545  12.655   0.381 -0.1818 -0.2548  0.1535
 2682W        W22216  12.329   4.534  12.759  0.1111  0.0718 -0.1933
 2683W        W22217   1.353   3.225  14.156 -0.1810 -0.1038  0.1034
 2684W        W22218  16.052   7.489   0.817 -0.1421 -0.1552 -0.1881
 2685W        W22219   1.930  15.091   2.707  0.0338 -0.3458 -0.0830
 2686W        W22220   5.350   7.621   2.178  0.0071  0.0376 -0.2441
 2687W        W22221  16.951  13.556  12.202  0.0577 -0.0357 -0.1144
 2688W        W22222   7.034   1.816  12.631  0.2692  0.2764  0.1888
 2689W        W22223   0.652   6.368  14.776 -0.1017  0.1250  0.0022
 2690W        W22224  14.727   9.095  14.409  0.1082 -0.0448 -0.0827
 2691W        W22225  14.616   6.958  16.702 -0.0985  0.0517 -0.1006
 2692W        W22226   1.753  14.169  14.570 -0.0293 -0.2367 -0.2257
 2693W        W22227   8.636   0.173   1.823 -0.2685 -0.1784  0.1250
 2694W        W22228   7.526   7.852   1.891 -0.1681 -0.2237 -0.1879
 2695W        W22229  14.639  16.549  13.501 -0.2211  0.0382  0.1819
 2696W        W22230   2.568  14.275   1.182  0.2402  0.0036  0.0954
 2697W        W22231  14.507  17.675   1.339 -0.0153 -0.0108  0.2537
 2698W        W22232  12.954  16.319  12.390  0.1749  0.1820  0.1861
 2699W        W22233   8.804   6.879   2.482  0.0103 -0.0507 -0.0219
 2700W        W22234   0.361  16.864   2.598  0.0580  0.0067 -0.1692
 2701W        W22235   8.408   1.444  13.207 -0.0017  0.3631 -0.1070
 2702W        W22236   3.616  10.436  13.306  0.0945  0.0170 -0.1957
 2703W        W22237   2.669   6.343   3.959 -0.0259  0.0297 -0.3864
 2704W        W22238   6.956   6.421  13.005  0.1735 -0.0051 -0.1520
 2705W        W22239   0.359   4.404   4.530 -0.0603 -0.0998 -0.2590
 2706W        W22240  14.547   1.317   4.980  0.1296  0.2233  0.0069
 2707W        W22241   5.086   8.048  15.032  0.0699 -0.2071  0.0848
 2708W        W22242  11.737   8.043  15.144 -0.0370 -0.0034 -0.0201
 2709W        W22243   6.962  16.206   3.699 -0.0816 -0.4112 -0.0755
 2710W        W22244  10.063   0.457   3.050  0.3732 -0.2029 -0.3357
 2711W        W22245   5.872   4.494  16.670  0.0810  0.1080  0.1152
 2712W        W22246  16.191   0.735  12.153 -0.1795 -0.3175  0.0375
 2713W        W22247   8.054   4.428  13.431  0.1290 -0.0743  0.0658
 2714W        W22248  11.842   6.530   0.313 -0.0737 -0.1421  0.2062
 2715W        W22249   1.964   9.531   2.433  0.0289 -0.0096  0.3195
 2716W        W22250   5.996   7.795   1.728  0.0291 -0.0364  0.2051
 2717W        W22251  14.685  17.358  16.479  0.0413 -0.1274  0.2627
 2718W        W22252   8.641   5.823   2.342 -0.3767  0.0186  0.1955
 2719W        W22253  13.520   7.236   0.012 -0.3300 -0.2782 -0.2382
 2720W        W22254   2.695   7.855   4.186  0.0222 -0.1124 -0.0460
 2721W        W22255   6.595   2.460   0.081 -0.1886 -0.0003  0.0917
 2722W        W22256   6.307   1.276  16.184  0.1095 -0.2493 -0.0176
 2723W        W22257   4.557  16.506   4.629 -0.1133 -0.0025 -0.0056
 2724W        W22258   3.990   8.151   4.465 -0.2483  0.0513  0.5177
 2725W        W22259  13.782   3.405  14.289  0.3842  0.0268  0.1530
 2726W        W22260   1.134  12.164   1.551  0.0969 -0.2282  0.0481
 2727W        W22261   3.206   5.459   5.268  0.0326 -0.0192  0.1590
 2728W        W22262   3.903   6.244   2.230 -0.1486  0.0835  0.3831
 2729W        W22263  16.195   9.496  12.624 -0.1831  0.2564  0.0674
 2730W        W22264   9.328  16.500  12.659  0.0123  0.2479  0.2309
 2731W        W22265   5.149   2.815   4.886  0.1263 -0.1672 -0.0419
 2732W        W22266   3.023   6.655   4.609  0.2778 -0.0031  0.0582
 2733W        W22267   6.397   1.788   2.886 -0.2060 -0.1858  0.1490
 2734W        W22268   2.744   7.536  12.938  0.2415  0.0737 -0.3614
 2735W        W22269   2.878  10.220  14.473 -0.0120 -0.0608 -0.1580
 2736W        W22270   6.239   2.263   3.053 -0.1775  0.3686  0.0635
 2737W        W22271   7.264   8.291   4.029 -0.1483  0.0737 -0.1029
 2738W        W22272   1.963  17.608   4.339  0.2164  0.2962 -0.0091
 2739W        W22273   4.763   0.184   4.321  0.2684  0.1180 -0.3303
 2740W        W22274   2.659  16.255   1.547  0.0156  0.1525  0.1586
 2741W        W22275   6.432   1.976   5.358 -0.2825  0.0223 -0.0686
 2742W        W22276  15.400   2.139  14.096  0.2207  0.2272 -0.0601
 2743W        W22277   8.483   2.175   2.278 -0.2332 -0.1269 -0.2987
 2744W        W22278   4.089   7.994  12.524 -0.2317  0.1187  0.0999
 2745W        W22279   0.564  14.824   3.981  0.1000 -0.1159 -0.0735
 2746W        W22280  15.034   8.926  14.789  0.0227 -0.0515 -0.1247
 2747W        W22281   4.527   3.322  12.152  0.3617  0.1592  0.2642
 2748W        W22282  11.774   6.464  14.816 -0.0564 -0.2889  0.0795
 2749W        W22283   4.995   1.971   1.440  0.0857 -0.2222 -0.1706
 2750W        W22284   6.203  16.772  15.586 -0.2817  0.1999 -0.1843
 2751W        W22285   1.846   1.836   2.292  0.0799  0.1782 -0.2857
 2752W        W22286   4.956   9.519   1.702 -0.1623 -0.2448 -0.3178
 2753W        W22287   5.332   5.976  14.832  0.3216  0.1448 -0.3034
 2754W        W22288   6.603  10.438  13.636 -0.0576  0.0109 -0.1947
 2755W        W22289   7.537  10.539  13.548 -0.3133  0.0797 -0.2052
 2756W        W22290   3.277  14.107   2.399  0.0567  0.2404 -0.1109
 2757W        W22291   0.555   3.552  16.588  0.2092  0.1258 -0.0733
 2758W        W22292  12.715  10.844  14.549  0.0014 -0.1831 -0.2917
 2759W        W22293  10.431   7.448  13.395 -0.0774 -0.1041 -0.1334
 2760W        W22294   7.270  14.799  14.653 -0.2269  0.1676  0.2740
 2761W        W22295  15.464   3.896  12.107 -0.0402 -0.4102 -0.2960
 2762W        W22296   3.899   6.745   4.283  0.1060  0.0908 -0.3925
 2763W        W22297  17.531  16.223   2.063 -0.0664 -0.1070 -0.0348
 2764W        W22298  14.176   5.449   0.728  0.2172 -0.1205  0.0109
 2765W        W22299   3.651  16.404   3.970  0.0441 -0.3175  0.2020
 2766W        W22300   6.536   0.366  12.735  0.0422  0.0440 -0.1870
 2767W        W22301  13.317   8.709  12.426 -0.0850  0.2037 -0.1043
 2768W        W22302  11.571   7.609   0.752  0.0264  0.0584 -0.2182
 2769W        W22303  13.930   8.991   1.884  0.2761 -0.0976 -0.0027
 2770W        W22304  16.341   7.804   1.706 -0.1794 -0.0853  0.0165
 2771W        W22305   9.892   3.631   3.010 -0.0705  0.3656  0.0700
 2772W        W22306  14.291   6.441   1.165 -0.3874  0.3488  0.1678
 2773W        W22307  16.711   0.454   1.874 -0.2928 -0.1586 -0.3804
 2774W        W22308  12.148  10.826   3.803  0.1790 -0.0421  0.0273
 2775W        W22309  14.762   7.604   3.395  0.1179  0.0977 -0.2832
 2776W        W22310   5.547   1.303  14.147  0.3874  0.1966  0.2000
 2777W        W22311   0.824  13.531   4.941 -0.0676 -0.2074  0.1607
 2778W        W22312   0.513  14.427   2.243 -0.1243  0.0994  0.0247
 2779W        W22313  14.685   9.250  12.244 -0.0284 -0.0957 -0.2435
 2780W        W22314   9.678  15.661   1.524 -0.2881  0.1384  0.0096
 2781W        W22315   8.858  17.376  12.364  0.4076  0.2446 -0.4285
 2782W        W22316   4.633   9.891  14.369  0.0361 -0.0189  0.1537
 2783W        W22317   2.323  16.071  13.608  0.4043  0.4010 -0.1180
 2784W        W22318   0.197  11.324   0.680  0.0011  0.0873  0.1001
 2785W        W22319   7.687   6.795   1.725  0.0491  0.2743  0.1823
 2786W        W22320  12.196   0.311   2.205  0.0292 -0.2019  0.0871
 2787W        W22321   7.821  15.862   0.248 -0.1816 -0.1515  0.0474
 2788W        W22322  15.820   5.100  12.008  0.0622  0.1415 -0.0133
 2789W        W22323  13.613   7.723   0.059 -0.1096 -0.0609 -0.3029
 2790W        W22324   9.477   0.157   0.156 -0.2139  0.4355 -0.2716
 2791W        W22325  12.144  16.623  12.230  0.2153  0.2179  0.1354
 2792W        W22326  12.726  13.044   3.914 -0.1817  0.0215  0.1205
 2793W        W22327   0.101  11.618   4.458  0.5458 -0.2811  0.0086
 2794W        W22328   8.518   9.509  13.100 -0.3585  0.1340  0.1248
 2795W        W22329  15.881   2.952  16.527 -0.1039  0.1923  0.0159
 2796W        W22330   4.785   9.661  16.666  0.0915  0.0144  0.1132
 2797W        W22331  14.963  13.398   1.884  0.0385  0.3002  0.1986
 2798W        W22332   9.397  12.685  10.876 -0.0304 -0.0665  0.1209
 2799W        W22333  11.981   6.006  12.556  0.0488  0.2045  0.0585
 2800W        W22334   4.934   7.151  12.303 -0.2543 -0.0799 -0.1649
 2801W        W22335   9.628  12.447  13.498  0.0406 -0.1247  0.0660
 2802W        W22336   2.531   0.071  16.418  0.2236  0.1066 -0.0516
 2803W        W22337   8.454   8.880  13.896 -0.0421 -0.0017  0.2069
 2804W        W22338  16.787   6.542   2.234 -0.0705 -0.1612  0.2602
 2805W        W22339   9.668   1.312  16.333  0.1826 -0.0496 -0.2108
 2806W        W22340   5.641   8.783  12.889  0.0579  0.0839  0.1415
 2807W        W22341  12.598   3.836  16.495 -0.1403  0.0529 -0.1325
 2808W        W22342   1.719   9.559  16.204  0.4762  0.1186  0.0242
 2809W        W22343  10.352   0.439  12.737  0.0190 -0.3581  0.0106
 2810W        W22344   8.089  12.970  13.065 -0.1043  0.3144  0.0457
 2811W        W22345   2.974   7.993   1.234 -0.2850  0.1736 -0.0287
 2812W        W22346  17.072  13.070  13.675 -0.2034 -0.0338  0.2433
 2813W        W22347  15.810   6.118   1.095 -0.1619  0.0824  0.0284
 2814W        W22348  14.732  15.666  15.501 -0.0054  0.1711 -0.1394
 2815W        W22349  13.992   2.103   3.278 -0.2030 -0.1528 -0.1176
 2816W        W22350  16.647  10.852  12.094  0.1187 -0.1945  0.0690
 2817W        W22351   0.937   4.940   4.105 -0.1267 -0.1364  0.0036
 2818W        W22352   8.313  12.829  15.624 -0.3093 -0.0121 -0.4765
 2819W        W22353  12.364   1.565  14.492  0.0292 -0.1991 -0.1772
 2820W        W22354   7.662   3.388  14.204  0.1743  0.1808 -0.1389
 2821W        W22355   0.508  13.914  15.477 -0.1339 -0.4317 -0.2038
 2822W        W22356  13.679   0.796  13.061  0.0617 -0.2890  0.3054
 2823W        W22357   7.288   1.945  14.709  0.2062 -0.1267  0.1009
 2824W        W22358  10.775   5.826   2.590  0.0468 -0.4198 -0.0708
 2825W        W22359   8.839   3.715  15.099  0.1008  0.0228 -0.0629
 2826W        W22360  14.675   7.875  11.942  0.0043 -0.0259  0.0852
 2827W        W22361   0.696   1.861  15.010 -0.1415 -0.0262  0.1607
 2828W        W22362   6.414  15.031   4.325  0.0587 -0.1825 -0.0746
 2829W        W22363  10.199  16.650   2.136 -0.3234  0.1676 -0.3173
 2830W        W22364   6.066  14.926   2.541  0.0686 -0.0352 -0.1571
 2831W        W22365   5.006  15.008  15.441 -0.4433  0.1062 -0.1236
 2832W        W22366   1.015   9.322  12.534 -0.0685 -0.2205  0.1559
 2833W        W22367  13.497   9.523  15.794 -0.2142  0.1853  0.3403
 2834W        W22368   3.182  13.776   4.320 -0.1120  0.0332  0.0680
 2835W        W22369   6.187   3.949  12.003  0.1961  0.0366  0.1849
 2836W        W22370  15.611  12.482  12.258  0.1701 -0.1179  0.2153
 2837W        W22371  12.636   0.662  16.271  0.1153  0.0216  0.2081
 2838W        W22372   1.310  13.212  12.340 -0.0314 -0.1135  0.0916
 2839W        W22373  14.553  14.366   2.012  0.0660  0.2440 -0.1761
 2840W        W22374   2.514  12.247   1.925  0.2662 -0.1251  0.0290
 2841W        W22375  13.701  14.001  12.745  0.2547 -0.0830 -0.0210
 2842W        W22376  13.227  15.847   2.024 -0.2809  0.1162 -0.1296
 2843W        W22377   7.016  17.500   3.834 -0.1526  0.0187  0.1725
 2844W        W22378   7.405   0.926   2.205 -0.2916  0.2269 -0.1435
 2845W        W22379   2.949  11.628  16.512  0.0616  0.0242 -0.0749
 2846W        W22380  12.783   8.320   4.745  0.2232  0.2249 -0.1913
 2847W        W22381  17.600   4.852   1.400 -0.1886  0.0614  0.1024
 2848W        W22382  14.758   8.678   1.857  0.0616  0.2239  0.2612
 2849W        W22383   5.813  17.251  12.864 -0.2743 -0.1347  0.0722
 2850W        W22384   2.639   3.301  12.166 -0.2844 -0.0758  0.2244
 2851W        W22385  17.412  16.923  15.814 -0.1672  0.3514 -0.0339
 2852W        W22386   8.092  16.632  14.046  0.0139  0.0883  0.1975
 2853W        W22387  13.570   0.300  13.116  0.1510  0.1179  0.2694
 2854W        W22388  13.444   0.975  13.449  0.0963  0.0491  0.0018
 2855W        W22389  17.227   6.533  14.973  0.2652  0.2973  0.1912
 2856W        W22390   6.489   8.535  15.763  0.0586 -0.0248 -0.3618
 2857W        W22391  12.610  16.535  13.951 -0.3041 -0.1060  0.1906
 2858W        W22392   4.793   3.777  14.225  0.1188  0.0161  0.0487
 2859W        W22393   6.204  13.643   2.110  0.0201  0.3203 -0.1364
 2860W        W22394  12.460  11.657  15.556  0.1293  0.0263  0.0289
 2861W        W22395   8.782  16.361   2.357 -0.0881  0.0124  0.2426
 2862W        W22396   1.936   3.418  13.280 -0.0542 -0.0799 -0.0912
 2863W        W22397   5.086   4.099   5.772  0.0490 -0.0766 -0.3907
 2864W        W22398   7.688  13.087   1.029 -0.0141  0.0600 -0.1416
 2865W        W22399   4.212  15.711  16.441  0.1904 -0.1884 -0.1487
 2866W        W22400  13.216  10.930   1.716  0.0395  0.1002 -0.0465
 2867W        W22401   6.194   8.364   2.848 -0.1784  0.2263  0.0185
 2868W        W22402   4.467   9.703   1.647  0.1039  0.0130 -0.1517
 2869W        W22403   5.187   9.943   1.189  0.2043  0.0973  0.0654
 2870W        W22404   9.728  14.911   2.844  0.0618 -0.1395 -0.0172
 2871W        W22405  16.118   7.665   3.358  0.3038  0.2278 -0.1420
 2872W        W22406  15.561   2.871   5.017 -0.2382 -0.2036  0.0753
 2873W        W22407   8.695   0.135   1.273 -0.0172  0.0314  0.2589
 2874W        W22408   0.338   5.327  11.963  0.4686 -0.2172 -0.2661
 2875W        W22409   3.023   4.853  14.902  0.2158  0.0383 -0.0165
 2876W        W22410   6.619   7.135   4.857  0.2897  0.1711 -0.0807
 2877W        W22411   7.422   9.806   3.599  0.1478 -0.1838 -0.3320
 2878W        W22412   1.585   0.717  14.194  0.4004  0.0536 -0.0871
 2879W        W22413  13.801   4.617  15.871 -0.1733  0.2622 -0.2520
 2880W        W22414   2.610   6.473   2.005  0.1635 -0.2901 -0.2974
 2881W        W22415  11.008   4.571   2.653 -0.0394 -0.1881 -0.3266
 2882W        W22416   9.452   8.980   3.166 -0.3390  0.0703  0.0488
 2883W        W22417   7.805  17.734  12.037 -0.1652 -0.0812 -0.0689
 2884W        W22418  16.821  10.265   1.386 -0.0795 -0.0893  0.0648
 2885W        W22419  10.448  17.381  12.744  0.1887 -0.1153  0.1819
 2886W        W22420   9.133   1.576   1.216  0.1211  0.1069  0.2806
 2887W        W22421  13.172   9.852   5.125  0.0692 -0.3391  0.2401
 2888W        W22422   6.176  10.259  12.089 -0.3474 -0.2199 -0.1721
 2889W        W22423   3.655  13.893  15.028  0.2397 -0.1906  0.1173
 2890W        W22424  11.452   3.389   2.612 -0.1969  0.2491  0.1762
 2891W        W22425   8.344   0.574   3.271 -0.4218  0.2142 -0.1925
 2892W        W22426  12.365   9.158  15.751  0.0521 -0.1954  0.1559
 2893W        W22427   5.465   4.057  15.441  0.1977  0.0914  0.1018
 2894W        W22428   7.839   5.232   3.235  0.1409 -0.3509 -0.0839
 2895W        W22429   0.216   1.221  15.449  0.1457  0.2751  0.1293
 2896W        W22430   6.320   3.998   4.502  0.2003 -0.1121  0.0521
 2897W        W22431  13.602   5.499   2.456 -0.1064 -0.1162 -0.1707
 2898W        W22432  11.905  16.170   3.511  0.1334  0.0471  0.2377
 2899W        W22433   4.994   6.695   2.889  0.3262  0.2245  0.1544
 2900W        W22434  12.842   4.669  16.470 -0.1205  0.2517 -0.0826
 2901W        W22435  13.979   1.042   1.865 -0.1398 -0.2077  0.2846
 2902W        W22436   5.233   9.640   2.846 -0.1316  0.0329 -0.2323
 2903W        W22437   3.831   2.574   3.152 -0.0803  0.0296 -0.1902
 2904W        W22438  15.213   7.831  16.319  0.0176 -0.0273  0.2934
 2905W        W22439  12.406  10.187  15.761  0.2893  0.1466  0.2122
 2906W        W22440   1.494  13.332   3.988  0.0848  0.2344 -0.0469
 2907W        W22441   2.300   8.832   2.818 -0.0372 -0.1416  0.1159
 2908W        W22442   6.923   9.198   0.428 -0.1280  0.0129 -0.0046
 2909W        W22443   8.590   1.569   2.342 -0.3957 -0.2047  0.3242
 2910W        W22444  16.500  16.220  16.298  0.0306 -0.5180  0.1050
 2911W        W22445  17.091  12.963   0.436 -0.0827 -0.0145  0.0511
 2912W        W22446   2.725   3.005  13.075 -0.4206  0.1643 -0.2926
 2913W        W22447   6.554  13.991  16.334 -0.1471  0.1760 -0.1545
 2914W        W22448   7.205   9.093   2.228 -0.0926  0.0314  0.0779
 2915W        W22449  16.755   1.644   2.612 -0.1590 -0.1925  0.0651
 2916W        W22450  16.338   2.648   1.114 -0.3791  0.1213  0.1388
 2917W        W22451   5.688   9.745   3.683 -0.1129 -0.1683  0.1545
 2918W        W22452  10.048   0.441  14.745 -0.2663 -0.0255  0.0615
 2919W        W22453  13.437   5.232  14.430 -0.0818 -0.0905 -0.3590
 2920W        W22454   2.169   7.862   1.640  0.5499  0.0294 -0.4036
 2921W        W22455  17.079   4.282  14.344 -0.2442  0.2319 -0.2161
 2922W        W22456  10.035  16.914  15.470  0.0752 -0.2203  0.2076
 2923W        W22457  10.113  10.120  15.531  0.0082 -0.1543  0.1995
 2924W        W22458   6.486   1.750   1.209 -0.0259  0.1785 -0.1941
 2925W        W22459  14.482  14.073   1.113 -0.3454 -0.0985  0.1668
 2926W        W22460   5.736   7.140  14.259 -0.1105 -0.0151 -0.0338
 2927W        W22461  17.214   0.380  13.606 -0.0451 -0.3466  0.2089
 2928W        W22462   8.909  11.871   1.733  0.3111 -0.1567 -0.0334
 2929W        W22463   7.372   5.963   1.727 -0.0969  0.2304 -0.1236
 2930W        W22464  12.359  16.104   3.091 -0.6170  0.1156 -0.0883
 2931W        W22465  15.788   6.074   3.265 -0.2623 -0.0935  0.1122
 2932W        W22466   4.242   3.850  13.589  0.1154  0.5349 -0.1809
 2933W        W22467  13.711   9.712  14.439  0.2286 -0.2087  0.0080
 2934W        W22468  13.186  15.027  15.913  0.1423  0.1672  0.3002
 2935W        W22469   7.608   6.877  15.987 -0.0746 -0.0143  0.1697
 2936W        W22470   4.500   4.888  16.409  0.4203 -0.1903  0.0433
 2937W        W22471  16.030   1.718  15.463 -0.1134  0.0825  0.1299
 2938W        W22472  12.579  17.269   4.564 -0.0495 -0.1149 -0.0450
 2939W        W22473  12.773   1.142  16.075 -0.1084 -0.3779 -0.2820
 2940W        W22474  13.893   2.450  12.798  0.3189 -0.1111  0.1780
 2941W        W22475  15.862  13.887   0.594  0.0495  0.0668 -0.0720
 2942W        W22476   5.670   2.825   0.065  0.2956  0.4352  0.1226
 2943W        W22477  13.669   2.461   0.522  0.0085  0.0984 -0.0084
 2944W        W22478   6.852  15.905   5.030  0.2030  0.0407  0.3382
 2945W        W22479  14.329   6.508  12.003 -0.2096  0.3042  0.0620
 2946W        W22480   8.716  16.993   1.571 -0.1779  0.0265  0.0373
 2947W        W22481  14.161   2.309   2.236  0.3537  0.0464 -0.3622
 2948W        W22482  13.824   0.124   3.525 -0.2315  0.2401 -0.2177
 2949W        W22483  15.720   4.646   0.289  0.1153 -0.4340 -0.1126
 2950W        W22484  13.338   9.041  15.877 -0.2445  0.1159  0.0199
 2951W        W22485   0.224  16.630   1.560  0.0689  0.1888  0.2057
 2952W        W22486  11.314  11.021   2.165 -0.1452 -0.0215 -0.0505
 2953W        W22487   1.126  13.969   2.532 -0.1977  0.1148 -0.1039
 2954W        W22488  10.432   3.162  16.040 -0.2066  0.1066 -0.0672
 2955W        W22489  13.266   3.118  14.295 -0.1024  0.0194  0.0532
 2956W        W22490   2.840  17.736  15.080  0.4682  0.2358  0.3097
 2957W        W22491  17.185  17.708  13.899  0.1236  0.0975  0.1817
 2958W        W22492   6.181   4.469  14.209 -0.1139  0.2865 -0.0365
 2959W        W22493   3.768   3.096  13.631 -0.2010  0.0499  0.0016
 2960W        W22494   7.905   5.472  14.350  0.0998 -0.2486 -0.1101
 2961W        W22495  10.282   6.132  12.216  0.0194  0.2197  0.1811
 2962W        W22496   3.967  15.850  12.505 -0.0345  0.0317 -0.1572
 2963W        W22497   6.243   4.039   2.085 -0.2410 -0.2348 -0.0093
 2964W        W22498  15.680   8.562  16.380  0.0347 -0.0546 -0.2555
 2965W        W22499   0.270  10.893  15.202  0.0157 -0.0064  0.2371
 2966W        W22500   2.233   8.769  14.870 -0.1174  0.1666 -0.1740
 2967W        W22501   9.868   9.033   1.369 -0.0504 -0.1322 -0.0018
 2968W        W22502   0.425   6.989  14.065  0.0810 -0.0541  0.1268
 2969W        W22503  13.803   4.077   2.407  0.1041 -0.1970 -0.0178
 2970W        W22504   0.205   0.756  15.292  0.0924  0.0661 -0.4699
 2971W        W22505   6.707   1.641   1.636  0.1193  0.0681 -0.0088
 2972W        W22506  10.503   5.094   0.964  0.0030  0.2429 -0.1210
 2973W        W22507   5.061   9.412  15.721 -0.0669  0.0525  0.1765
 2974W        W22508  12.583  13.934   2.881  0.0612  0.0511  0.0137
 2975W        W22509   0.384   5.756  13.241  0.2801 -0.0580 -0.0582
 2976W        W22510   3.367   4.482   4.918 -0.1586 -0.0199 -0.1411
 2977W        W22511  12.938  10.762   5.301  0.2642 -0.1487 -0.3032
 2978W        W22512  16.891  13.412  12.658  0.3965  0.0109 -0.0685
 2979W        W22513   4.194  11.052  13.656  0.2298 -0.1842  0.1301
 2980W        W22514  11.730  14.893   0.423 -0.1529  0.2317  0.1955
 2981W        W22515   8.097   2.000  13.958  0.1030 -0.1122  0.1520
 2982W        W22516  14.785  13.927   1.547  0.1404  0.3338  0.1870
 2983W        W22517   5.314  15.435   0.417 -0.0612 -0.0515 -0.0787
 2984W        W22518  15.936  15.190   3.659  0.1472 -0.1439 -0.1175
 2985W        W22519  17.650   6.440  13.208  0.1683 -0.1253 -0.0347
 2986W        W22520   9.811  15.703   2.044 -0.1444  0.2096 -0.1856
 2987W        W22521  10.254   2.825   1.423  0.3177  0.2801  0.0531
 2988W        W22522  10.424   0.374  12.025 -0.0415  0.0747 -0.3700
 2989W        W22523  16.921   3.240   0.487 -0.1033 -0.1349 -0.1871
 2990W        W22524  12.648   3.771   4.196 -0.0539 -0.0758  0.0715
 2991W        W22525   4.924  17.404  16.138  0.0444  0.0708 -0.0169
 2992W        W22526  15.302   2.133  13.610  0.2092  0.0475  0.4062
 2993W        W22527   9.564  16.322  15.555 -0.1383 -0.1207 -0.0070
 2994W        W22528  14.105   2.469   0.768  0.0783 -0.3036 -0.2561
 2995W        W22529   7.298   6.090   4.973 -0.1182  0.1478 -0.1760
 2996W        W22530   3.199  13.685  14.363  0.0314 -0.2496 -0.1275
 2997W        W22531  14.412   6.586  14.967  0.0712 -0.0300  0.1638
 2998W        W22532  17.795  11.427   1.190  0.2249 -0.0819  0.1047
 2999W        W22533  16.518   8.279  14.174 -0.1531  0.2568 -0.0788
 3000W        W22534  12.519   6.707  11.978  0.1599 -0.2257 -0.0053
 3001W        W22535  14.575   6.784   1.411 -0.1624 -0.1843  0.1101
 3002W        W22536  15.586  15.573  12.126  0.0225 -0.2773 -0.0060
 3003W        W22537  12.574  13.801  16.150 -0.1102 -0.0204 -0.2614
 3004W        W22538   4.012  10.131  13.255 -0.2602 -0.1418 -0.0144
 3005W        W22539  11.836   7.396   0.333  0.1159  0.3615  0.0525
 3006W        W22540  10.668  10.120   2.601 -0.1175 -0.0894 -0.2204
 3007W        W22541   7.637  16.243  16.139 -0.0866 -0.2487 -0.0875
 3008W        W22542   5.730   2.561   0.529  0.0685 -0.1042 -0.0936
 3009W        W22543   7.484   0.818   4.451 -0.2407  0.1706 -0.2787
 3010W        W22544  15.306  10.547   4.709  0.0591 -0.0857  0.0726
 3011W        W22545   0.447   9.707  13.049  0.8042  0.1272 -0.2326
 3012W        W22546   9.740   2.492  15.080 -0.0734  0.0200 -0.1166
 3013W        W22547  10.228  16.626  15.052  0.1060 -0.1327  0.0919
 3014W        W22548   1.750  17.519  15.910  0.2128  0.0698 -0.1954
 3015W        W22549  13.180   1.617  15.399  0.1331  0.3900 -0.0666
 3016W        W22550   4.263   8.425   2.332  0.0271 -0.1640 -0.0441
 3017W        W22551   3.403   2.816  13.644  0.0040 -0.3464 -0.1545
 3018W        W22552  15.512   5.946   3.647  0.1115 -0.1465 -0.1770
 3019W        W22553  17.718   2.365  13.354 -0.0280 -0.2242  0.2411
 3020W        W22554   6.666  16.265   1.384 -0.4017 -0.0911 -0.2700
 3021W        W22555   5.453  11.071  15.189 -0.2033  0.4895  0.1705
 3022W        W22556   3.577   0.917   2.054 -0.0209 -0.0340 -0.2088
 3023W        W22557  10.942   7.302   3.838 -0.1089 -0.1132  0.0109
 3024W        W22558   9.846  14.815  15.868 -0.0607 -0.0883 -0.1907
 3025W        W22559   0.851  17.537  13.385 -0.2947 -0.3131  0.2939
 3026W        W22560  15.011  11.458   3.770 -0.3448  0.2281 -0.2749
 3027W        W22561  15.720  11.112   0.108 -0.0716  0.0714 -0.1105
 3028W        W22562   1.602  12.486  15.824  0.1970 -0.0778 -0.0410
 3029W        W22563  13.684  12.170   0.374 -0.1808  0.2085  0.1166
 3030W        W22564  16.233  13.891  14.838 -0.0811  0.0304  0.2339
 3031W        W22565   6.171   4.580   1.255 -0.1267 -0.1639 -0.1091
 3032W        W22566   9.494   0.961  15.405  0.0676  0.1072  0.1546
 3033W        W22567   0.838   7.686   3.807  0.0738  0.1141  0.1224
 3034W        W22568   4.042   5.458   1.714  0.0999  0.0008 -0.0753
 3035W        W22569   9.423   4.965  15.481  0.0863  0.0423 -0.2188
 3036W        W22570   6.429   1.622  16.555 -0.1003 -0.0929 -0.2799
 3037W        W22571   7.869  17.425   4.608  0.1642 -0.0815 -0.1856
 3038W        W22572   8.771   5.642   3.809  0.1063  0.1687  0.2573
 3039W        W22573   9.990  11.944  12.682  0.4053 -0.2388 -0.2926
 3040W        W22574  11.198   5.151   3.777 -0.0150  0.0283 -0.0787
 3041W        W22575   2.702   0.184  14.698 -0.2689 -0.2489  0.1302
 3042W        W22576  14.555  15.459   1.177  0.3132 -0.0709  0.0671
 3043W        W22577   5.025   5.856  13.102 -0.0747  0.0552 -0.1688
 3044W        W22578   7.424   9.148  14.723 -0.0880 -0.1236  0.0184
 3045W        W22579   0.591   6.534   3.136 -0.0476 -0.1289  0.0042
 3046W        W22580   6.988  15.810  12.634  0.1253 -0.0657 -0.4845
 3047W        W22581  15.388   1.749   0.906  0.1744  0.0321 -0.1422
 3048W        W22582  16.366   6.922  15.275  0.0124 -0.0358  0.0603
 3049W        W22583   1.221   9.072  13.554  0.0536 -0.1626 -0.0512
 3050W        W22584  11.769  15.054   4.673 -0.3590 -0.2257  0.0976
 3051W        W22585  13.901  17.031   3.212  0.1846 -0.0493 -0.0040
 3052W        W22586   6.855  10.135   2.337  0.0782  0.0281  0.3202
 3053W        W22587   5.509  17.245  14.078  0.0422 -0.0584  0.1517
 3054W        W22588   8.032  17.251   2.131 -0.2110  0.2319 -0.0108
 3055W        W22589  17.200  11.616   1.252 -0.0325  0.2546  0.1650
 3056W        W22590   8.900   8.269   5.980  0.3072 -0.2432  0.0774
 3057W        W22591   3.178  14.409  13.090  0.2105  0.2777  0.0263
 3058W        W22592   6.267   1.149  13.705  0.0853  0.0219 -0.1144
 3059W        W22593  10.032   1.860  12.635  0.2204 -0.0531 -0.0121
 3060W        W22594   5.870   7.247   2.866 -0.0398  0.3899  0.3437
 3061W        W22595  16.422  10.367  12.086  0.1197  0.1257 -0.0407
 3062W        W22596  16.796   2.952  15.867 -0.0131  0.0603  0.2097
 3063W        W22597  16.944   5.589   3.821  0.1218 -0.2471  0.1951
 3064W        W22598   8.461   4.331  16.395  0.1541 -0.0884  0.1567
 3065W        W22599  17.904   6.907  13.138 -0.2779 -0.0892  0.1814
 3066W        W22600  17.768   4.305   2.577  0.1968 -0.0123 -0.3958
 3067W        W22601  16.571   0.126   4.152  0.3246  0.1086 -0.1020
 3068W        W22602   7.473  15.597  12.562  0.0846  0.0844  0.1231
 3069W        W22603  15.514   6.849   2.704 -0.0162 -0.0533 -0.0549
 3070W        W22604  11.460   4.842   5.199  0.0555  0.1914  0.1590
 3071W        W22605   8.066   1.578  13.632 -0.0571  0.0758  0.0474
 3072W        W22606   0.321   8.366  14.109 -0.1227  0.0443 -0.2153
 3073W        W22607   3.142   9.739   5.011  0.1493 -0.0365  0.0176
 3074W        W22608   0.250   6.129   1.954 -0.2042 -0.0207  0.2548
 3075W        W22609  11.646   4.640   0.768 -0.0240 -0.0883  0.0870
 3076W        W22610  10.421  16.939  14.670  0.0090 -0.0340 -0.2834
 3077W        W22611  12.399  10.829   0.421 -0.0034  0.1422 -0.0345
 3078W        W22612   7.061  13.671   2.943 -0.0541  0.1325 -0.0746
 3079W        W22613   5.162  14.254   0.328  0.1600  0.2071 -0.3702
 3080W        W22614  15.725   5.576  14.436 -0.1624  0.0259 -0.1971
 3081W        W22615  13.281   8.746   3.427  0.0315 -0.1286  0.1194
 3082W        W22616  10.570   8.273  14.049  0.1581  0.4008 -0.1692
 3083W        W22617  13.644   1.554   1.519 -0.2204  0.1104 -0.2381
 3084W        W22618   8.750  16.137  11.807  0.2116  0.3173  0.0551
 3085W        W22619   9.270   8.728   1.408 -0.0079 -0.2141  0.2026
 3086W        W22620  11.509   1.623  12.139  0.0988  0.1654  0.1132
 3087W        W22621  15.718   4.662   2.462  0.2951  0.2093  0.2442
 3088W        W22622  16.585   8.888   3.709 -0.1116  0.0954  0.2558
 3089W        W22623  13.930  12.895   2.966 -0.2321  0.0899 -0.2553
 3090W        W22624  12.046  14.163  14.351 -0.1848  0.1740  0.1538
 3091W        W22625  12.716  14.388   2.722  0.0137  0.2178 -0.2128
 3092W        W22626  17.603  10.486   2.959  0.1144  0.0666 -0.1542
 3093W        W22627  17.414  10.404   1.951  0.2160 -0.3449  0.2256
 3094W        W22628  16.154   7.512   2.321 -0.0801 -0.2198  0.1758
 3095W        W22629   6.025   3.696   4.044 -0.0633 -0.1659 -0.1911
 3096W        W22630   7.147  17.129  13.896  0.0929 -0.3305  0.0149
 3097W        W22631   8.090   0.256  12.463  0.1072 -0.1204  0.0787
 3098W        W22632   7.661   6.800  14.855 -0.3071 -0.3985  0.0109
 3099W        W22633   0.443   0.131   1.188  0.0155  0.4834 -0.1718
 3100W        W22634  16.465   5.990  13.919  0.0326  0.2066 -0.1581
 3101W        W22635   4.710   5.314  16.167  0.0455  0.0391 -0.2184
 3102W        W22636   4.508   9.623  14.969  0.0568  0.3299  0.1242
 3103W        W22637   5.034  14.124  13.583 -0.1621 -0.0971  0.2102
 3104W        W22638   5.759   8.469  13.783  0.0585 -0.1035  0.0679
 3105W        W22639  17.849   9.027  15.899 -0.0365  0.0898  0.1338
 3106W        W22640  13.389   8.390   1.487  0.1779  0.3779  0.1095
 3107W        W22641   2.140   9.976   2.324 -0.0105  0.2667 -0.1771
 3108W        W22642  13.337   8.443   0.611 -0.1204 -0.1774  0.1326
 3109W        W22643   1.516  10.293  14.796  0.2843  0.2480  0.2928
 3110W        W22644   7.693  15.607  14.559  0.3230  0.0694 -0.0673
 3111W        W22645   2.483   3.420  13.215  0.1929  0.0693  0.0925
 3112W        W22646   8.564   5.926  16.423  0.0754 -0.1196 -0.0345
 3113W        W22647   6.901   3.094  12.178  0.1117 -0.1497 -0.1589
 3114W        W22648  14.092  15.694   4.582 -0.0331 -0.0767 -0.0497
 3115W        W22649   5.502   0.860   4.753  0.1371 -0.1391  0.0591
 3116W        W22650  14.688  17.905   1.825 -0.1130 -0.0321 -0.1409
 3117W        W22651   2.719  11.765  15.255 -0.3501  0.2382  0.4746
 3118W        W22652  11.904  13.830  13.149  0.2483 -0.0885 -0.0572
 3119W        W22653  15.384  17.633  13.507  0.2289  0.0147  0.2384
 3120W        W22654   8.491  12.207   1.600 -0.1354 -0.2412 -0.0616
 3121W        W22655  17.825  16.296   3.408 -0.2424  0.0712 -0.2206
 3122W        W22656   7.630  17.060  12.617  0.0896 -0.0103  0.0773
 3123W        W22657   5.835   9.692  12.588 -0.1056 -0.0920 -0.1522
 3124W        W22658  15.722  13.616   1.669 -0.1826 -0.0976  0.2518
 3125W        W22659   7.012   9.009  16.161 -0.0593  0.0676 -0.2310
 3126W        W22660  16.489  16.166   4.448 -0.1485  0.1812 -0.0713
 3127W        W22661   8.097  12.804  14.743 -0.3404  0.0514 -0.1077
 3128W        W22662   5.677   2.318   0.018 -0.1798  0.1714 -0.1135
 3129W        W22663   2.189   6.120  14.946  0.5241 -0.0887 -0.3819
 3130W        W22664   9.054   8.044  12.597 -0.4215  0.0918 -0.1163
 3131W        W22665   8.652  14.626  12.491 -0.3511 -0.0963  0.0666
 3132W        W22666  14.151   0.482  12.392 -0.4000 -0.1668  0.2493
 3133W        W22667  10.027  14.680  15.153  0.1475 -0.0257 -0.3280
 3134W        W22668   6.866   8.482   1.021 -0.3632 -0.2189  0.2493
 3135W        W22669   8.264   3.436   3.918  0.0338 -0.1861 -0.2786
 3136W        W22670   1.689   6.949   4.489  0.1747  0.0591  0.3010
 3137W        W22671   1.718  12.850  12.316  0.2905 -0.0310 -0.2381
 3138W        W22672  15.860  10.263   2.692 -0.2910 -0.1257 -0.2502
 3139W        W22673   2.453   0.551  15.375 -0.1263  0.0093 -0.0169
 3140W        W22674  14.099   8.945   3.109 -0.0372 -0.2772  0.0451
 3141W        W22675   6.749   4.844  14.071 -0.0429 -0.1866  0.2245
 3142W        W22676   8.601  10.814   4.089 -0.0387 -0.0668 -0.4497
 3143W        W22677   1.687   6.358  15.238 -0.0840 -0.1580  0.1110
 3144W        W22678   0.192  16.792  15.814  0.0239  0.0442  0.0102
 3145W        W22679  12.855   6.757   1.571  0.4865 -0.4592 -0.1746
 3146W        W22680  12.117  11.766   2.078 -0.1945  0.0124  0.2164
 3147W        W22681   2.999  13.366  13.004  0.0798 -0.0844  0.0412
 3148W        W22682  15.236   4.679  15.112  0.1821 -0.1074 -0.2172
 3149W        W22683   2.988   3.428  15.045  0.0051 -0.0173  0.1831
 3150W        W22684   6.379  16.691  12.980 -0.1255 -0.0591 -0.0445
 3151W        W22685   2.243  15.612   3.749 -0.0301 -0.1948 -0.1627
 3152W        W22686  13.392  12.863  13.653 -0.0809  0.3603  0.0060
 3153W        W22687   9.846   3.734  15.348  0.0888  0.3636 -0.0986
 3154W        W22688   8.978  17.872  12.748  0.1561  0.0172 -0.0351
 3155W        W22689   8.681   3.366  15.994  0.0604 -0.2024 -0.1987
 3156W        W22690  11.638   0.569   0.551  0.0937  0.2018  0.1402
 3157W        W22691   4.958   3.857   1.766 -0.2805  0.0022 -0.0409
 3158W        W22692  13.331  10.206   1.998 -0.0488 -0.2596  0.0463
 3159W        W22693   0.154  11.205  15.932  0.0780  0.0392 -0.1617
 3160W        W22694  17.479   3.750  11.845  0.0961 -0.1082 -0.0363
 3161W        W22695  12.956   4.602   4.821  0.0949  0.1866 -0.0784
 3162W        W22696  17.324  13.675  13.503  0.2411  0.3016  0.1976
 3163W        W22697  12.828   6.139  12.886  0.1187  0.1078  0.0439
 3164W        W22698   9.360   0.202  16.420  0.1348 -0.2083 -0.1380
 3165W        W22699  13.925  11.949   3.047 -0.3288  0.3685 -0.2195
 3166W        W22700   5.025   5.745   0.992  0.1100  0.1186 -0.2455
 3167W        W22701   7.224  10.091  15.096 -0.1739  0.1208 -0.0078
 3168W        W22702   5.305   1.426  12.666  0.0544  0.0015 -0.0271
 3169W        W22703   6.704   0.342  15.447  0.0203 -0.0613  0.1699
 3170W        W22704   2.199   7.512  15.030  0.0889  0.1405 -0.2367
 3171W        W22705   0.964  15.037   0.522 -0.2789  0.2551 -0.0461
 3172W        W22706  10.268   4.877   2.205 -0.0484  0.0330 -0.1001
 3173W        W22707  17.485  12.176  16.686  0.0410  0.0015 -0.4399
 3174W        W22708  14.473  16.161   0.255  0.1933 -0.0858 -0.2648
 3175W        W22709  16.281  14.281   2.394  0.0480 -0.2656  0.2280
 3176W        W22710  14.381  15.138  12.514 -0.1653 -0.1160 -0.1108
 3177W        W22711   1.168  17.457  14.287  0.2624 -0.2363  0.1551
 3178W        W22712   8.591   0.467  12.162 -0.0150 -0.1425 -0.0995
 3179W        W22713   3.434   1.740  16.376  0.1284 -0.0762 -0.1965
 3180W        W22714   0.091  12.126   0.887  0.0584  0.3773 -0.0350
 3181W        W22715   9.584   9.698   1.044  0.1011  0.1869  0.1065
 3182W        W22716   5.231   1.254   3.021 -0.0831 -0.2926  0.0246
 3183W        W22717  15.049  14.159   3.299 -0.3586  0.3489 -0.1979
 3184W        W22718   4.227   5.847   0.904  0.1163  0.2682 -0.1136
 3185W        W22719  11.702   0.853  16.012  0.4647  0.0754 -0.1048
 3186W        W22720  10.229   7.139   1.832 -0.2049  0.0548 -0.0051
 3187W        W22721  13.390  11.001  13.814 -0.2332 -0.1084  0.1447
 3188W        W22722   3.550   4.595   3.566  0.1778 -0.0746  0.0984
 3189W        W22723  16.184   0.632   0.129  0.0721  0.0746  0.0022
 3190W        W22724   4.609  13.855   1.716  0.0337 -0.1319  0.3273
 3191W        W22725  12.258   5.412   2.204  0.2778  0.0741 -0.0399
 3192W        W22726  12.077   5.774   0.428 -0.3954 -0.0258 -0.3472
 3193W        W22727   7.365  17.612   0.491  0.0128 -0.0519 -0.1514
 3194W        W22728   8.328   4.033  11.737  0.0393 -0.2623 -0.2337
 3195W        W22729  15.676   7.450  13.513  0.2104 -0.0489 -0.0521
 3196W        W22730  16.297   4.040  14.161  0.1751  0.2872  0.0867
 3197W        W22731  15.334  17.611   2.370 -0.0705  0.0291 -0.4004
 3198W        W22732  10.485  12.858   3.625  0.2023  0.1833  0.3226
 3199W        W22733  13.079   3.774  13.130  0.1867  0.1114  0.0567
 3200W        W22734  16.648  13.208   4.234  0.1518  0.1494  0.0845
 3201W        W22735   5.983   3.207   3.313 -0.1784  0.0258 -0.0716
 3202W        W22736  14.385   9.059  13.530 -0.0411  0.4292 -0.0885
 3203W        W22737  10.988  10.245  13.562  0.0460 -0.0014 -0.3341
 3204W        W22738  10.957  14.578   3.397 -0.0176 -0.1309 -0.1917
 3205W        W22739  14.808  15.044  12.896  0.1849  0.1313 -0.3294
 3206W        W22740  15.037   3.795   0.059 -0.0900 -0.0012  0.3093
 3207W        W22741  10.880   0.594   0.465  0.1104  0.2089 -0.1122
 3208W        W22742   5.184  13.262   1.087  0.1391 -0.0099 -0.2357
 3209W        W22743  17.331  17.620  12.998 -0.1446 -0.1187 -0.0206
 3210W        W22744  14.729   0.641  14.474 -0.0613  0.4309 -0.3371
 3211W        W22745   9.536   9.920  12.345 -0.0072  0.0761  0.1250
 3212W        W22746  10.100   5.308   5.206  0.3014 -0.0114  0.1779
 3213W        W22747   7.360   5.685  13.295  0.0579 -0.0665 -0.0311
 3214W        W22748   8.094  12.932   2.105 -0.3104 -0.2517  0.0668
 3215W        W22749  14.399   6.439   0.628 -0.1468 -0.1046 -0.1397
 3216W        W22750   3.084   8.494   0.329 -0.0101  0.2602  0.0002
 3217W        W22751   7.158   4.537   2.755  0.2978 -0.0701  0.0062
 3218W        W22752   9.343   2.198   2.911  0.3671  0.1375 -0.0920
 3219W        W22753  12.513   4.716  13.899  0.6098  0.2116 -0.0106
 3220W        W22754   7.062   7.939  12.788 -0.2250  0.0336 -0.0414
 3221W        W22755   4.251   4.821  10.811 -0.1378 -0.6201  0.1172
 3222W        W22756   4.928  16.364  15.984 -0.2524  0.1221  0.3562
 3223W        W22757   6.356   3.466  14.699  0.0986  0.1316 -0.3955
 3224W        W22758  12.193  13.676  13.632 -0.3455  0.1345  0.0605
 3225W        W22759   3.813  17.228   2.123 -0.0653  0.1568  0.0567
 3226W        W22760   4.996  10.475   1.828  0.1109 -0.1342 -0.0947
 3227W        W22761   8.731  17.240   1.150 -0.1796 -0.1685 -0.1158
 3228W        W22762   9.399   1.019  14.849 -0.1987 -0.0743 -0.2161
 3229W        W22763   8.645   6.233  13.516  0.2280 -0.0735  0.0470
 3230W        W22764   9.376   5.275  16.050  0.0662  0.1603  0.0958
 3231W        W22765  10.611   4.519   5.016 -0.5124 -0.1284  0.1552
 3232W        W22766   2.362  17.051  16.618 -0.1508 -0.1105  0.0464
 3233W        W22767   5.039   8.135   0.055  0.0536  0.3718  0.1808
 3234W        W22768   5.298   6.197   3.620 -0.0237  0.3059  0.2270
 3235W        W22769  14.701   4.442  12.965  0.4967  0.3943 -0.0354
 3236W        W22770   8.838   8.113  16.112  0.1178  0.0454 -0.1248
 3237W        W22771  16.244  15.918   0.464  0.3466  0.0090 -0.2307
 3238W        W22772  14.702   8.024  14.669 -0.0550  0.5120 -0.2470
 3239W        W22773  15.973   5.944  16.533 -0.1076 -0.4689 -0.3367
 3240W        W22774  12.542  11.140  16.626 -0.1957 -0.1468 -0.0513
 3241W        W22775   5.971   8.003  12.978 -0.2621 -0.0934  0.0693
 3242W        W22776  15.866  13.000  13.486 -0.1221 -0.1611  0.1496
 3243W        W22777   6.253  16.128  16.137  0.0322 -0.0985  0.1795
 3244W        W22778   5.078  12.825  12.975 -0.0459  0.0721 -0.2437
 3245W        W22779   3.092   5.219   2.946 -0.3001  0.0910  0.2802
 3246W        W22780   4.558   8.201  16.098  0.0951 -0.1696 -0.1977
 3247W        W22781  14.979   6.853  14.927  0.0282  0.0808 -0.0913
 3248W        W22782   4.257  17.802   2.503 -0.0372  0.1221  0.1744
 3249W        W22783  17.104   7.140  11.952 -0.1255  0.1969 -0.1185
 3250W        W22784   1.979   0.542   5.322  0.0184 -0.3644 -0.0390
 3251W        W22785  17.582   1.331   3.514 -0.0762  0.3317  0.0071
 3252W        W22786   8.199  15.098  15.192 -0.0350 -0.0478 -0.1491
 3253W        W22787  12.303  15.608  13.349  0.2481  0.2322 -0.1133
 3254W        W22788   7.075   5.186   0.488  0.0240  0.1505 -0.1426
 3255W        W22789   3.244  12.213  15.836 -0.2232  0.0539  0.0676
 3256W        W22790  15.008  14.684  15.151 -0.1158  0.0404  0.0106
 3257W        W22791   8.178   8.459  13.808  0.0823 -0.1171  0.0802
 3258W        W22792   6.119  11.478   3.869  0.1753 -0.1831  0.2749
 3259W        W22793   8.941   0.856  12.114  0.1450 -0.2537 -0.2857
 3260W        W22794   2.722   0.885  14.352  0.1960  0.0538 -0.3084
 3261W        W22795   7.892   1.396  16.001 -0.4970  0.2133 -0.1464
 3262W        W22796  15.319   9.280  12.295  0.1040 -0.0060 -0.1233
 3263W        W22797  15.446   8.109  13.143  0.0679  0.0984 -0.2116
 3264W        W22798   2.463  10.493   1.075  0.2298 -0.0630 -0.0013
 3265W        W22799   6.383  10.866   3.379 -0.0012 -0.1526 -0.1282
 3266W        W22800  14.338   7.523  11.859 -0.2110  0.2344 -0.1088
 3267W        W22801   9.213   4.189  15.078  0.0482  0.1579 -0.1253
 3268W        W22802   7.793   0.132  15.179 -0.1029 -0.1856 -0.1301
 3269W        W22803  11.569   3.631   0.997 -0.1203  0.0709 -0.1286
 3270W        W22804   6.390   0.417  13.842 -0.2906  0.1668 -0.0912
 3271W        W22805   0.480  11.473  14.779  0.2311  0.0031  0.2491
 3272W        W22806   5.435   3.775   1.559  0.2426  0.0940 -0.0002
 3273W        W22807  12.026   4.120  15.708 -0.0723 -0.1787  0.0631
 3274W        W22808   1.504   8.856   2.302 -0.0200  0.0673  0.0483
 3275W        W22809  12.024  17.523   3.804 -0.1875  0.1651 -0.2149
 3276W        W22810  10.545   7.234   0.117 -0.2739  0.1631  0.0463
 3277W        W22811   5.199   8.863  15.103 -0.3792 -0.3047 -0.0737
 3278W        W22812   7.640   8.665   1.362 -0.0127  0.0432 -0.2278
 3279W        W22813  12.011  15.012   3.109  0.0939 -0.0403 -0.2809
 3280W        W22814   1.304  15.057  12.569  0.1695  0.1131  0.0775
 3281W        W22815   8.202   1.650  16.307 -0.1362  0.2419  0.2531
 3282W        W22816   4.399   5.253  15.362 -0.0932 -0.1342  0.3266
 3283W        W22817   9.870   3.627  11.461 -0.1815  0.0555 -0.0483
 3284W        W22818   1.386   8.497   2.767 -0.1066 -0.0496 -0.0371
 3285W        W22819  13.854   9.470   3.499  0.2224  0.1432  0.0281
 3286W        W22820  13.212   2.876   2.926  0.0957 -0.0197 -0.2349
 3287W        W22821  13.460  11.786  15.324  0.2231  0.0574 -0.1272
 3288W        W22822   4.417   7.924   1.715 -0.0515 -0.2907 -0.2749
 3289W        W22823   5.559   1.845  14.151  0.1363 -0.1940 -0.1546
 3290W        W22824   1.440   5.151  14.027  0.1384  0.3509  0.2260
 3291W        W22825  14.199  10.656  14.276  0.1061  0.0038 -0.0364
 3292W        W22826   6.830  11.047   4.398  0.0811 -0.0122 -0.0238
 3293W        W22827   8.695  12.947   5.665  0.0915 -0.0713 -0.0966
 3294W        W22828   0.573   2.384   1.091  0.0730 -0.0959  0.1162
 3295W        W22829   3.010   2.950   0.021 -0.2256  0.0777  0.0223
 3296W        W22830  14.089  16.529  15.248 -0.0264 -0.2372 -0.1960
 3297W        W22831   9.544   2.105  13.918 -0.3651  0.0794 -0.1072
 3298W        W22832   6.846  17.673   5.349 -0.1321  0.1109 -0.0629
 3299W        W22833   3.595   2.921  13.183 -0.1053  0.1199  0.0256
 3300W        W22834  16.816  15.877  14.013 -0.2772  0.3402  0.1456
 3301W        W22835   4.863  14.720  16.699  0.0635  0.1180 -0.0516
 3302W        W22836   0.634  12.062  14.813  0.0227  0.0706 -0.3527
 3303W        W22837   5.298  14.561   3.825  0.5172  0.2584 -0.1143
 3304W        W22838  10.236   4.638   0.829 -0.1065 -0.0187  0.0944
 3305W        W22839   8.564  10.869  15.797  0.0034 -0.0836  0.1926
 3306W        W22840  13.393   7.206  15.897 -0.0926  0.2541 -0.1855
 3307W        W22841  13.270  11.991  13.453  0.2689 -0.0884  0.0840
 3308W        W22842   3.121   7.568  14.936 -0.0476  0.0270  0.0101
 3309W        W22843   6.965   8.420   3.273 -0.1132 -0.0179 -0.0001
 3310W        W22844  17.655   9.941   2.798 -0.2712 -0.0620  0.0903
 3311W        W22845   6.998   2.557   3.857  0.4138  0.1298  0.0355
 3312W        W22846  10.004   1.875   4.513  0.1243 -0.3118  0.0660
 3313W        W22847  15.512   7.860  15.430 -0.2186  0.0848  0.1240
 3314W        W22848  11.061  11.185   0.456 -0.0123 -0.0360  0.1370
 3315W        W22849   8.795  14.999   2.938  0.0506  0.1248  0.2073
 3316W        W22850  11.026   0.451   2.205  0.1607  0.3126  0.1058
 3317W        W22851   2.547  15.823   4.153  0.0594 -0.3135  0.0683
 3318W        W22852   6.782  12.009   4.166 -0.3614  0.0150 -0.2329
 3319W        W22853  10.752   7.874   2.461  0.0432 -0.1128 -0.2117
 3320W        W22854  15.035  15.290   1.901  0.3058 -0.0109  0.1132
 3321W        W22855   5.593   1.467   2.672  0.0337 -0.2763 -0.0898
 3322W        W22856   9.014   2.857  14.453  0.1464  0.0697  0.1831
 3323W        W22857  11.699   8.910  11.732 -0.0691 -0.1664 -0.1394
 3324W        W22858  13.654  15.048   0.693  0.0802 -0.0857 -0.2547
 3325W        W22859   5.778   9.454   1.621 -0.0738  0.1788  0.0408
 3326W        W22860   7.637   4.646  13.620  0.1424  0.1493  0.0452
 3327W        W22861   9.371  15.627  13.696  0.0018 -0.0650  0.0243
 3328W        W22862   1.209   1.721   3.075 -0.0556 -0.1174  0.1643
 3329W        W22863  14.288  17.533  16.162  0.0384  0.0641 -0.2825
 3330W        W22864   2.063   0.239  16.280  0.0842 -0.1807 -0.2492
 3331W        W22865   9.844  13.834  13.752  0.0023  0.0090 -0.0767
 3332W        W22866  15.804  12.610  14.983  0.1865  0.2187  0.0223
 3333W        W22867  16.085   6.552  15.532 -0.0956 -0.0244  0.0978
 3334W        W22868  16.058   5.175  14.637  0.0565 -0.1599 -0.2339
 3335W        W22869   0.309   8.336   1.981  0.1891  0.1186  0.2036
 3336W        W22870   7.320   1.591   4.919  0.1223 -0.2341 -0.2340
 3337W        W22871   1.113  15.934  13.407 -0.1068 -0.1096  0.0239
 3338W        W22872   1.484  12.013   4.273  0.0862  0.0510  0.1496
 3339W        W22873   6.629  13.578  13.695  0.3848  0.0280 -0.0134
 3340W        W22874   7.802   3.398   1.916  0.1624  0.1769 -0.3645
 3341W        W22875   0.209   0.477   2.002  0.0269 -0.2226 -0.0141
 3342W        W22876  11.505   9.382   1.367  0.1735 -0.0173 -0.0211
 3343W        W22877  11.049   2.533  13.601 -0.1169 -0.0554  0.3066
 3344W        W22878   7.582  10.730  12.229  0.2127 -0.0629  0.2624
 3345W        W22879   3.302  15.868  16.666 -0.2927  0.2536  0.0830
 3346W        W22880   0.780   7.289  15.588  0.0301 -0.1269  0.1902
 3347W        W22881  11.830  14.949  15.167  0.0957 -0.0779 -0.1983
 3348W        W22882   5.458   3.791   4.716 -0.0097 -0.0709  0.2800
 3349W        W22883  12.131  12.115  15.368 -0.0863  0.0969 -0.0761
 3350W        W22884  12.092   8.301  13.753  0.2669  0.0263 -0.1905
 3351W        W22885  14.592  14.216   3.946 -0.0833 -0.0982 -0.4247
 3352W        W22886  10.619   0.786  13.759 -0.1171  0.2413 -0.2232
 3353W        W22887   4.941  12.200  13.640 -0.2887 -0.1335  0.2367
 3354W        W22888   0.139   7.033   0.122 -0.1813 -0.1917  0.1692
 3355W        W22889  10.268  15.659   1.858  0.2987  0.1795 -0.4832
 3356W        W22890   2.361  16.524  15.605  0.0192 -0.3627 -0.0528
 3357W        W22891   0.437  10.992  13.408 -0.1712  0.1025 -0.1833
 3358W        W22892  16.614   4.636   1.079  0.0816  0.1751 -0.1945
 3359W        W22893   7.849   4.242  11.778  0.0662 -0.2593 -0.2585
 3360W        W22894   6.569  15.375  16.386 -0.0812  0.2748 -0.0215
 3361W        W22895   6.101   0.864   2.831  0.0832 -0.0228  0.0734
 3362W        W22896   1.540  12.129  13.479  0.0418 -0.0822 -0.2605
 3363W        W22897   9.725  17.745   2.045 -0.1348 -0.0279  0.1632
 3364W        W22898  16.226  11.409  15.433  0.0305  0.2260  0.0337
 3365W        W22899  13.769   2.463  15.407 -0.1775 -0.1589  0.1081
 3366W        W22900   4.173   3.043   1.181  0.2578  0.0806 -0.0157
 3367W        W22901   7.001   4.964  12.113 -0.3574 -0.0789 -0.2169
 3368W        W22902  13.863   0.369   2.583 -0.1884 -0.1025 -0.1458
 3369W        W22903  11.658  15.285   3.618  0.0041 -0.0606 -0.2004
 3370W        W22904   9.975   1.689  16.232 -0.2855  0.2813 -0.1496
 3371W        W22905  13.136  11.998  15.733  0.2200  0.3274 -0.1482
 3372W        W22906  12.375  10.426   0.819 -0.0542 -0.1923 -0.0506
 3373W        W22907   9.590  14.903  13.436 -0.0221  0.1262 -0.0249
 3374W        W22908   1.918  12.277   4.558 -0.0221  0.0824 -0.0971
 3375W        W22909   2.225   8.600  12.256  0.0350 -0.0041  0.3982
 3376W        W22910   7.548   2.543  11.469  0.5545 -0.0598  0.1149
 3377W        W22911   9.300   2.493  14.226  0.2791 -0.0152  0.0557
 3378W        W22912  12.465   7.206  13.271  0.4403 -0.1554 -0.0000
 3379W        W22913  17.722  10.845  11.999 -0.1547 -0.1229 -0.3543
 3380W        W22914  15.948   1.235  15.421 -0.1550  0.1453  0.0659
 3381W        W22915  11.718   3.156   0.791  0.0950 -0.1880 -0.1220
 3382W        W22916  13.196  15.352   0.950  0.0480 -0.4612  0.1780
 3383W        W22917   2.318  12.711  12.918  0.2743  0.0064 -0.1219
 3384W        W22918   7.767   0.110   1.933  0.0432  0.2495 -0.1230
 3385W        W22919   2.981   3.900  12.833  0.1501  0.2432  0.0294
 3386W        W22920  12.174   1.651   0.300  0.1749  0.1228  0.1796
 3387W        W22921  11.889  14.526   3.383 -0.0968  0.4785 -0.0426
 3388W        W22922   5.867   4.059  12.390 -0.2267  0.1924  0.1564
 3389W        W22923   8.182   0.084   1.040 -0.4777 -0.2501  0.1668
 3390W        W22924   3.313   1.766   4.781 -0.0788  0.1704  0.1247
 3391W        W22925   9.642   7.844  11.789 -0.1884  0.0813 -0.0786
 3392W        W22926   9.840  11.097  16.650 -0.4055 -0.2790  0.1441
 3393W        W22927   4.669   0.681   2.610 -0.5309  0.0444  0.2058
 3394W        W22928   3.311  15.754  15.604  0.1034 -0.1108  0.3400
 3395W        W22929  17.394   9.307  13.351 -0.1345 -0.1487  0.0929
 3396W        W22930  17.867   0.987   2.005 -0.0413 -0.2955 -0.2479
 3397W        W22931   0.822   7.623  11.237  0.0385  0.2908 -0.1979
 3398W        W22932   9.544   0.009  11.918 -0.1633 -0.0082  0.3503
 3399W        W22933   1.314   8.368   0.145  0.0900  0.0951  0.2524
 3400W        W22934  11.643   7.037  16.246 -0.0180  0.1346 -0.2050
 3401W        W22935  13.283   4.828   4.500  0.0107  0.1003 -0.2844
 3402W        W22936  16.445   2.560  12.151  0.2122  0.0452  0.0869
 3403W        W22937   2.862  10.640  13.723  0.0774 -0.0219  0.2633
 3404W        W22938   6.185   7.432   2.340  0.2108 -0.0872  0.0473
 3405W        W22939   6.651   9.781   2.683  0.0101 -0.4765 -0.2537
 3406W        W22940   7.320   7.941   0.821 -0.2188 -0.1750  0.2273
 3407W        W22941   4.449  15.080  12.372 -0.0890  0.0402  0.0385
 3408W        W22942  17.061  13.398   4.497 -0.0758  0.1401  0.0654
 3409W        W22943  12.443   6.169   2.786 -0.2175 -0.0399  0.0709
 3410W        W22944  14.886   7.015   0.365 -0.3382  0.1577 -0.3537
 3411W        W22945  13.394   4.542  12.544 -0.2216  0.0241 -0.2583
 3412W        W22946   5.895   2.641  12.769 -0.1045  0.0926  0.0242
 3413W        W22947   6.689  12.815  15.601  0.0918  0.0107  0.0386
 3414W        W22948   8.072   7.775  14.021  0.1038 -0.1701  0.0223
 3415W        W22949  17.423   6.755  14.450  0.1034  0.0071  0.2090
 3416W        W22950  14.741  10.958  12.620 -0.1190 -0.3004  0.3469
 3417W        W22951  15.864   0.773   3.088 -0.2462  0.0025  0.0787
 3418W        W22952  17.080   1.614   1.622  0.0938 -0.0321 -0.1219
 3419W        W22953  16.712  11.414  15.419  0.1469 -0.3395 -0.0118
 3420W        W22954  17.270   1.069   0.828 -0.0394 -0.3593 -0.3015
 3421W        W22955   9.911   2.991   4.366 -0.0203  0.1612 -0.1058
 3422W        W22956   8.148  12.638   3.976 -0.0819 -0.2270  0.0566
 3423W        W22957   0.016   6.963  12.249  0.1569 -0.1847 -0.0036
 3424W        W22958   8.622   0.829  12.623 -0.0225 -0.4957 -0.0196
 3425W        W22959   3.572   0.411  15.223  0.3460 -0.0922 -0.0204
 3426W        W22960   1.014  14.333  13.119  0.0591 -0.0032 -0.1308
 3427W        W22961  16.144  12.166   0.855  0.1794 -0.3363 -0.2106
 3428W        W22962   3.009  12.364   1.714 -0.0295 -0.0249 -0.1194
 3429W        W22963   6.376   0.478   3.621 -0.0291  0.1417 -0.1677
 3430W        W22964  16.001  15.102   4.630 -0.1379 -0.0347 -0.4969
 3431W        W22965  13.972   3.081  12.799  0.0254  0.1558  0.2203
 3432W        W22966   6.126   2.147  16.616 -0.0154 -0.0380 -0.2137
 3433W        W22967  17.096   3.683  13.246 -0.1703 -0.0709  0.0099
 3434W        W22968  11.750   2.565  15.293 -0.2693  0.1298  0.1191
 3435W        W22969   6.776   9.804  15.161  0.0105  0.1346  0.0050
 3436W        W22970  14.417   1.546  13.083 -0.1226 -0.1856  0.1984
 3437W        W22971   7.642  14.351   3.294 -0.1258 -0.1587  0.2492
 3438W        W22972   6.065   0.314  12.632  0.0468  0.1896  0.0426
 3439W        W22973  10.764  12.420  13.077 -0.2610 -0.1003  0.1523
 3440W        W22974   0.620   3.111  14.294 -0.1855  0.2832  0.1203
 3441W        W22975   9.691  11.012  12.525  0.1012 -0.2065  0.1377
 3442W        W22976   3.821  12.938  14.196  0.2485 -0.1036 -0.1103
 3443W        W22977  15.320  13.157   0.542 -0.0519 -0.0623 -0.0692
 3444W        W22978  13.847   2.104  11.830  0.0007 -0.0514 -0.3513
 3445W        W22979  10.151  10.076   0.691  0.1562 -0.2343  0.0397
 3446W        W22980   1.162   5.216  14.977 -0.0629 -0.0852 -0.3451
 3447W        W22981   0.368   7.093   3.129  0.3188  0.2663  0.0484
 3448W        W22982   8.531   8.222  11.629  0.1815  0.1970 -0.2948
 3449W        W22983   5.589  16.672   0.676 -0.2650  0.3956  0.4937
 3450W        W22984   3.376  14.456  15.185  0.0841  0.0650  0.0814
 3451W        W22985  16.169   8.660   2.984  0.2880  0.1622 -0.1366
 3452W        W22986   9.202  12.390  13.242  0.1472 -0.1526 -0.0524
 3453W        W22987  13.942  15.366   1.662  0.0660 -0.0596 -0.2151
 3454W        W22988  12.249   4.263   3.155 -0.1489 -0.2658 -0.1189
 3455W        W22989   7.174   4.059  14.231  0.3810 -0.2747  0.0718
 3456W        W22990   2.864   9.182   4.517  0.0652  0.0429 -0.0584
 3457W        W22991  13.659  13.661   0.427 -0.0184 -0.0620 -0.1016
 3458W        W22992  13.156   9.455  12.887  0.0776  0.2063 -0.0210
 3459W        W22993   1.833   7.070   3.163 -0.0809  0.0135  0.0802
 3460W        W22994   0.090  15.154  14.739  0.1095  0.0781  0.0604
 3461W        W22995   8.288  11.475  14.585 -0.1003 -0.0780 -0.1081
 3462W        W22996   3.441  17.523   0.125 -0.0020  0.4612  0.3429
 3463W        W22997  10.204   4.788   3.255  0.5540 -0.0644 -0.0463
 3464W        W22998   6.857   7.232   1.829  0.2980 -0.0893  0.0838
 3465W        W22999  17.045  13.071  12.366  0.0571 -0.2269 -0.2512
 3466W        W23000   7.343   4.118   4.129 -0.1426  0.2336 -0.1460
 3467W        W23001   2.546  16.266   0.015 -0.1026  0.1368  0.0769
 3468W        W23002   4.256   6.727   1.413 -0.1490 -0.0516  0.2108
 3469W        W23003  11.075   5.085   1.570  0.1970 -0.2632 -0.3708
 3470W        W23004  16.058   9.961  13.540  0.0755  0.2388  0.2150
 3471W        W23005  16.441   1.962  12.923  0.0987 -0.0534  0.3849
 3472W        W23006   9.709  16.226   3.696  0.5983 -0.2162  0.1582
 3473W        W23007  14.529  15.991   4.654 -0.2016 -0.2217  0.0646
 3474W        W23008   3.926   5.290  13.966  0.2585 -0.2383 -0.2356
 3475W        W23009  15.437  13.480   4.084  0.4125  0.0576  0.1324
 3476W        W23010  14.012  16.604  12.401 -0.1601  0.0740  0.1759
 3477W        W23011   6.496   5.814   0.711 -0.0843 -0.4562  0.0951
 3478W        W23012  17.050   8.518   0.747  0.2925 -0.1610 -0.0084
 3479W        W23013  11.394   5.787  15.856 -0.1344  0.1640 -0.2343
 3480W        W23014   9.240   1.256  12.108 -0.2496  0.4578 -0.2403
 3481W        W23015  14.758  11.310  12.226  0.1877  0.1817 -0.3867
 3482W        W23016  17.056  11.204   1.922  0.2501 -0.1463  0.1752
 3483W        W23017   6.855   1.854  15.951 -0.4004  0.0299  0.1647
 3484W        W23018   8.057  16.593   1.659  0.0963  0.1355  0.4877
 3485W        W23019   4.466  10.865   1.052 -0.2962 -0.1103  0.0015
 3486W        W23020  15.967   0.308  12.485 -0.1166  0.0596 -0.0981
 3487W        W23021  10.068   5.910   4.418 -0.3222 -0.3833  0.0457
 3488W        W23022  15.267  14.214   4.671  0.0589 -0.1865 -0.1352
 3489W        W23023   1.480   5.721  14.109  0.0603  0.1679  0.0799
 3490W        W23024   8.205  17.511  16.713 -0.1240 -0.2126 -0.1836
 3491W        W23025  14.036   7.753  12.671 -0.1853 -0.3311  0.1945
 3492W        W23026   7.261   1.134  15.385 -0.1983 -0.0032  0.1017
 3493W        W23027   2.216   5.484   1.070  0.1459 -0.1420  0.1535
 3494W        W23028  12.687  14.876  15.085 -0.2061 -0.0007 -0.0302
 3495W        W23029   6.799   5.094   1.399 -0.0545 -0.1347 -0.4873
 3496W        W23030  14.739  16.913   2.027 -0.2546  0.1357  0.2824
 3497W        W23031   0.995  12.839   3.306 -0.0879  0.2714  0.3056
 3498W        W23032  13.381  10.579   3.276 -0.1770  0.0822  0.1309
 3499W        W23033  12.075  16.002   4.654 -0.1000  0.2228  0.1104
 3500W        W23034   5.783  14.542   3.876 -0.2395 -0.1195 -0.1347
 3501W        W23035   0.146   1.607   1.152 -0.3190 -0.2553 -0.0290
 3502W        W23036  15.849   5.817  16.061  0.3839  0.2131  0.0690
 3503W        W23037  11.293   8.753  11.975 -0.3227 -0.1341  0.2133
 3504W        W23038  11.138  10.713  13.797  0.3377  0.0540  0.2747
 3505W        W23039   3.711  15.295   2.357  0.0263  0.1557  0.1573
 3506W        W23040   9.649   8.485   1.966 -0.1182  0.3933 -0.0581
 3507W        W23041  12.896  13.414  15.190 -0.1789 -0.0211 -0.0537
 3508W        W23042   4.990   3.311   4.705 -0.1789 -0.0448 -0.2047
 3509W        W23043  15.930   9.834  12.851  0.0999 -0.1290 -0.2407
 3510W        W23044   9.071  10.252   4.415 -0.1824  0.0586 -0.2333
 3511W        W23045   4.570   1.782  15.904  0.0975  0.2867  0.0321
 3512W        W23046   4.615  17.149  13.717 -0.1788 -0.0189 -0.1036
 3513W        W23047  14.598   5.849   1.864 -0.0208 -0.2448 -0.0754
 3514W        W23048  13.207  15.836  12.259 -0.1118 -0.1933 -0.0605
 3515W        W23049   8.169  13.011   3.074 -0.1477  0.1195 -0.2224
 3516W        W23050  14.344   8.460  12.289 -0.1493  0.0047  0.0429
 3517W        W23051  14.927   4.383  14.900 -0.1472 -0.0446  0.2695
 3518W        W23052  15.289  16.061   3.991 -0.0408  0.2486  0.0057
 3519W        W23053   9.398   9.700   4.965  0.0698  0.1682 -0.2236
 3520W        W23054  15.541   9.285  14.053 -0.0249  0.4893  0.1906
 3521W        W23055   6.050  16.254  12.958 -0.0461  0.3580  0.0966
 3522W        W23056  13.569   8.758   4.377  0.1170 -0.0343 -0.0170
 3523W        W23057  14.078   6.855  13.595  0.0077  0.0374  0.1176
 3524W        W23058   1.444   7.329  10.579  0.0932  0.1744  0.1233
 3525W        W23059   4.333   7.857  14.460 -0.4214 -0.2200 -0.1108
 3526W        W23060   3.116   6.517  15.287 -0.0463  0.1516  0.0319
 3527W        W23061   0.072   8.819  14.820  0.0545  0.1048  0.1709
 3528W        W23062   0.035  14.310   1.929 -0.0505 -0.3851 -0.5922
 3529W        W23063   2.408  17.886  13.185  0.1710 -0.0674  0.1525
 3530W        W23064  17.146  14.050  15.075  0.2261 -0.0749 -0.0492
 3531W        W23065  14.204   8.774  11.818 -0.1059 -0.0681  0.0438
 3532W        W23066   8.492   6.560   5.241  0.1310  0.0172  0.1561
 3533W        W23067   3.419   6.380  15.829 -0.0590  0.2523 -0.0588
 3534W        W23068   1.409   0.121  15.515  0.0145  0.1646 -0.1349
 3535W        W23069  14.206  17.217  15.778  0.0925 -0.1769 -0.1169
 3536W        W23070   9.455  11.424  13.399  0.0655 -0.1642  0.0948
 3537W        W23071   2.965  15.989   1.207  0.2025 -0.0553  0.0409
 3538W        W23072  14.819   8.873   3.773  0.0776  0.0433 -0.2582
 3539W        W23073   4.753  12.869  14.282 -0.2802  0.1454  0.0211
 3540W        W23074  16.965  11.834  15.218  0.1288 -0.0935  0.0286
 3541W        W23075   0.612   3.394   2.956 -0.1296  0.0724 -0.2154
 3542W        W23076   9.235   1.114  13.892 -0.1457 -0.2495  0.1599
 3543W        W23077   0.191  16.967   0.980  0.4189 -0.3129 -0.0167
 3544W        W23078  15.880  13.830  15.700  0.1705  0.0815  0.1268
 3545W        W23079  15.456   6.380   3.885 -0.0054 -0.2331 -0.0231
 3546W        W23080   5.849  11.667   2.091 -0.3323 -0.0108  0.1209
 3547W        W23081   6.556   9.412   3.452  0.1739 -0.3975  0.1861
 3548W        W23082   5.057   0.603   3.978  0.0108 -0.0953  0.1084
 3549W        W23083  15.918   1.669   4.076  0.1690 -0.2760 -0.0045
 3550W        W23084   5.973  13.668  16.110 -0.1422  0.1931 -0.1637
 3551W        W23085   0.820  13.334   3.238  0.0978  0.2472 -0.1082
 3552W        W23086   1.356   9.029   4.409  0.1071 -0.1200  0.2485
 3553W        W23087  13.604   0.358   1.275  0.0516  0.2415 -0.4015
 3554W        W23088   4.199  13.047  15.699 -0.0025  0.1629 -0.2567
 3555W        W23089   3.532   4.932   2.941  0.1806  0.1879 -0.0296
 3556W        W23090  11.717   8.324   0.986  0.0210  0.1253  0.4525
 3557W        W23091   3.251  11.822  13.123  0.0459 -0.0650  0.3215
 3558W        W23092  14.060   4.440  13.390 -0.1582 -0.0151  0.1533
 3559W        W23093   7.610  12.022   2.392  0.3585 -0.1328 -0.1895
 3560W        W23094   2.254   0.236   3.276  0.1476 -0.1151 -0.2227
 3561W        W23095   5.230  12.022  14.062 -0.2735 -0.0662  0.0006
 3562W        W23096   5.967  10.855  15.039  0.0962 -0.1903  0.0403
 3563W        W23097   5.204   3.089   2.987  0.0852 -0.3955 -0.0389
 3564W        W23098  17.605   4.820  13.145  0.0488  0.0858 -0.1365
 3565W        W23099   9.210   8.565   3.350  0.1437 -0.2845 -0.2010
 3566W        W23100  17.596   0.808  14.324 -0.4229 -0.3229  0.5203
 3567W        W23101   8.796   9.937  14.673 -0.0569 -0.2600  0.0850
 3568W        W23102   0.237  14.166   1.533 -0.0405  0.0455  0.0543
 3569W        W23103   4.166   9.927   3.070 -0.2769  0.3800  0.1146
 3570W        W23104  17.172   9.397  12.478  0.1289 -0.1777  0.1895
 3571W        W23105   2.687  13.405  12.123  0.0130 -0.2829 -0.0086
 3572W        W23106   5.699   7.866   4.036 -0.1837  0.3695 -0.0315
 3573W        W23107   7.222   7.649  15.754  0.1045 -0.2072 -0.1563
 3574W        W23108   7.785  12.830   3.433 -0.1573 -0.1914  0.1502
 3575W        W23109  17.597   9.385   4.768 -0.4979 -0.2313 -0.0340
 3576W        W23110   7.551   1.805  12.490 -0.0799 -0.0367 -0.0599
 3577W        W23111  10.572   8.844   2.441 -0.0558  0.0828 -0.0849
 3578W        W23112   0.930  13.266  16.162  0.2960 -0.0627  0.1922
 3579W        W23113  14.191  12.035  15.908  0.2769  0.2120 -0.2992
 3580W        W23114   1.710  13.315  13.583 -0.0653  0.0813 -0.2341
 3581W        W23115  15.634  15.206  12.850 -0.0702  0.3900  0.3569
 3582W        W23116   6.457  17.332  14.881  0.0517 -0.3996  0.1080
 3583W        W23117   1.504  16.918   0.353 -0.1422 -0.3070  0.2112
 3584W        W23118   5.274   9.640  13.290  0.1136 -0.2893  0.0110
 3585W        W23119   5.331   2.895   5.687  0.0668  0.0330  0.0790
 3586W        W23120   1.539  12.910  15.639 -0.1152 -0.0237  0.0055
 3587W        W23121   1.886  12.318  13.808 -0.0386 -0.3530  0.0731
 3588W        W23122   5.811  10.843  13.401 -0.0903  0.2965  0.0043
 3589W        W23123   8.536   4.794  13.341 -0.0703  0.3522  0.2979
 3590W        W23124   0.784   9.311  12.076  0.0140 -0.0087 -0.0802
 3591W        W23125  14.257  12.914  15.397  0.3821 -0.3101  0.1023
 3592W        W23126   6.081   6.109   3.703  0.0852 -0.0754 -0.1822
 3593W        W23127  12.463   0.411  14.480 -0.0745  0.0663  0.1046
 3594W        W23128  10.414   2.053  13.982  0.1184 -0.1482 -0.1440
 3595W        W23129   3.300   3.094  14.936  0.2310 -0.2919 -0.1822
 3596W        W23130  13.304  12.371   1.863  0.1607 -0.0911  0.0780
 3597W        W23131   4.348  10.351  12.667 -0.0081 -0.2445  0.1066
 3598W        W23132  15.628   2.504  12.608 -0.0352 -0.1812 -0.1768
 3599W        W23133   2.358   5.350  12.887  0.3477  0.3227 -0.2618
 3600W        W23134   9.164  12.885   3.427  0.1419  0.0067  0.0760
 3601W        W23135   3.721   8.993   4.510  0.0346 -0.3072 -0.0017
 3602W        W23136  13.427   5.161   0.898  0.0964 -0.1262  0.1485
 3603W        W23137   5.762   2.196  14.459  0.2436 -0.2636  0.0073
 3604W        W23138   2.341   1.447  15.225  0.2370 -0.1211  0.0644
 3605W        W23139   0.628   3.715   4.277 -0.0965  0.1531  0.0702
 3606W        W23140   3.605   5.815   0.793  0.1046 -0.1565 -0.1784
 3607W        W23141   6.095   3.929  14.884  0.1875  0.1749  0.0993
 3608W        W23142  14.878  11.772   1.194  0.1627 -0.1156  0.0845
 3609W        W23143  12.501   4.714  11.379  0.0334 -0.2278  0.0712
 3610W        W23144  16.630   1.040   4.159  0.0827  0.0539  0.1528
 3611W        W23145   1.148   6.889   3.783  0.0441 -0.1072 -0.1399
 3612W        W23146   4.089  11.445   2.353 -0.0835 -0.2494  0.0139
 3613W        W23147   9.188  16.899   2.333 -0.0910  0.1321  0.1645
 3614W        W23148   5.594   8.346   4.079 -0.0277 -0.0271 -0.0033
 3615W        W23149  12.466  14.907  16.364 -0.2429  0.0131  0.0609
 3616W        W23150   5.679   9.929   4.350 -0.2364 -0.1086 -0.0201
 3617W        W23151   4.455   7.467   2.063  0.0070 -0.2852  0.1726
 3618W        W23152   4.801  17.600  14.900 -0.3595  0.0887  0.3223
 3619W        W23153   7.063   7.520   0.105  0.2088 -0.0319 -0.2760
 3620W        W23154   3.159   9.063  12.094 -0.0889  0.0423  0.0967
 3621W        W23155  15.461   9.580  16.075  0.0844 -0.1338 -0.0677
 3622W        W23156  12.985  11.957   2.939 -0.0519  0.2095 -0.1845
 3623W        W23157   1.226   0.444  14.512 -0.2353 -0.3878 -0.0856
 3624W        W23158   1.241  10.596   3.840  0.3345  0.0740  0.1550
 3625W        W23159  10.711   4.907  12.441  0.0820  0.1309 -0.0273
 3626W        W23160  17.827  17.886  12.595  0.1593  0.1200  0.1300
 3627W        W23161  10.751  14.410  14.483 -0.2634 -0.1069  0.2221
 3628W        W23162   7.597   2.433  11.996 -0.1537 -0.0998 -0.0888
 3629W        W23163   8.316   3.705  13.062  0.1870  0.1867  0.1042
 3630W        W23164   2.408   4.546   3.925 -0.1372 -0.1088 -0.0209
 3631W        W23165   0.281  17.090  15.342  0.2834 -0.2048  0.1310
 3632W        W23166   9.213  10.176   4.890  0.3299  0.2068 -0.0804
 3633W        W23167   0.350   4.567   3.316  0.1895 -0.2116 -0.1429
 3634W        W23168  14.474   6.853  13.888 -0.1869 -0.1328 -0.0354
 3635W        W23169   7.287  13.341   0.443  0.0320 -0.0795 -0.2406
 3636W        W23170   5.542   5.414  14.685  0.1857  0.0773 -0.0468
 3637W        W23171  12.519  16.673   1.494 -0.2410  0.0432  0.2471
 3638W        W23172  12.015  11.001   4.683 -0.0876  0.1827 -0.1129
 3639W        W23173   1.774  10.068  14.366 -0.1422  0.0556 -0.0481
 3640W        W23174   2.432  17.605   1.809 -0.1079  0.2724 -0.1665
 3641W        W23175  15.323   5.903   3.147 -0.0749 -0.4161  0.3207
 3642W        W23176   3.384  13.187   2.145  0.1406 -0.0308  0.1242
 3643W        W23177  13.921   6.285   0.752 -0.0982 -0.5146 -0.3793
 3644W        W23178   4.968   0.057   3.751  0.1540  0.2043  0.1337
 3645W        W23179   4.251   6.202  16.359 -0.0400  0.2457 -0.2683
 3646W        W23180  10.848   2.037   1.890  0.5334  0.3354 -0.0304
 3647W        W23181  16.066   4.924  15.764  0.1059  0.1227  0.1008
 3648W        W23182  15.645   0.963   1.033  0.1507 -0.2264 -0.1679
 3649W        W23183   8.901  10.362   2.904 -0.4759  0.5277  0.2464
 3650W        W23184   6.274   8.604   0.351 -0.0922 -0.0149 -0.1549
 3651W        W23185  13.032   4.055   2.609 -0.0570 -0.1287 -0.1593
 3652W        W23186   1.864   4.237   1.975 -0.0876 -0.0108 -0.3932
 3653W        W23187  17.725   6.594  12.747 -0.0903  0.3673 -0.0200
 3654W        W23188   2.857  10.405  15.465 -0.1879  0.3539 -0.0564
 3655W        W23189  10.072  15.013  13.597 -0.3054  0.1201  0.0517
 3656W        W23190   9.929  17.451   3.002 -0.0414  0.2912 -0.3135
 3657W        W23191  17.901   1.662   1.666  0.1585 -0.0685  0.1233
 3658W        W23192  11.410  12.052   4.441  0.1692 -0.0771  0.1246
 3659W        W23193   6.220   5.657   1.064  0.1860 -0.0484 -0.1395
 3660W        W23194  14.260  11.648   0.663  0.0697  0.0427 -0.0380
 3661W        W23195  12.919  13.980  13.885  0.3873  0.2118 -0.1744
 3662W        W23196  12.610  15.053  14.432 -0.0911  0.1544  0.2065
 3663W        W23197   0.444   6.718   0.363 -0.4202 -0.2239 -0.3887
 3664W        W23198  12.256  12.059   2.523  0.0461  0.2474  0.0900
 3665W        W23199  11.147  13.328  16.381 -0.0701  0.1630  0.0746
 3666W        W23200  12.601   2.899  16.292  0.0094 -0.2601 -0.2314
 3667W        W23201   1.830   6.224  15.945 -0.2390 -0.0005 -0.1507
 3668W        W23202   0.921   6.691   0.364  0.0252 -0.1140  0.0727
 3669W        W23203   1.090   5.175   1.559  0.1653 -0.0614  0.0438
 3670W        W23204   8.994  16.369  12.254 -0.1214  0.0786  0.5336
 3671W        W23205   8.818   3.018   3.100  0.0370 -0.1303  0.0394
 3672W        W23206   6.516  16.003  15.214 -0.2278 -0.1426 -0.3245
 3673W        W23207   1.397   1.046  15.332  0.0796  0.1438  0.2807
 3674W        W23208  12.642  12.551   1.162  0.0565  0.2150  0.2941
 3675W        W23209  16.006  13.509  13.608  0.3685 -0.4147 -0.1480
 3676W        W23210   3.118  16.385   2.661 -0.0273  0.0360 -0.1580
 3677W        W23211  10.223   1.520   0.744  0.3914 -0.1069  0.0322
 3678W        W23212   5.783   0.106  15.988  0.1578  0.1048 -0.2083
 3679W        W23213   1.291   6.312   3.712  0.2608  0.1607 -0.3355
 3680W        W23214   8.144  10.876   2.217  0.1037 -0.1239  0.0325
 3681W        W23215   2.715  11.726  14.554  0.1220  0.0558 -0.2846
 3682W        W23216   8.402  12.276  16.492  0.3413 -0.2630 -0.1027
 3683W        W23217  17.733  11.858  15.592  0.2736  0.2486 -0.0163
 3684W        W23218  17.676  14.691  13.878  0.0550  0.1255 -0.0022
 3685W        W23219   2.833   4.772   4.157  0.0790  0.4297 -0.0983
 3686W        W23220  17.279   5.410  15.175  0.1213  0.1609 -0.1993
 3687W        W23221  15.905   7.495   4.248  0.1524  0.0748  0.0024
 3688W        W23222   7.124   4.559  14.413  0.0532  0.1226 -0.1628
 3689W        W23223  16.604   8.205   4.669 -0.1506 -0.0106  0.1664
 3690W        W23224   0.221   0.887  15.864 -0.1321  0.0203  0.1611
 3691W        W23225   5.891   7.552  11.282 -0.0083 -0.1187 -0.0824
 3692W        W23226   0.949   8.867  12.290 -0.1123 -0.0471  0.2300
 3693W        W23227   4.066   5.245   0.667 -0.2289  0.1154  0.0605
 3694W        W23228  10.135  11.964   0.133  0.1238  0.2652  0.2191
 3695W        W23229  11.239   3.475   4.769 -0.1823 -0.1841  0.1316
 3696W        W23230   8.214   6.889   3.442  0.0272 -0.1608 -0.1618
 3697W        W23231   3.825   1.652   0.886  0.4121 -0.1135  0.1261
 3698W        W23232   3.881   1.424  12.500  0.1859  0.4222 -0.1474
 3699W        W23233   3.233  16.501   3.128  0.1571 -0.1904 -0.2657
 3700W        W23234   4.723   4.882   0.656 -0.2113 -0.4284  0.2057
 3701W        W23235   9.497  12.663   3.780  0.0412 -0.2598 -0.0875
 3702W        W23236  14.193  15.161   3.558 -0.4128 -0.4482  0.1355
 3703W        W23237  13.962   0.025  16.142 -0.0497  0.3173 -0.0589
 3704W        W23238   5.804  14.513   1.444  0.3336  0.0449 -0.0566
 3705W        W23239   3.378   9.378   5.290  0.3336 -0.3053  0.1006
 3706W        W23240   1.079  14.758  13.415 -0.1981  0.0604 -0.0222
 3707W        W23241  14.956  11.398  15.160  0.5841 -0.1188  0.2350
 3708W        W23242   7.614   7.802  16.039 -0.0560 -0.0682 -0.0729
 3709W        W23243   9.165   9.162  15.459 -0.0430 -0.1371 -0.2394
 3710W        W23244   8.644  15.135   4.269  0.1625 -0.1977  0.0576
 3711W        W23245  16.911   0.042   2.705 -0.4170  0.1393  0.2298
 3712W        W23246   4.154  17.464  12.216  0.0947  0.0980  0.1571
 3713W        W23247  17.638   1.920   0.919  0.1696  0.1963  0.2138
 3714W        W23248  16.234   3.933  15.115 -0.0831  0.0366  0.1936
 3715W        W23249  16.210   3.135  15.559 -0.0888 -0.1295 -0.2279
 3716W        W23250  11.275  16.949   4.141  0.4463 -0.0521  0.0765
 3717W        W23251  12.195   9.642  12.054  0.0267  0.2171 -0.1351
 3718W        W23252   0.926  11.413  12.872 -0.1971  0.0170  0.1728
 3719W        W23253   2.634   8.412   1.487  0.1572  0.2030  0.1021
 3720W        W23254  12.375  13.540   0.294 -0.0999  0.2559  0.0775
 3721W        W23255   3.835   4.497   6.260 -0.0399  0.1167 -0.3553
 3722W        W23256  12.389   7.304  15.071  0.1270 -0.0728  0.1898
 3723W        W23257  13.241   9.112  12.073 -0.3445 -0.0469  0.2543
 3724W        W23258  11.291   4.975   2.426 -0.1399  0.2196 -0.0391
 3725W        W23259   2.771   5.400  16.449  0.1149 -0.2055  0.0167
 3726W        W23260  15.634  16.188   1.631 -0.1926 -0.1479  0.2709
 3727W        W23261   5.894   0.850   4.023  0.1225  0.1820  0.0876
 3728W        W23262   3.210  16.417   3.653 -0.1846  0.3073 -0.0378
 3729W        W23263   7.403   5.192   1.524 -0.2865 -0.1254 -0.2447
 3730W        W23264   5.123  12.139  12.339  0.0987  0.2971 -0.1694
 3731W        W23265  14.889  12.315   0.994  0.0581 -0.0869  0.0635
 3732W        W23266   4.163  13.526  14.922  0.0380 -0.0801  0.1121
 3733W        W23267   1.281   5.772   4.706 -0.0760  0.2837  0.0706
 3734W        W23268  16.438   3.313  13.724 -0.1789 -0.0432 -0.3168
 3735W        W23269   6.302  16.714   3.774  0.0993 -0.2453 -0.4005
 3736W        W23270  17.297   7.280   3.904  0.3862 -0.0860 -0.0910
 3737W        W23271  16.578   5.539   4.240 -0.2019 -0.0358 -0.1649
 3738W        W23272  11.525   8.927  14.829  0.0482 -0.2095  0.1478
 3739W        W23273   4.746   1.878   1.050 -0.0432  0.3049  0.0506
 3740W        W23274  17.373  15.353  16.133 -0.0759 -0.0823  0.1045
 3741W        W23275   8.297   5.056  12.580 -0.0181  0.1261  0.0290
 3742W        W23276   8.746   6.352   0.102  0.0206 -0.2256  0.0904
 3743W        W23277   1.627   5.463   4.489  0.0265  0.1505 -0.2015
 3744W        W23278   5.687  17.333   3.877 -0.2002  0.1225  0.2256
 3745W        W23279  15.658  12.759   0.389  0.0239  0.3313  0.0377
 3746W        W23280  10.508   6.817  16.460 -0.0356 -0.0655  0.1288
 3747W        W23281   4.118  10.475   3.811  0.3678  0.1024 -0.2284
 3748W        W23282   5.082   9.602   0.827  0.3283  0.0822  0.3043
 3749W        W23283   3.167  16.018   3.308 -0.0562 -0.1617  0.0473
 3750W        W23284  15.366   2.452  14.737  0.1910 -0.2736  0.0362
 3751W        W23285   5.907  14.076  12.035 -0.0163 -0.0066  0.0124
 3752W        W23286   8.769   7.552   4.007 -0.0350 -0.0283  0.1725
 3753W        W23287   7.939   1.027   4.767  0.1366  0.0124  0.2967
 3754W        W23288  17.357   1.191  12.733 -0.3469 -0.2267  0.0041
 3755W        W23289   1.308  15.066   3.399  0.0377 -0.4691  0.2515
 3756W        W23290  15.259   2.927  15.831 -0.2068  0.1844  0.1822
 3757W        W23291  16.762  17.134   0.890  0.1790  0.1435 -0.0307
 3758W        W23292   8.794   4.574  11.866  0.1063  0.1715 -0.0720
 3759W        W23293   1.922   9.904  11.774  0.1268  0.1945  0.2016
 3760W        W23294  15.483  14.711  12.166 -0.2362  0.0351  0.0645
 3761W        W23295   1.247  15.720   1.175 -0.2085  0.1089  0.1595
 3762W        W23296   4.308  15.745   2.974 -0.0020  0.1166 -0.0673
 3763W        W23297   6.448   7.627   3.674 -0.0717 -0.1110 -0.0433
 3764W        W23298   8.806  12.938  14.571 -0.0095 -0.2506  0.2434
 3765W        W23299   0.798  14.783  13.835 -0.0760  0.2952 -0.2087
 3766W        W23300  13.033   2.420  12.831  0.1238  0.0670 -0.0015
 3767W        W23301   4.748  13.552   4.893  0.0360  0.1053 -0.0526
 3768W        W23302  17.382  16.024  12.126 -0.1066  0.0431  0.2952
 3769W        W23303  13.568  15.309  12.756  0.1544 -0.0536 -0.1075
 3770W        W23304   5.028   8.395  12.984 -0.3583 -0.0924  0.3874
 3771W        W23305  11.555   7.305   1.796  0.6935  0.0611  0.1104
 3772W        W23306   5.231   4.664   1.400  0.0539  0.0463  0.0693
 3773W        W23307  17.101   4.287  15.759 -0.0386  0.2853  0.2638
 3774W        W23308  10.916   8.994  13.561 -0.0998 -0.2775  0.0525
 3775W        W23309  15.205  17.840  15.520  0.1588  0.0317  0.1221
 3776W        W23310   8.845   5.174   3.838 -0.3295 -0.0736  0.1319
 3777W        W23311  16.705   2.391  16.590  0.0814  0.2726 -0.0996
 3778W        W23312   7.877   8.188   1.171 -0.0631 -0.0754  0.0045
 3779W        W23313  17.375   9.822   0.734 -0.1767  0.4628 -0.1909
 3780W        W23314   0.628   5.633   0.430  0.1101 -0.0070  0.0999
 3781W        W23315  10.296  13.934  11.633  0.2179 -0.2137  0.1585
 3782W        W23316   3.693   1.415  15.222 -0.0268  0.1467  0.2002
 3783W        W23317  15.669  14.283   4.963 -0.3230 -0.1355  0.0304
 3784W        W23318  11.167   1.427  13.364 -0.0360  0.0892 -0.0122
 3785W        W23319   0.828  12.822   2.116 -0.1425  0.0214  0.0346
 3786W        W23320  17.800   0.518  13.301 -0.0091 -0.0530  0.3584
 3787W        W23321  16.993  16.239  16.361  0.0253 -0.0200  0.1769
 3788W        W23322   3.380   6.147  14.010  0.1148  0.3247  0.1141
 3789W        W23323   3.381   1.601   4.319  0.1026 -0.0772 -0.2966
 3790W        W23324   5.938  14.125   4.173  0.5202 -0.2220  0.1451
 3791W        W23325   5.493  15.351   3.544  0.0115  0.0788  0.2493
 3792W        W23326   0.862  13.991  15.830  0.2747 -0.1070 -0.4916
 3793W        W23327   8.524   6.466  15.936 -0.2820  0.0129 -0.1725
 3794W        W23328   9.791  12.351   3.476  0.1598 -0.0231  0.2112
 3795W        W23329  10.984   7.992   1.498  0.3143  0.0209  0.1926
 3796W        W23330   2.749   0.156   3.548 -0.0759 -0.0638 -0.1470
 3797W        W23331  10.764  13.435  13.110  0.3020 -0.1685 -0.0149
 3798W        W23332   0.830  14.794   3.555  0.0993  0.2985  0.0514
 3799W        W23333  10.779  15.558   4.084  0.2482  0.3775 -0.0400
 3800W        W23334  15.679   4.722  15.410  0.2284  0.0599 -0.0600
 3801W        W23335   1.812  14.514  16.530 -0.0304 -0.1605  0.2265
 3802W        W23336   9.569   8.339   0.452 -0.0256 -0.1457 -0.1619
 3803W        W23337  11.703   7.711  11.222 -0.0519 -0.3150 -0.3569
 3804W        W23338  17.774  11.142  13.619 -0.1660  0.0956  0.1232
 3805W        W23339   3.973   1.663   0.019 -0.1758 -0.4972 -0.1996
 3806W        W23340   2.489  14.545   1.752 -0.1133  0.2579 -0.2980
 3807W        W23341  12.143   9.184   3.961 -0.1930 -0.0977  0.2336
 3808W        W23342   5.811  14.773   2.039  0.0151 -0.1254 -0.0886
 3809W        W23343  16.656   8.747  14.426  0.0235  0.0759  0.0334
 3810W        W23344   4.658   6.719  15.627 -0.1354 -0.0673  0.1914
 3811W        W23345   0.726   9.815  10.881  0.1432 -0.0049  0.1002
 3812W        W23346  13.869  10.617  12.933 -0.3219  0.0380  0.0675
 3813W        W23347   2.900   5.114  13.892 -0.1598 -0.3991  0.1513
 3814W        W23348   7.957   8.179   5.518 -0.2676 -0.0848 -0.1338
 3815W        W23349   2.556   8.833   0.764  0.0934  0.2295 -0.2279
 3816W        W23350   3.341  10.874  14.423 -0.1163  0.0644  0.2126
 3817W        W23351  15.050   9.346  16.439 -0.0118  0.0695  0.1064
 3818W        W23352   6.525   5.336  11.482 -0.3036 -0.4747  0.3776
 3819W        W23353  13.528   2.217  15.995 -0.1355  0.2067 -0.0562
 3820W        W23354   2.754   6.852  13.657 -0.1694  0.1124  0.1576
 3821W        W23355   9.579  15.057  14.475  0.2219  0.0329  0.1025
 3822W        W23356  12.597   8.898  13.253  0.1025  0.1167  0.0784
 3823W        W23357   2.597  14.546  13.632 -0.1118 -0.0200 -0.1288
 3824W        W23358  12.577  11.528  12.409  0.2413  0.1762  0.3363
 3825W        W23359   1.247  17.222  12.446  0.1484 -0.1064  0.3181
 3826W        W23360  12.844  15.579   3.163  0.3063  0.4405  0.0800
 3827W        W23361  14.708   1.048   4.532 -0.0824  0.0587  0.1338
 3828W        W23362  12.004   4.555  13.759 -0.1479 -0.1938 -0.2747
 3829W        W23363  12.088  12.085   0.110  0.1946 -0.1854 -0.0997
 3830W        W23364   8.265   9.830   4.436 -0.2450 -0.0325  0.0965
 3831W        W23365  13.372   9.264  14.960 -0.2339  0.1321 -0.0040
 3832W        W23366   9.407  14.569   3.882  0.1359  0.0062  0.2666
 3833W        W23367   0.253  14.528   0.547 -0.0164  0.1643  0.1789
 3834W        W23368   2.090   9.351  13.645 -0.2124  0.0797  0.2176
 3835W        W23369   1.773   7.946   1.354 -0.0527 -0.3825 -0.0285
 3836W        W23370   0.025  13.468   3.709 -0.0092  0.0799 -0.3533
 3837W        W23371   7.267   3.843  11.944 -0.3796 -0.1949 -0.0553
 3838W        W23372   8.377  16.866   1.955 -0.1207 -0.0668 -0.0784
 3839W        W23373   1.979  12.913  14.232  0.4869  0.1031 -0.0178
 3840W        W23374  16.728  17.165   3.407  0.0235 -0.0015 -0.0331
 3841W        W23375  14.669   0.124   4.000 -0.0649  0.3629  0.1269
 3842W        W23376   0.258  13.712   0.614  0.0204  0.1657  0.2019
 3843W        W23377  16.050  11.176  14.237  0.1253  0.1310 -0.0890
 3844W        W23378   3.766   0.307   1.182 -0.3055 -0.0810 -0.2395
 3845W        W23379   2.371   2.772  13.390  0.0984 -0.0040  0.1036
 3846W        W23380  14.745  14.081   2.452 -0.1601  0.0194 -0.2721
 3847W        W23381  16.808  12.707   2.878 -0.0573  0.1310 -0.3403
 3848W        W23382   4.872   6.054  16.349  0.0418 -0.0694  0.3245
 3849W        W23383  14.205  10.165  16.140 -0.1961  0.0975 -0.3090
 3850W        W23384  12.649  12.744   5.928 -0.1001 -0.0274  0.1164
 3851W        W23385   6.719  15.945  14.203  0.0465 -0.0105 -0.0375
 3852W        W23386  13.418  12.936   3.025 -0.0029 -0.3265  0.1160
 3853W        W23387   3.211   9.517  14.299 -0.2261 -0.0594  0.1397
 3854W        W23388   5.505   5.091  12.622 -0.1515  0.2959 -0.0391
 3855W        W23389  14.836  13.976  11.907 -0.0059  0.0286  0.3668
 3856W        W23390   4.079  10.711  13.303 -0.0360 -0.1140  0.0925
 3857W        W23391  15.458  10.151  14.377  0.0505  0.0925  0.2397
 3858W        W23392   3.792   8.652  16.029 -0.0010  0.2782 -0.1823
 3859W        W23393  10.008   2.188   3.689  0.0447  0.1008  0.2831
 3860W        W23394   6.662   9.232   2.188 -0.1516 -0.1547  0.0437
 3861W        W23395   3.532   9.064  12.630 -0.1421  0.0007 -0.1700
 3862W        W23396   8.386   4.389   5.118  0.1269 -0.2082 -0.1266
 3863W        W23397   7.067   7.770   1.966  0.0137 -0.2456 -0.6110
 3864W        W23398  15.279   2.578  16.195 -0.3441 -0.0180  0.4577
 3865W        W23399   0.263  10.391   0.641  0.0892 -0.0746  0.2432
 3866W        W23400  17.056   6.832  16.401 -0.1412  0.3214  0.0594
 3867W        W23401   6.959   2.079   1.593  0.2257  0.0068 -0.0679
 3868W        W23402   2.439  14.324   3.261  0.1612  0.1639 -0.0848
 3869W        W23403  16.868   8.537  12.817 -0.1639  0.1703  0.1138
 3870W        W23404   3.710  10.981   4.980 -0.0317 -0.1462  0.1787
 3871W        W23405   3.542  11.274   4.611  0.1583 -0.0830  0.0379
 3872W        W23406   2.869  15.738  16.475 -0.0639  0.0051  0.0804
 3873W        W23407  12.091  12.672  11.712  0.1767  0.1694 -0.2419
 3874W        W23408   0.339  15.934   3.558 -0.0900  0.3786 -0.0811
 3875W        W23409  12.850   2.442  15.670 -0.2302 -0.3912 -0.2188
 3876W        W23410   1.018   8.688   1.474 -0.0717  0.0570 -0.0288
 3877W        W23411   6.968   0.676  14.014 -0.2287  0.0285  0.0026
 3878W        W23412  17.574   4.762  14.240  0.3028 -0.0042  0.3338
 3879W        W23413   6.600   2.903   4.155 -0.0167 -0.2303 -0.1850
 3880W        W23414   3.627  15.548  13.006 -0.3976 -0.1090  0.3394
 3881W        W23415  17.247   4.589   1.731 -0.1719 -0.2441  0.0068
 3882W        W23416   5.891   9.425   4.040 -0.2475  0.0050 -0.1931
 3883W        W23417   0.044   8.482  16.180 -0.2622  0.0291  0.1490
 3884W        W23418  11.470  12.655  12.239  0.0173 -0.1710 -0.3340
 3885W        W23419  14.379  15.577   0.159  0.2863  0.1207  0.3283
 3886W        W23420  15.068  15.931   2.999 -0.1043  0.1044  0.1072
 3887W        W23421   9.497  12.317  13.980  0.4116 -0.0038 -0.0316
 3888W        W23422   7.075  10.749  14.934 -0.0064 -0.1565 -0.0396
 3889W        W23423  11.430   8.137  16.530 -0.0648 -0.2135  0.1506
 3890W        W23424   6.770   4.262   0.044 -0.2020  0.0422 -0.1719
 3891W        W23425   3.873  11.519   1.434 -0.1705  0.0698  0.0002
 3892W        W23426  12.321   4.570  14.935  0.1510 -0.1626  0.0369
 3893W        W23427   8.165   1.149  10.865 -0.2222  0.1971 -0.0577
 3894W        W23428  17.452  10.743   0.267 -0.0810 -0.1478 -0.1274
 3895W        W23429  13.846  13.323   2.644  0.4295 -0.2901 -0.0204
 3896W        W23430  14.864  16.819  13.085 -0.2104  0.0363  0.0621
 3897W        W23431   4.002   8.110  16.060 -0.0297 -0.1376  0.1994
 3898W        W23432   6.514   6.610   2.275  0.2594 -0.0981 -0.1894
 3899W        W23433   0.090  16.661  13.180 -0.1403 -0.0387 -0.3045
 3900W        W23434   9.684  16.983   4.900 -0.0769  0.0469  0.2280
 3901W        W23435   2.079  16.261   1.727  0.2685  0.2055  0.1333
 3902W        W23436  17.378  15.324   4.374 -0.0667 -0.0925  0.2433
 3903W        W23437   2.179   3.044  13.028 -0.1027  0.0024 -0.0253
 3904W        W23438  14.956   3.918   3.529  0.3045 -0.0127  0.1720
 3905W        W23439   7.215  15.088   1.043  0.0425  0.1401 -0.1701
 3906W        W23440  15.945   4.115   0.243  0.2509 -0.3101 -0.3027
 3907W        W23441   5.222   2.139  13.843 -0.2743  0.0051 -0.0637
 3908W        W23442   7.107   4.477   3.314 -0.3383  0.1786  0.0162
 3909W        W23443   2.701  13.565   3.666  0.0625 -0.0916 -0.0431
 3910W        W23444   5.095   0.707  12.599  0.0742  0.0917  0.1924
 3911W        W23445   7.094   8.445   2.735  0.4258 -0.3455  0.1959
 3912W        W23446   5.135   4.833   0.384  0.3151  0.4652  0.1578
 3913W        W23447   2.948   7.628  13.366  0.0075  0.3511 -0.1382
 3914W        W23448   5.606   2.027  13.558  0.2279  0.0635  0.2730
 3915W        W23449   4.024   7.747  14.867  0.3317 -0.2642  0.0261
 3916W        W23450   6.545   9.942   3.160 -0.1084 -0.1129  0.0800
 3917W        W23451  14.161  13.553   0.487  0.2438 -0.1031 -0.1376
 3918W        W23452   9.040   2.874   1.359  0.0584  0.0785 -0.0211
 3919W        W23453   0.866  12.574  14.972  0.2557  0.0384 -0.0026
 3920W        W23454  16.472   5.861  13.037  0.2358 -0.3374  0.2053
 3921W        W23455   0.292   2.659   0.642  0.0306 -0.6197 -0.1630
 3922W        W23456   3.726   4.859   0.616  0.2548  0.0224  0.0464
 3923W        W23457  17.275  12.624  15.798 -0.0386  0.0879 -0.1267
 3924W        W23458  10.475  12.585   0.001  0.0165  0.4973 -0.1832
 3925W        W23459  11.241   2.408  12.651  0.3869  0.0313  0.2139
 3926W        W23460  10.525   0.123  16.382 -0.1163 -0.2436 -0.0787
 3927W        W23461   4.219  15.367   1.265 -0.2766 -0.1285  0.1060
 3928W        W23462  16.438   3.289   4.572 -0.1004  0.0560  0.1000
 3929W        W23463   1.245   5.705  15.099  0.1202 -0.1047 -0.0096
 3930W        W23464   0.504   5.848   2.317 -0.0074 -0.2806  0.0848
 3931W        W23465   3.893   9.691   0.341  0.1801  0.1586 -0.0723
 3932W        W23466   1.190   4.954   3.669  0.0202 -0.1077  0.0166
 3933W        W23467  16.245   8.970  14.586 -0.0189 -0.0387 -0.1756
 3934W        W23468  13.094   4.607   1.741 -0.1650  0.0976  0.0828
 3935W        W23469   9.948   1.702   3.987  0.2067 -0.1501  0.1290
 3936W        W23470   1.744   5.417  14.395 -0.0421  0.0184  0.2988
 3937W        W23471   6.592   3.952  15.506  0.3664 -0.1063 -0.0648
 3938W        W23472  10.225  15.687   3.429  0.2242  0.1996 -0.1397
 3939W        W23473   9.210   9.839   4.115  0.0553 -0.1011 -0.0912
 3940W        W23474  15.872  12.399  12.650  0.0830  0.0554  0.2359
 3941W        W23475   9.039  13.791  12.366 -0.1066 -0.0124  0.0574
 3942W        W23476   1.923  14.167  16.117  0.0367  0.0747 -0.0443
 3943W        W23477  17.813   0.696  12.024 -0.2362 -0.0977  0.0063
 3944W        W23478  16.139   2.161   4.121  0.0495  0.1994  0.1399
 3945W        W23479   3.327   5.931   4.356 -0.0414 -0.1696 -0.1248
 3946W        W23480   4.494   2.085   1.493  0.0917 -0.2281 -0.1915
 3947W        W23481   1.384   0.198  16.609  0.1283 -0.1555  0.2888
 3948W        W23482  13.311  17.043  16.594 -0.3042  0.3355 -0.0183
 3949W        W23483   5.640   7.939   1.364 -0.1269  0.2984 -0.0457
 3950W        W23484   8.198   9.259  13.392  0.1484 -0.0746 -0.2954
 3951W        W23485  15.057  11.648  12.605  0.0814  0.0898  0.1577
 3952W        W23486  10.512   5.648   3.841 -0.1715 -0.0722 -0.0567
 3953W        W23487   6.998   2.325   2.365 -0.2793  0.3890 -0.0978
 3954W        W23488   9.123   8.198   0.357  0.0950  0.0010 -0.1974
 3955W        W23489   4.568   6.169  13.236  0.0612  0.0653  0.1450
 3956W        W23490   6.020   1.741   3.631 -0.1099  0.1283 -0.0749
 3957W        W23491   6.107  13.105  13.756  0.1145 -0.0366 -0.2100
 3958W        W23492   1.419  14.978  12.077 -0.1288  0.2064  0.0842
 3959W        W23493   2.142   5.402   4.179  0.1926 -0.0576 -0.4206
 3960W        W23494  14.027   5.590   3.738  0.0864 -0.2585  0.2848
 3961W        W23495   3.995   5.071   3.316 -0.0295 -0.1401  0.0413
 3962W        W23496  14.368  14.338   5.000 -0.5435  0.1226  0.1643
 3963W        W23497  16.185   4.805  13.724  0.0260 -0.1108 -0.1349
 3964W        W23498  14.652  17.090  15.553  0.2045  0.1859  0.0002
 3965W        W23499  10.236  15.209   3.622  0.0070  0.2205 -0.1965
 3966W        W23500   3.679   8.816   2.377 -0.0964 -0.0238  0.2172
 3967W        W23501  17.427  10.883   2.658 -0.0636  0.0042 -0.0288
 3968W        W23502   2.046   4.088   3.029  0.2402 -0.0204 -0.4096
 3969W        W23503   7.459   6.877  16.466  0.1208 -0.0028 -0.2463
 3970W        W23504   8.639  14.440  13.028  0.0305  0.0599  0.2621
 3971W        W23505  12.352   2.693  13.207 -0.1184  0.1360  0.0359
 3972W        W23506   6.896  15.438   0.726  0.1831 -0.0201 -0.2776
 3973W        W23507  13.011   0.693   3.618  0.2322  0.0820 -0.0688
 3974W        W23508  13.055  10.318  16.694  0.0309  0.0952 -0.0149
 3975W        W23509   5.813  14.802  12.676  0.1115  0.0726  0.0050
 3976W        W23510   2.968   3.054   4.550 -0.0890 -0.2367  0.3436
 3977W        W23511   2.405  15.574  16.245  0.1552 -0.0169 -0.3133
 3978W        W23512   1.989   3.517   2.385  0.0052  0.1977 -0.1019
 3979W        W23513  13.602   6.073  14.959 -0.0234  0.3395  0.1185
 3980W        W23514   0.818   1.236   5.340 -0.0029  0.1097 -0.0540
 3981W        W23515   2.397  16.338  14.041 -0.0128  0.1283 -0.2279
 3982W        W23516  11.239   3.583   1.400  0.0582 -0.0587 -0.0272
 3983W        W23517  14.900   7.012  16.269  0.0816 -0.3821 -0.1644
 3984W        W23518   8.196   1.638  15.292 -0.2299  0.2070  0.1174
 3985W        W23519   1.290  10.884   4.299  0.1527  0.0105 -0.0832
 3986W        W23520  17.190   3.899  15.001 -0.0340  0.1412 -0.2462
 3987W        W23521  14.271  12.380  12.498 -0.1333 -0.1425 -0.1227
 3988W        W23522   2.492   1.937  15.616  0.0939  0.0423 -0.0738
 3989W        W23523  13.989  15.132  16.132 -0.0938  0.2375  0.1603
 3990W        W23524  14.423   0.977   1.460 -0.2619  0.0021  0.0686
 3991W        W23525   0.571   0.144  14.047 -0.0032  0.0531 -0.5367
 3992W        W23526   5.085   6.180   0.417  0.0259  0.0009  0.0978
 3993W        W23527   7.240  17.297   4.170  0.1654  0.2362 -0.1853
 3994W        W23528   3.441   7.472  13.703  0.1587  0.0202  0.0157
 3995W        W23529  11.854  10.547   0.298  0.0027 -0.3201 -0.0553
 3996W        W23530   3.810  15.981  14.804 -0.2306 -0.2715  0.2264
 3997W        W23531  10.747  15.441  14.908  0.2328  0.1638 -0.3262
 3998W        W23532  17.209  11.288  12.667  0.0690 -0.3379  0.0337
 3999W        W23533  10.746  11.498  11.684 -0.1046  0.3693  0.2194
 4000W        W23534   9.356   0.834  14.334 -0.3016  0.0652  0.3196
 4001W        W23535   0.304   3.041   1.623  0.2559 -0.1806 -0.0002
 4002W        W23536   1.866   8.536   2.596 -0.0553  0.3881 -0.0382
 4003W        W23537   4.239   2.597   2.100 -0.0167  0.0779 -0.2168
 4004W        W23538  10.417   1.547   3.263  0.1159 -0.1436 -0.1339
 4005W        W23539   5.476  17.633   2.877  0.1389 -0.0459 -0.1397
 4006W        W23540   2.745  10.877  15.016  0.1294  0.5039 -0.2072
 4007W        W23541   7.903   7.132  13.503 -0.0452 -0.0693  0.0728
 4008W        W23542  13.577  16.662   0.436 -0.1188  0.1786  0.0396
 4009W        W23543  11.050   3.736   3.544  0.5640  0.0006  0.4194
 4010W        W23544   1.244   8.068   4.793  0.0072  0.0433 -0.0521
 4011W        W23545   1.382   4.597  12.562 -0.1997  0.3667 -0.0057
 4012W        W23546   1.684  10.533   4.088  0.0073 -0.1039 -0.0934
 4013W        W23547  17.475  13.179  12.112  0.0736 -0.0402  0.2744
 4014W        W23548   4.131  17.506   5.015 -0.3465 -0.0462 -0.1100
 4015W        W23549   8.867   2.648  13.962 -0.1493 -0.2377 -0.1636
 4016W        W23550  15.081   3.050  14.792  0.0218 -0.0414 -0.2036
 4017W        W23551   2.230   1.876   0.253  0.0148  0.1516 -0.1869
 4018W        W23552  10.990   8.177  13.675  0.0359  0.2276 -0.5321
 4019W        W23553  10.755   9.756   3.975  0.1366  0.2356 -0.0487
 4020W        W23554  13.254  17.151  11.909 -0.0318 -0.1759  0.0909
 4021W        W23555   3.315  10.212   3.246 -0.1184  0.0901 -0.0023
 4022W        W23556  17.622   3.758   2.878  0.0286  0.1435  0.1775
 4023W        W23557  17.683  10.318  13.336  0.2195 -0.1405  0.2581
 4024W        W23558   4.588   0.151   1.108  0.1379  0.1445 -0.0304
 4025W        W23559  12.596  12.948  14.137 -0.1853  0.2377  0.1069
 4026W        W23560  16.451   3.156   1.315 -0.0143  0.1492 -0.3706
 4027W        W23561  12.828   2.800  13.589  0.0756 -0.0459  0.0483
 4028W        W23562   7.530  11.846  12.308 -0.0980 -0.0757 -0.2826
 4029W        W23563   4.489   7.953  12.119  0.1355 -0.2447  0.0164
 4030W        W23564   9.606   4.145  15.382 -0.0351  0.1001  0.4008
 4031W        W23565   3.023  16.864   3.418 -0.2124  0.1494 -0.1674
 4032W        W23566   5.098   2.868  12.655 -0.0960 -0.1272  0.0026
 4033W        W23567   9.552   3.806   4.480 -0.0590  0.0771  0.0311
 4034W        W23568   8.646   2.674  12.965 -0.0047 -0.0746  0.1047
 4035W        W23569   5.131   5.167   2.181  0.1478 -0.0048  0.2737
 4036W        W23570   0.166   6.046  12.214 -0.0132  0.0577 -0.1311
 4037W        W23571   0.527   9.197   0.439  0.1025 -0.0068  0.5404
 4038W        W23572  11.047  11.103   4.545 -0.2837  0.2218 -0.1556
 4039W        W23573   3.095  14.432  13.818  0.0462  0.0094  0.0320
 4040W        W23574   8.758   9.567  15.514 -0.1156 -0.0191  0.0684
 4041W        W23575   5.872   6.536  15.340 -0.0333  0.0948 -0.1705
 4042W        W23576   8.691   7.813   0.453 -0.0772  0.1998 -0.2556
 4043W        W23577   7.887  16.639   4.954 -0.5670 -0.2721  0.1457
 4044W        W23578  15.059   2.653   1.463  0.1128  0.0260 -0.1954
 4045W        W23579  12.153   7.894  16.282  0.2020  0.1877 -0.2557
 4046W        W23580   8.328  13.711   0.478 -0.3779 -0.1613  0.1232
 4047W        W23581   3.665   3.962  11.611 -0.0263 -0.0727 -0.0605
 4048W        W23582  13.176   1.050  11.929 -0.5128  0.0092 -0.1582
 4049W        W23583  12.355  17.211  13.475  0.0643 -0.1379 -0.0604
 4050W        W23584   1.966  13.267  16.163 -0.0644 -0.5064 -0.1447
 4051W        W23585   6.354  10.301   3.473 -0.0164 -0.1175 -0.0706
 4052W        W23586   1.055   3.828   0.878 -0.2334 -0.2434 -0.0369
 4053W        W23587  14.888  13.037  12.876  0.0678 -0.1694  0.1480
 4054W        W23588  17.522   1.963   1.845 -0.1565 -0.2112  0.1519
 4055W        W23589   5.020   9.254   3.047 -0.1822  0.3690 -0.2433
 4056W        W23590   5.264   0.790  15.500  0.0643 -0.1146 -0.0996
 4057W        W23591   1.225   7.040   1.875 -0.0702 -0.1822  0.1416
 4058W        W23592   4.952   1.104   6.224 -0.1771  0.3141 -0.1512
 4059W        W23593   5.597  15.769   0.084  0.1541  0.0030  0.0092
 4060W        W23594   0.136  16.927  14.852  0.0407 -0.2762 -0.2363
 4061W        W23595  11.033  12.658  11.981  0.1368  0.0782  0.0933
 4062W        W23596  10.238  11.367   4.651  0.0938  0.1516  0.1107
 4063W        W23597  15.667   7.401   3.194 -0.2348 -0.2631 -0.1874
 4064W        W23598   0.947   8.578  13.653  0.0277 -0.3002 -0.1371
 4065W        W23599  10.222   6.416   1.184 -0.0387  0.0372 -0.0855
 4066W        W23600   8.197  17.364   3.131  0.0024 -0.0079 -0.1472
 4067W        W23601   0.949   9.950  15.370 -0.2350  0.1842  0.2462
 4068W        W23602  16.888  14.014  13.670  0.1074  0.4644 -0.1619
 4069W        W23603   5.584   5.330   4.505  0.1090 -0.0457 -0.3315
 4070W        W23604   1.324   2.428   2.503  0.0435  0.1070 -0.0480
 4071W        W23605   7.312   4.621  15.132  0.0109  0.0764 -0.1805
 4072W        W23606  11.237   2.514   3.364 -0.3581 -0.1332 -0.1199
 4073W        W23607   7.266  16.876   3.136 -0.2218  0.2503  0.1195
 4074W        W23608  14.586   3.316   0.935 -0.0654 -0.0765  0.2988
 4075W        W23609   3.280  12.654   1.207 -0.1960 -0.0079  0.2458
 4076W        W23610  12.152  11.456  14.181  0.0788 -0.0647 -0.0569
 4077W        W23611   1.945   5.984   4.220  0.1655 -0.1572 -0.3822
 4078W        W23612   3.788  15.520   2.898  0.1201  0.2319  0.0823
 4079W        W23613   1.170   8.727   4.113  0.0253 -0.1138 -0.3582
 4080W        W23614  17.656   1.377   0.965 -0.1519 -0.0717 -0.0998
 4081W        W23615   5.547  14.355   1.883 -0.0347 -0.2108 -0.4143
 4082W        W23616   8.118   6.363   2.380 -0.0186 -0.0358 -0.0123
 4083W        W23617   1.969   9.588   3.408  0.0189 -0.0546 -0.0697
 4084W        W23618   3.839   8.633   1.043  0.0455 -0.0275  0.0253
 4085W        W23619   8.638   4.103   0.847  0.1044 -0.0791  0.3088
 4086W        W23620  14.993   1.080  12.481  0.1517  0.2006 -0.1447
 4087W        W23621   5.421   9.774   1.574  0.1140  0.1111 -0.0635
 4088W        W23622   6.914   1.081  14.331  0.0654 -0.2457  0.1523
 4089W        W23623  12.428   1.312   3.299 -0.1079 -0.0457 -0.0110
 4090W        W23624   2.716   2.471   2.827 -0.0224 -0.0070  0.0996
 4091W        W23625   4.544   5.994  12.257 -0.0064  0.2742  0.5843
 4092W        W23626   1.508   8.430   3.487  0.0831 -0.2407  0.0778
 4093W        W23627   7.056   8.597   2.255 -0.4679 -0.1468 -0.1184
 4094W        W23628  12.076  15.262  16.360 -0.1268  0.1180 -0.0710
 4095W        W23629   2.198   7.175  14.233 -0.0226 -0.0402  0.0916
 4096W        W23630  13.473  13.663   2.914 -0.1013 -0.0555 -0.1935
 4097W        W23631  16.144   3.875   2.486 -0.1162 -0.0951 -0.1638
 4098W        W23632  15.153  11.841  11.616  0.0001 -0.1134  0.3400
 4099W        W23633  16.595   6.497  16.690 -0.0880 -0.1280  0.3195
 4100W        W23634  15.087  15.260   3.405 -0.0222 -0.0018 -0.0200
 4101W        W23635   2.529   9.960  16.384 -0.0704  0.2565  0.2455
 4102W        W23636   3.484  13.164  15.066 -0.2567 -0.1664 -0.0341
 4103W        W23637   3.738  13.202   1.667  0.2111  0.2073 -0.4239
 4104W        W23638   5.255   7.215   2.587 -0.0737 -0.0926 -0.0381
 4105W        W23639   0.762  13.492  13.669  0.0388 -0.0655 -0.3340
 4106W        W23640   7.465  14.194   4.721  0.0179 -0.0304 -0.1106
 4107W        W23641  12.885  10.765   4.382 -0.0723  0.1783  0.0881
 4108W        W23642   8.836   2.188   5.639 -0.3961  0.0777  0.0631
 4109W        W23643  15.333   6.233  12.044 -0.3581 -0.4599 -0.0112
 4110W        W23644  16.963   4.718  15.571  0.0695  0.1260 -0.1851
 4111W        W23645  11.497   8.147  15.555 -0.4398 -0.1713  0.3020
 4112W        W23646   7.522   9.062   1.027  0.0207 -0.0653 -0.1280
 4113W        W23647   5.952   4.474  11.137  0.0212  0.3659 -0.1315
 4114W        W23648   8.326  15.754   1.390 -0.1410 -0.0806  0.0622
 4115W        W23649  12.119   2.371  14.999  0.0008  0.1045 -0.0158
 4116W        W23650   6.024   1.359  15.556 -0.3088  0.3365 -0.1967
 4117W        W23651  13.429  14.082   3.824 -0.0806  0.2273  0.2935
 4118W        W23652   0.117  15.697  12.324 -0.0368 -0.1960 -0.0278
 4119W        W23653   5.762  17.489  15.904  0.1734  0.0402  0.0928
 4120W        W23654   5.793   7.253   4.144  0.2246 -0.1356  0.0258
 4121W        W23655  12.637  14.870   0.825 -0.1196 -0.2603 -0.2035
 4122W        W23656  14.872   0.142   0.059 -0.1728 -0.3648 -0.5435
 4123W        W23657   8.945  15.922   1.994 -0.0916 -0.0918 -0.2371
 4124W        W23658   9.228  17.461   3.745  0.1476 -0.0440 -0.3285
 4125W        W23659   7.833   3.175   4.733  0.2535 -0.1750  0.4248
 4126W        W23660   1.547  14.230  12.950 -0.1761  0.1674  0.3944
 4127W        W23661   1.074   5.695   0.291 -0.0802  0.1013  0.0392
 4128W        W23662  10.566  16.291   4.651  0.1080  0.0922  0.2018
 4129W        W23663  10.331   0.154   1.265 -0.1915  0.1254  0.2497
 4130W        W23664   6.281  14.985  15.504 -0.2588 -0.3255  0.3606
 4131W        W23665  17.674  11.705  11.989  0.2228 -0.0788  0.0375
 4132W        W23666   0.231   5.205  14.775 -0.0478 -0.0623 -0.0810
 4133W        W23667  14.461   3.225   3.164 -0.1805  0.5988  0.0687
 4134W        W23668  15.610  14.323  14.001  0.1131 -0.0415  0.0308
 4135W        W23669  13.422   4.853  16.578 -0.2044  0.0315  0.2616
 4136W        W23670   1.886  17.897   4.810  0.2440  0.1804  0.1106
 4137W        W23671   3.884  13.059   3.322  0.1633 -0.1091  0.2269
 4138W        W23672  16.659   1.600   0.849  0.0146  0.3586 -0.1595
 4139W        W23673   1.467  16.392  14.516  0.0119 -0.1349  0.2117
 4140W        W23674   4.387   1.799  13.487 -0.1874  0.0271  0.0595
 4141W        W23675  12.320  11.797  13.056 -0.2735  0.2162 -0.4133
 4142W        W23676  15.986   3.069  13.697  0.0028 -0.0907 -0.3363
 4143W        W23677   4.799  14.443   1.246  0.2183 -0.0594 -0.1063
 4144W        W23678   8.778   1.278   1.077 -0.0037  0.1723 -0.1291
 4145W        W23679  15.291   9.204  14.450 -0.1040  0.0016  0.0807
 4146W        W23680   2.895   9.774   3.742 -0.1425 -0.0077 -0.0146
 4147W        W23681  16.986  11.329   3.741  0.2297  0.1969  0.2894
 4148W        W23682   7.245   1.411  12.446 -0.1013 -0.0265  0.0138
 4149W        W23683   4.914   4.711  16.085 -0.0684  0.1393  0.2277
 4150W        W23684   1.233   9.230   4.884  0.0354  0.0184  0.2544
 4151W        W23685  15.705  10.194   4.698 -0.0407  0.0328  0.0281
 4152W        W23686   8.826   4.783  12.847  0.4538  0.0382 -0.0579
 4153W        W23687   8.473  16.496  13.727 -0.0998 -0.1535  0.2174
 4154W        W23688  12.291   3.674  16.021 -0.1840  0.0110  0.2427
 4155W        W23689  16.244  12.712  14.805  0.3375  0.1056  0.1561
 4156W        W23690   3.195  15.579   3.632 -0.0863  0.2644  0.0542
 4157W        W23691  14.043   7.597   1.589  0.1040 -0.1307 -0.5452
 4158W        W23692   8.450   2.535  11.749  0.2459  0.2311 -0.1949
 4159W        W23693  11.178   7.661   2.738 -0.0259 -0.0128 -0.0700
 4160W        W23694  12.041   3.799   0.458 -0.0492  0.1514 -0.0847
 4161W        W23695  12.456   3.551   0.164  0.2623 -0.0449 -0.0307
 4162W        W23696  13.965   8.333  11.954 -0.0942 -0.0450 -0.0681
 4163W        W23697   9.806   2.581   1.618 -0.2904 -0.0401  0.2141
 4164W        W23698   9.098   6.643  14.267 -0.0480  0.1572  0.1414
 4165W        W23699  17.464  10.222  16.747 -0.1167  0.0987  0.0975
 4166W        W23700   8.343  10.498   0.975  0.3380  0.0667 -0.1461
 4167W        W23701  11.572  14.749   1.561 -0.1055 -0.3031 -0.0824
 4168W        W23702   7.977   3.390   4.321  0.0595 -0.1472 -0.1473
 4169W        W23703   5.233  17.685   2.294  0.1473  0.0280 -0.0045
 4170W        W23704  13.174  14.050   1.295  0.0654  0.1606  0.2750
 4171W        W23705   4.044   7.674   2.413 -0.0738  0.1558 -0.2172
 4172W        W23706   1.130   6.069  14.036  0.1121 -0.1573  0.4048
 4173W        W23707   5.979   2.074   5.783  0.1656 -0.3918 -0.3555
 4174W        W23708   3.501   9.808   0.019  0.0939 -0.2933  0.1868
 4175W        W23709   0.081   3.835  11.750  0.0122  0.1252 -0.0473
 4176W        W23710  16.881  10.256  12.341  0.0352 -0.0051 -0.1632
 4177W        W23711  13.190   1.482  14.598  0.0804 -0.1477 -0.0155
 4178W        W23712  13.395   2.660  15.697  0.0601  0.0883  0.0981
 4179W        W23713   1.513  15.546  15.731  0.3021 -0.1502 -0.0570
 4180W        W23714   8.245   9.746   1.230  0.0647 -0.0895  0.1752
 4181W        W23715   0.398   4.784  15.879 -0.2004  0.0431 -0.0309
 4182W        W23716  16.381  11.012  13.570 -0.0771 -0.2668 -0.0711
 4183W        W23717   3.694   0.381   2.917  0.0301 -0.0427 -0.0609
 4184W        W23718  15.163  16.446   3.038  0.0823  0.0502  0.3978
 4185W        W23719   7.334  12.783  12.359 -0.0076  0.0359  0.3870
 4186W        W23720  13.538  10.161  12.477 -0.0316 -0.2441  0.2207
 4187W        W23721   1.488   6.471   1.550  0.0734  0.0188 -0.0960
 4188W        W23722  15.571  10.824  16.480 -0.1054  0.0311  0.1146
 4189W        W23723  17.159  16.879  12.112  0.1340 -0.2598  0.0127
 4190W        W23724  12.707   3.601   4.686  0.5952 -0.1566  0.0161
 4191W        W23725   4.311   5.834   3.646  0.1445 -0.2783  0.2730
 4192W        W23726   1.570   3.848  12.964  0.1477 -0.0808 -0.0855
 4193W        W23727   4.196  11.758   1.818 -0.0065 -0.0001  0.0366
 4194W        W23728  11.758  17.131  15.391  0.0488 -0.1364  0.1534
 4195W        W23729  13.424  11.074   4.424  0.0244  0.2571 -0.2578
 4196W        W23730   1.620  17.350  15.460 -0.2094 -0.0558  0.1100
 4197W        W23731   3.677   1.814  14.190  0.2398  0.0270  0.1209
 4198W        W23732   5.993   8.371  14.181 -0.1712  0.1113  0.1431
 4199W        W23733  16.840  13.485  13.652  0.0672 -0.1365  0.2399
 4200W        W23734   7.873  17.161   5.042 -0.0832  0.3867 -0.1655
 4201W        W23735   6.252   3.414  13.305 -0.0120  0.0529  0.1162
 4202W        W23736   7.694   0.615   0.433  0.0490 -0.0546  0.3284
 4203W        W23737   1.691   5.526   2.451  0.1008 -0.0561 -0.0815
 4204W        W23738   7.357  14.618  12.789 -0.1453 -0.0889 -0.1086
 4205W        W23739   8.770   3.585  16.439 -0.0196 -0.0239  0.0389
 4206W        W23740   5.208   5.132  16.036 -0.1138  0.1830 -0.3060
 4207W        W23741   3.111   6.312  14.550 -0.1759 -0.0081 -0.0339
 4208W        W23742  16.632  14.143  11.966  0.0335  0.3252  0.0666
 4209W        W23743   8.923  12.283  14.525 -0.0053  0.1844  0.1901
 4210W        W23744  17.365  12.846   2.728  0.1165 -0.1976 -0.0476
 4211W        W23745  17.149  14.888   2.780  0.3454 -0.2137  0.1568
 4212W        W23746   8.606   0.332   4.132  0.1863 -0.2216  0.2366
 4213W        W23747  15.245   4.510  16.503 -0.1837  0.0306 -0.0569
 4214W        W23748   8.125   4.724  14.019 -0.0746  0.0451  0.1423
 4215W        W23749  14.342   4.171   0.872  0.0130 -0.0625  0.1020
 4216W        W23750   0.188   1.373  15.940  0.1183 -0.2633  0.1391
 4217W        W23751  12.157  16.695   2.503  0.0281  0.4719 -0.1897
 4218W        W23752   4.000  14.282   1.661 -0.1923  0.0410 -0.0990
 4219W        W23753   0.706  11.180   3.144  0.1310 -0.2590 -0.0938
 4220W        W23754  14.220  17.269  16.738  0.2633 -0.0559 -0.0460
 4221W        W23755   0.787  16.098   4.691  0.2691 -0.1612 -0.0227
 4222W        W23756   4.921   2.331   4.921  0.0793  0.4856  0.1614
 4223W        W23757   7.520  12.389   3.205 -0.3663  0.1118 -0.2970
 4224W        W23758   9.567  13.248  14.241  0.1119  0.2266  0.0627
 4225W        W23759   9.272  14.757   2.864  0.1019 -0.1920  0.0440
 4226W        W23760   8.322   9.193   4.502  0.0466  0.1496  0.0438
 4227W        W23761   9.612   0.758  12.331 -0.2982 -0.5686  0.0981
 4228W        W23762   0.708  10.238  13.742  0.0601 -0.1340 -0.1756
 4229W        W23763  10.551   5.460  16.111 -0.3224 -0.2760  0.0119
 4230W        W23764   6.087   0.762   2.337 -0.2654 -0.1821  0.0951
 4231W        W23765   0.020  10.803   2.752 -0.1168  0.0752  0.1671
 4232W        W23766   0.119  15.674   1.456  0.0319 -0.1134 -0.3200
 4233W        W23767  14.561  17.175   1.216 -0.1392  0.1266  0.0593
 4234W        W23768  10.344   6.667  12.393 -0.0023  0.1409  0.0516
 4235W        W23769  10.816   7.794  15.023  0.2230  0.2840  0.0538
 4236W        W23770   1.421   2.749  16.143 -0.1257  0.0745  0.2844
 4237W        W23771   6.745  11.780  15.725 -0.1293 -0.0943  0.2263
 4238W        W23772   7.951   8.097   0.176 -0.1667 -0.0088  0.1991
 4239W        W23773  16.554   1.516  13.184 -0.1435 -0.0169  0.2455
 4240W        W23774   2.538   1.041   1.386 -0.0177  0.3116 -0.0257
 4241W        W23775   3.909   4.197   0.610  0.2031  0.2028  0.2030
 4242W        W23776   0.151  15.695  15.629  0.1165 -0.0850 -0.0503
 4243W        W23777   6.004   8.863  12.463  0.0397  0.0749 -0.0092
 4244W        W23778  10.458  13.377  14.194  0.2280 -0.0983 -0.0764
 4245W        W23779   3.296  10.016  15.775 -0.1372  0.2521 -0.1229
 4246W        W23780  13.936   1.107  13.543  0.0441 -0.2705  0.0313
 4247W        W23781  13.722   9.712   4.549 -0.0048 -0.1428  0.1909
 4248W        W23782   5.776  10.979   2.004 -0.1510  0.3086  0.1372
 4249W        W23783   8.603   0.732   1.992 -0.3706  0.2612 -0.0215
 4250W        W23784   4.065  13.555   3.283 -0.3070  0.0561  0.0027
 4251W        W23785   5.011   5.246   0.771 -0.1608 -0.0710  0.1648
 4252W        W23786   2.603  11.423   0.221 -0.2777 -0.0206  0.2107
 4253W        W23787   7.567   6.919   4.309 -0.0561  0.0387  0.2312
 4254W        W23788   2.628  13.243   2.743  0.1699 -0.1709  0.1012
 4255W        W23789  14.650   8.839   3.165 -0.0604  0.1366 -0.0930
 4256W        W23790   4.576   6.517  14.100 -0.0298 -0.0639 -0.0423
 4257W        W23791  11.564  10.432   1.582 -0.1336  0.0929  0.0344
 4258W        W23792  10.025   5.742   3.928 -0.1384  0.0604  0.0641
 4259W        W23793   9.213   3.301  16.131 -0.3684 -0.2462  0.0838
 4260W        W23794   1.099   4.415  12.155  0.0398  0.5059 -0.2022
 4261W        W23795   0.093   2.569  12.999 -0.0137  0.1014  0.0423
 4262W        W23796   1.195  15.836  16.406 -0.1341  0.0349 -0.2060
 4263W        W23797   1.522   4.153   0.309  0.0660 -0.1711  0.1342
 4264W        W23798  16.206   3.099   3.024  0.1690 -0.2373  0.3004
 4265W        W23799   7.895   0.165   3.716 -0.0194 -0.0589  0.1858
 4266W        W23800   4.908  14.472   2.546 -0.1268  0.1538  0.3116
 4267W        W23801   2.628  17.416  15.877  0.2383  0.3585  0.1957
 4268W        W23802   2.247   0.468   1.989  0.0735  0.3444 -0.0224
 4269W        W23803  15.525  16.368  13.931  0.1978 -0.1350  0.1756
 4270W        W23804   7.541  11.516   2.471  0.3965 -0.1231 -0.3885
 4271W        W23805  10.298  12.173  16.442  0.2589 -0.1105 -0.0940
 4272W        W23806  14.014  16.594  14.771 -0.1858 -0.1097  0.1728
 4273W        W23807   6.244  10.853   0.685 -0.0340 -0.4299 -0.2490
 4274W        W23808   6.607   0.413  14.288 -0.1192  0.0825  0.0928
 4275W        W23809  16.891  16.661  13.137  0.1230 -0.1157  0.2083
 4276W        W23810   1.334  11.195   3.239  0.0139 -0.2148 -0.3775
 4277W        W23811  15.979   7.766   0.283 -0.1022 -0.0357  0.0484
 4278W        W23812   7.258  12.553  14.225  0.1802 -0.1733 -0.1206
 4279W        W23813   6.223  14.482   2.772 -0.0285  0.0849 -0.1129
 4280W        W23814   3.879  12.044   2.664  0.0389  0.2431 -0.0310
 4281W        W23815   9.965   9.330  13.959 -0.2667  0.0820  0.1315
 4282W        W23816  16.816   5.176  15.248 -0.2129 -0.1889  0.3232
 4283W        W23817   1.050  11.136  13.372  0.0839  0.1008 -0.0563
 4284W        W23818   0.735   6.967  15.066  0.0013  0.1972  0.2291
 4285W        W23819  12.456  13.949   0.606 -0.0624  0.1513 -0.1295
 4286W        W23820  14.943   1.659   2.586  0.1803 -0.1569  0.0901
 4287W        W23821  10.046   2.296  13.195 -0.0150  0.2649 -0.3154
 4288W        W23822  10.327  11.009   3.154  0.2460  0.0894  0.0432
 4289W        W23823   6.276  15.568  14.964  0.0557  0.3561  0.0031
 4290W        W23824   4.530  12.339  14.017  0.1669  0.0368 -0.1626
 4291W        W23825   5.655   0.556  15.849 -0.0680  0.0441  0.2738
 4292W        W23826   8.689   5.959  12.099 -0.0548  0.2858 -0.1445
 4293W        W23827  16.105   4.020   3.401  0.0255  0.3413  0.4336
 4294W        W23828   9.876  11.136  16.138  0.3843  0.0759 -0.1007
 4295W        W23829   2.292   9.324   1.233  0.0190  0.1894  0.1052
 4296W        W23830  14.568  10.799  14.558  0.0116 -0.1325  0.4766
 4297W        W23831   7.359   0.468  12.930 -0.0519  0.0595  0.2125
 4298W        W23832  14.407  14.652   3.941 -0.0556 -0.0886  0.0619
 4299W        W23833   3.429  16.429  16.396 -0.1126  0.3996  0.0897
 4300W        W23834   7.245   4.539   3.845 -0.0845 -0.2718  0.0178
 4301W        W23835   9.392  16.075   1.835 -0.0741  0.0405 -0.1846
 4302W        W23836  11.181  14.761  13.132 -0.3566  0.3742  0.0132
 4303W        W23837   0.722  14.759   0.895 -0.1053 -0.2670  0.1149
 4304W        W23838  12.946  16.412   1.318  0.1044  0.3214  0.0857
 4305W        W23839  11.993  10.244  14.550  0.1147 -0.0829  0.2330
 4306W        W23840   1.028   0.708   0.689 -0.2126  0.1426  0.1893
 4307W        W23841   6.208   9.682  13.371 -0.0112 -0.3216 -0.1406
 4308W        W23842  11.577  12.903  13.285  0.2671  0.1660 -0.1752
 4309W        W23843   7.104   3.134  14.985 -0.2293  0.1566 -0.0541
 4310W        W23844   6.754  14.724  16.056  0.1167 -0.0089  0.1043
 4311W        W23845  12.837  13.224   4.757  0.2125 -0.1708  0.3334
 4312W        W23846   3.331  11.689   2.637  0.0343  0.6145 -0.3200
 4313W        W23847   3.221   4.752  13.793 -0.1585 -0.2904 -0.0020
 4314W        W23848  14.461  16.981   4.991 -0.2592 -0.0426 -0.1257
 4315W        W23849  13.414  16.733  14.512  0.3658  0.3545  0.0118
 4316W        W23850   9.398   4.429  12.782 -0.0794 -0.0146  0.0263
 4317W        W23851   6.511  11.001  16.116  0.0472 -0.1601 -0.2586
 4318W        W23852   5.127  12.086   5.051  0.1250 -0.1596 -0.2509
 4319W        W23853  17.651   4.660  12.049  0.4324  0.0562  0.4385
 4320W        W23854   5.264   7.818   4.829 -0.0610  0.3114  0.1925
 4321W        W23855   3.543   1.486  15.744 -0.2711 -0.2361 -0.0673
 4322W        W23856  10.850   8.449   0.557  0.1323 -0.2777  0.2562
 4323W        W23857   5.222  13.705   5.088  0.0152 -0.1437  0.2252
 4324W        W23858   4.414   2.446   2.574  0.2665  0.0405 -0.2747
 4325W        W23859  15.567   1.998  12.424  0.0513 -0.1720  0.2068
 4326W        W23860   1.275  12.899   4.410 -0.2036  0.1226  0.0811
 4327W        W23861   4.940  13.331  14.422 -0.0119 -0.0983 -0.0895
 4328W        W23862   7.541  10.625   2.836 -0.0516  0.1730 -0.0399
 4329W        W23863   9.446   3.450   0.304  0.1275  0.0500 -0.1639
 4330W        W23864   0.534  12.615  13.201  0.1785  0.1291 -0.2215
 4331W        W23865   5.975   4.989  12.376  0.1818 -0.0458  0.2667
 4332W        W23866  15.130   8.883   0.519 -0.0685  0.3633 -0.0506
 4333W        W23867  14.669  17.879  15.195  0.0476 -0.0857  0.2213
 4334W        W23868   0.252  12.581  16.192 -0.0943 -0.2451  0.2333
 4335W        W23869   3.740  12.373  15.739 -0.4041  0.1867  0.0346
 4336W        W23870   7.533  11.885   1.417 -0.0166 -0.3339  0.3709
 4337W        W23871  17.109   9.601  15.989 -0.0800  0.0009  0.2190
 4338W        W23872  16.084   8.147   3.599 -0.1442 -0.0222 -0.2186
 4339W        W23873  16.087   3.626   0.168  0.0232 -0.0580  0.0747
 4340W        W23874  11.803  15.574   4.577  0.0291 -0.1527 -0.3783
 4341W        W23875   5.620  10.934  12.409 -0.1411 -0.1614  0.1363
 4342W        W23876  16.336  13.569   3.386 -0.0534 -0.0754  0.0879
 4343W        W23877  17.535  11.533   4.292  0.1084  0.0050  0.0681
 4344W        W23878  11.277  16.581  14.010 -0.3351  0.1518  0.1585
 4345W        W23879   8.915  15.763  16.013  0.2025  0.0751 -0.1524
 4346W        W23880   1.422   7.701  13.333 -0.2269 -0.1134  0.0884
 4347W        W23881  14.277  11.573  16.259 -0.2083 -0.0884  0.1232
 4348W        W23882  14.129   6.118  12.820 -0.4550  0.1214  0.5938
 4349W        W23883  13.132   9.518  15.279 -0.0737 -0.3443  0.0647
 4350W        W23884  16.411   1.537  12.029 -0.0669 -0.1454  0.1623
 4351W        W23885  17.275  13.798   2.593 -0.1886  0.1202  0.0960
 4352W        W23886   5.567   7.461   0.205 -0.0377  0.2383 -0.1701
 4353W        W23887   8.560  14.741  14.032 -0.1092 -0.0899 -0.0491
 4354W        W23888  15.312   6.988   3.195  0.1724  0.2187 -0.0682
 4355W        W23889   7.080  14.458   1.191 -0.0055 -0.0573  0.1412
 4356W        W23890  13.230  11.432   4.717 -0.0408  0.2288 -0.0210
 4357W        W23891   1.466  14.048   2.868 -0.3707 -0.1078 -0.0770
 4358W        W23892  17.092  13.414   0.591 -0.0959 -0.1414  0.4298
 4359W        W23893   4.698  11.698  12.735 -0.1595  0.2128  0.0457
 4360W        W23894  17.542   1.448   0.005 -0.0551  0.0652 -0.0820
 4361W        W23895  16.501   6.977   0.120  0.1261  0.1013 -0.1813
 4362W        W23896  10.120   9.194  15.757  0.1040  0.0720 -0.0396
 4363W        W23897   4.061  16.851   0.396  0.0392 -0.2250  0.0946
 4364W        W23898   2.425  16.019   2.931  0.0020 -0.0369 -0.1685
 4365W        W23899   1.169  10.360   3.047  0.1116 -0.0435  0.0470
 4366W        W23900  12.759   3.902  14.385  0.1075  0.3962  0.3059
 4367W        W23901   8.938  10.829  16.244  0.0217 -0.2007 -0.0163
 4368W        W23902   9.462  11.992  13.362 -0.2250 -0.4533 -0.0416
 4369W        W23903  15.048  14.432   2.906 -0.1514 -0.2269 -0.3079
 4370W        W23904  17.619  14.106   1.606 -0.1431  0.3110  0.1543
 4371W        W23905  10.814   0.842  12.739 -0.0990 -0.3141 -0.2360
 4372W        W23906  10.509   6.800  14.146  0.2163 -0.1203  0.0948
 4373W        W23907  10.686   3.369   3.345  0.0829 -0.1031  0.0710
 4374W        W23908   1.040  15.579  15.986  0.0973 -0.1111 -0.0715
 4375W        W23909   0.052   0.405   0.855 -0.1663 -0.1983 -0.1654
 4376W        W23910  11.525   7.113   0.753  0.0083  0.0051 -0.1051
 4377W        W23911  11.680   4.381   3.586  0.1171 -0.0260  0.2596
 4378W        W23912   7.936   2.011  16.718  0.3492 -0.1232  0.2420
 4379W        W23913   5.703  12.262  16.037 -0.2562 -0.1502  0.1038
 4380W        W23914   7.503  16.799  12.231  0.3207  0.1248 -0.0473
 4381W        W23915  15.573   5.092   0.174  0.0846  0.1215 -0.3299
 4382W        W23916   1.959  14.675   0.472  0.0240 -0.3493 -0.1049
 4383W        W23917   8.752  10.016  15.699  0.2866  0.1918 -0.1284
 4384W        W23918  12.691  13.194  13.207  0.1645  0.1897  0.0479
 4385W        W23919  11.255   6.266  14.720  0.0090  0.2691 -0.1380
 4386W        W23920   6.982  14.016   4.705 -0.0650  0.3316 -0.1458
 4387W        W23921   6.528   8.845  16.166  0.0356 -0.1474 -0.0436
 4388W        W23922  14.547  11.558  12.600 -0.1143  0.0088  0.2155
 4389W        W23923   6.924  17.658   0.727  0.1683 -0.0495 -0.1662
 4390W        W23924   4.015   2.760  15.228 -0.0202  0.0082  0.0818
 4391W        W23925   1.171  17.475  15.682 -0.1331 -0.0950  0.2221
 4392W        W23926  15.420  16.107   2.075  0.0251 -0.0387  0.0397
 4393W        W23927   1.935  10.383   4.467 -0.0098 -0.3023 -0.2520
 4394W        W23928  12.869  11.497   3.081  0.3789 -0.0684  0.2257
 4395W        W23929  13.358   4.613   0.841 -0.3475  0.1496  0.1337
 4396W        W23930   2.251   1.072   1.795 -0.1050 -0.4119  0.1154
 4397W        W23931  14.196  15.080   5.218 -0.0504 -0.2179 -0.0062
 4398W        W23932   7.983  12.993  15.235 -0.0613 -0.1530  0.1204
 4399W        W23933   3.720   9.741   2.417  0.1184  0.0627  0.0157
 4400W        W23934  17.801  17.595   2.564 -0.2933 -0.1633 -0.0742
 4401W        W23935   1.200  12.904  15.229 -0.0341  0.2502  0.0757
 4402W        W23936   8.716   6.200   1.263 -0.0977  0.2827 -0.2376
 4403W        W23937   2.359   9.653   3.720 -0.0897  0.1652  0.1047
 4404W        W23938   6.045   6.193  11.439 -0.0862 -0.0791  0.1895
 4405W        W23939   4.568   6.534   5.703  0.0356  0.1676  0.1562
 4406W        W23940   8.124   4.704   5.473  0.1151  0.2645 -0.0796
 4407W        W23941   4.118   8.351  13.880  0.1280  0.0162 -0.1379
 4408W        W23942   2.833  13.572  14.691  0.0156  0.2636  0.1196
 4409W        W23943   2.421   4.526  12.856  0.3697  0.0077  0.1283
 4410W        W23944  13.717   3.703   4.430  0.2612 -0.1454  0.1436
 4411W        W23945   3.593   0.356  13.605 -0.1642 -0.3108 -0.2527
 4412W        W23946   7.897  14.562  16.489  0.1688 -0.1024  0.1728
 4413W        W23947   0.437  14.388  15.669 -0.2711  0.1092 -0.0598
 4414W        W23948  12.635   6.649  14.991 -0.2644  0.0280  0.1188
 4415W        W23949   1.166   0.230  12.035 -0.1672  0.0686  0.2231
 4416W        W23950   7.298  13.857   2.560  0.0297  0.1293  0.0199
 4417W        W23951   4.360   5.613   4.629  0.0195 -0.1228 -0.0776
 4418W        W23952   5.925   4.475   0.786  0.0380 -0.1702 -0.2566
 4419W        W23953   0.070   2.493  15.331 -0.3940  0.2702  0.1306
 4420W        W23954   3.990  12.309  16.399 -0.3880 -0.2112 -0.1425
 4421W        W23955  14.108  12.174  13.321  0.1293 -0.0699 -0.0409
 4422W        W23956  10.199   7.215  14.206 -0.0275 -0.0131 -0.1415
 4423W        W23957  11.815  15.227   1.630  0.1607  0.1442  0.0252
 4424W        W23958   9.696  11.397  15.015  0.1043  0.3831  0.0348
 4425W        W23959   4.417   2.556   5.620  0.0926 -0.3122  0.1395
 4426W        W23960   4.771   3.016  15.605 -0.2734 -0.3769 -0.1144
 4427W        W23961   6.191  12.781  13.319 -0.0833 -0.0427  0.0042
 4428W        W23962   4.551  13.013   2.690  0.1961 -0.2785  0.0688
 4429W        W23963   6.848   5.842   0.290  0.0222 -0.1003 -0.0537
 4430W        W23964   5.540   1.779   3.714 -0.1484  0.2230  0.4907
 4431W        W23965   2.285  16.641  14.597  0.2753 -0.0127 -0.2915
 4432W        W23966  10.673  14.198   4.556  0.0072 -0.3928 -0.3470
 4433W        W23967   6.065   6.438   4.307 -0.0835  0.0532 -0.2693
 4434W        W23968   9.576  16.759   3.777  0.1112 -0.0650 -0.2010
 4435W        W23969   3.272  10.383  13.695 -0.5501  0.1264  0.0583
 4436W        W23970   1.944  10.921  14.135  0.3523 -0.0316  0.0857
 4437W        W23971  13.436   3.593  14.038 -0.0390 -0.0518  0.0720
 4438W        W23972  16.942   7.693  16.645  0.1300  0.1771  0.0695
 4439W        W23973   6.503   7.251   2.857 -0.0729 -0.1428  0.0470
 4440W        W23974  12.693   2.986   2.655  0.2184 -0.1884  0.0204
 4441W        W23975   3.336   4.094   3.628  0.2080 -0.0994 -0.2582
 4442W        W23976  10.077   7.361  13.751 -0.1487 -0.0914  0.1235
 4443W        W23977  14.747  14.617   2.541  0.3856  0.1455  0.0932
 4444W        W23978   8.147  14.387  12.848 -0.0438 -0.2561 -0.0318
 4445W        W23979   0.872   6.388  15.251  0.0013 -0.2224  0.0238
 4446W        W23980   4.889  13.181  16.701  0.5059  0.2044  0.0368
 4447W        W23981  10.523  12.486   3.921  0.2119  0.0869 -0.4241
 4448W        W23982   0.062   8.541  15.703 -0.0098  0.0287 -0.2005
 4449W        W23983  10.275   8.733   1.454  0.1704 -0.0905  0.2640
 4450W        W23984  12.929   7.918   2.352 -0.0224  0.3564 -0.0696
 4451W        W23985   6.201  10.329   0.437  0.2348 -0.0079  0.1158
 4452W        W23986   7.906   1.437   1.185  0.3785 -0.3287  0.0302
 4453W        W23987   7.972   4.678   2.392 -0.3212 -0.0471  0.0498
 4454W        W23988   0.796  17.626   3.543  0.0105  0.1845 -0.1082
 4455W        W23989  16.848  10.413  11.730 -0.1078 -0.0893 -0.3523
 4456W        W23990   8.356   7.276   4.804 -0.0361 -0.1304 -0.2148
 4457W        W23991  15.342   4.149  15.061 -0.3614 -0.3868  0.0401
 4458W        W23992   3.495   1.314  16.648 -0.3836 -0.2566  0.1755
 4459W        W23993  15.730  15.713   0.656 -0.0413  0.0448 -0.1159
 4460W        W23994   3.802  15.172  13.914  0.0676  0.1261 -0.3587
 4461W        W23995  10.514  10.488  13.243  0.3020  0.2716 -0.0814
 4462W        W23996   7.058  13.324   1.575  0.2351  0.0338 -0.1445
 4463W        W23997  11.790  10.362  15.543  0.0822  0.2639  0.1090
 4464W        W23998   8.950  17.255   3.322 -0.0042  0.2128 -0.1310
 4465W        W23999   0.129  12.377   3.911 -0.0982  0.4724  0.1898
 4466W        W24000   3.155  11.062  13.624 -0.1214  0.0999  0.0788
 4467W        W24001   6.903   3.535  15.652 -0.3288  0.1082  0.0709
 4468W        W24002   5.603  10.594  15.335  0.3036  0.1028  0.1903
 4469W        W24003   8.727   9.936   1.288  0.0676  0.5499  0.2957
 4470W        W24004  13.132  13.970  14.750 -0.0670 -0.3232  0.1838
 4471W        W24005   4.673   0.370  12.397 -0.2701 -0.3648 -0.0967
 4472W        W24006  17.360   7.598   0.793 -0.0958  0.0499 -0.1604
 4473W        W24007  15.475  17.196   3.256  0.2169 -0.2368 -0.0213
 4474W        W24008   9.830  17.385  11.914  0.0931  0.1645  0.0521
 4475W        W24009  11.820  13.418  14.519 -0.0832 -0.1444 -0.1821
 4476W        W24010   6.183  12.437  16.247  0.0270 -0.1221 -0.1547
 4477W        W24011   6.810   2.775   1.453 -0.3056  0.2950  0.0410
 4478W        W24012  15.004   0.230  13.604  0.0512  0.1681 -0.3136
 4479W        W24013  11.894   7.129   3.631  0.0299 -0.3651  0.0562
 4480W        W24014   4.307   3.134   1.728  0.1752  0.3444 -0.1079
 4481W        W24015   0.404  14.035  16.024 -0.0892 -0.4681 -0.0564
 4482W        W24016  13.410  15.457   3.819 -0.0775 -0.2095 -0.1242
 4483W        W24017   6.019  16.281   3.526 -0.0275  0.0239 -0.0548
 4484W        W24018  11.685   5.895  15.404 -0.1270  0.1877 -0.1614
 4485W        W24019   4.230  13.829   1.369 -0.2711  0.0167 -0.1774
 4486W        W24020  15.867  13.468  15.095  0.3693  0.0244 -0.0249
 4487W        W24021  14.881  11.048  11.701  0.2883 -0.0563  0.1748
 4488W        W24022   5.510   7.425   4.690 -0.0461  0.3655  0.0594
 4489W        W24023   7.431   4.204  13.731 -0.0503 -0.1301 -0.2844
 4490W        W24024  10.750   2.112  13.600  0.1493  0.1922 -0.1382
 4491W        W24025   6.205   6.004   1.958 -0.0153  0.1882  0.0674
 4492W        W24026   7.964  15.260   4.937 -0.2734  0.0560  0.0067
 4493W        W24027  12.792  17.120  15.230 -0.1251 -0.0631  0.4045
 4494W        W24028  14.295   8.670   1.669  0.0041 -0.4806  0.1607
 4495W        W24029  16.622   1.945   4.317 -0.0745 -0.0846  0.0537
 4496W        W24030  13.179  16.774  13.867 -0.1329  0.0057 -0.1971
 4497W        W24031  14.926   6.602  15.826 -0.0136 -0.2705 -0.0606
 4498W        W24032   2.799   9.179  14.375  0.2046  0.0602 -0.0738
 4499W        W24033  13.191   8.084  15.904  0.2377 -0.3159 -0.2265
 4500W        W24034   2.622   2.835   4.187  0.0318  0.2744  0.0050
 4501W        W24035   3.708   2.226   3.578 -0.1198  0.0350 -0.1720
 4502W        W24036   7.251   5.985  16.090 -0.1164  0.1258  0.1629
 4503W        W24037   7.934   1.242  14.406 -0.1891 -0.1486 -0.0465
 4504W        W24038  12.216   3.629  13.334  0.1380 -0.3105 -0.0852
 4505W        W24039  16.887   7.496  16.152 -0.1862  0.2457 -0.0022
 4506W        W24040  11.370  10.297  13.278 -0.0830  0.2126 -0.1573
 4507W        W24041  13.116   5.311  14.072  0.0056 -0.0959  0.1536
 4508W        W24042   5.645  10.539  14.880 -0.0772 -0.0403  0.1164
 4509W        W24043  11.338   2.805   0.403  0.2635 -0.3779 -0.1729
 4510W        W24044   9.899   0.536  13.165 -0.0849  0.1826  0.2677
 4511W        W24045  16.063   2.325  12.483  0.1568 -0.0323  0.2259
 4512W        W24046  17.868   8.620   3.884 -0.3092  0.3079  0.2262
 4513W        W24047   3.699   6.710   0.543  0.0197  0.2236 -0.2071
 4514W        W24048  11.014   2.105   3.144 -0.1129 -0.0491  0.1564
 4515W        W24049   8.311   4.338  15.885  0.1511  0.3188 -0.1326
 4516W        W24050   9.419   8.568   4.912 -0.4466  0.0853 -0.1070
 4517W        W24051   5.732   5.325  16.061  0.2416  0.0410  0.2444
 4518W        W24052  12.878  12.577   0.619 -0.4744  0.1485  0.0359
 4519W        W24053   0.843   2.657   3.175 -0.2539 -0.1409  0.1263
 4520W        W24054   9.399  15.753   4.709 -0.4388 -0.0812  0.1325
 4521W        W24055  11.470   6.293   1.132 -0.1895  0.0316  0.2192
 4522W        W24056  13.574   5.113  15.001  0.5197  0.0417 -0.1175
 4523W        W24057   1.371  17.030  16.602 -0.0474  0.0472 -0.4406
 4524W        W24058   7.631   1.529  14.638  0.2031  0.0906 -0.4102
 4525W        W24059   3.477   4.464  14.170 -0.2237 -0.1901  0.1070
 4526W        W24060  10.020   5.334   2.164 -0.0236  0.1176 -0.0902
 4527W        W24061   7.028   2.091   0.275 -0.2056 -0.3718 -0.0478
 4528W        W24062   2.968   1.112  13.967 -0.0427 -0.1352 -0.3221
 4529W        W24063   5.211   5.994   4.145 -0.2018 -0.0352  0.1226
 4530W        W24064   4.870  10.745  14.451  0.0874  0.0942  0.1063
 4531W        W24065   1.043   9.452  13.817 -0.0482  0.2317 -0.0792
 4532W        W24066  17.701   3.624   4.230 -0.1266 -0.2540  0.1658
 4533W        W24067   8.921   3.985  13.498 -0.0206 -0.2055  0.0411
 4534W        W24068   2.712  10.899   2.234 -0.0227  0.1384 -0.2401
 4535W        W24069   6.860  14.641   0.217 -0.1001  0.3412 -0.2655
 4536W        W24070  14.950  11.682   1.681  0.0092 -0.4052  0.0260
 4537W        W24071   2.970  15.486   1.129  0.0621  0.2487 -0.1002
 4538W        W24072  10.469  16.349  11.910 -0.0470  0.1786 -0.0857
 4539W        W24073  10.419   1.780   3.700 -0.0658  0.1122 -0.2658
 4540W        W24074   5.953   5.698  15.840 -0.1380 -0.2710  0.1643
 4541W        W24075   8.996   9.089   1.601  0.3788  0.1780 -0.1186
 4542W        W24076   3.037   0.800   2.149  0.0591  0.0777  0.0501
 4543W        W24077   1.207   1.633   1.437 -0.0723 -0.0374 -0.3832
 4544W        W24078  12.173  16.505   3.886  0.2368  0.2024  0.1180
 4545W        W24079   7.511   6.317   2.602 -0.0213 -0.0872 -0.1385
 4546W        W24080   3.190  16.462   4.250 -0.1258 -0.0718  0.3276
 4547W        W24081   6.358  12.839   4.049  0.0202 -0.0673 -0.0570
 4548W        W24082   4.371  15.083   3.439 -0.2824  0.0708 -0.1405
 4549W        W24083   5.592  11.646  13.514  0.0091 -0.4328 -0.2282
 4550W        W24084  14.776   4.897  15.887  0.1294 -0.0576  0.1831
 4551W        W24085   0.640   0.407   0.251  0.1911  0.0758 -0.0641
 4552W        W24086   4.753   9.794   3.726 -0.1887  0.0523 -0.4992
 4553W        W24087   0.036   0.123  15.439 -0.1755  0.0493  0.0256
 4554W        W24088   4.849   2.393   4.340 -0.0180  0.0344 -0.2436
 4555W        W24089   2.540  17.074   1.005 -0.0100 -0.1625 -0.0547
 4556W        W24090   9.576   5.381   5.303 -0.1408  0.0493 -0.1292
 4557W        W24091   4.977  11.460   0.946  0.0581 -0.1552 -0.1680
 4558W        W24092  15.864  11.175  13.464  0.4132  0.0485 -0.0887
 4559W        W24093   3.400   8.607  12.733 -0.1718  0.2136  0.0032
 4560W        W24094   0.304  11.512   0.259  0.3548  0.1731  0.1256
 4561W        W24095   2.373   0.503   4.292  0.1824 -0.0287  0.1570
 4562W        W24096  14.700   4.604  14.392  0.0626 -0.1305 -0.2186
 4563W        W24097  15.386  17.173  16.649  0.1067 -0.0664  0.0094
 4564W        W24098   5.010   2.021  13.340 -0.1516 -0.0612  0.0782
 4565W        W24099  10.571   5.164   3.850  0.1913  0.1297  0.0696
 4566W        W24100   6.236  13.700   4.158  0.4370  0.0690  0.3185
 4567W        W24101  13.035   7.641  14.006  0.2580 -0.3318  0.0144
 4568W        W24102   4.292   9.506  16.590 -0.1319 -0.1451  0.0786
 4569W        W24103  17.516  12.343   0.929 -0.0191  0.0658  0.1101
 4570W        W24104   7.366   2.236  12.911  0.0127  0.3548 -0.0963
 4571W        W24105  16.695   7.554   3.925 -0.4859 -0.0685 -0.2422
 4572W        W24106  16.408  13.786   2.366 -0.1859  0.1571  0.1018
 4573W        W24107  12.482   1.357  13.160 -0.3002 -0.0043 -0.3215
 4574W        W24108  14.918   6.587  14.004  0.3285  0.1130 -0.3067
 4575W        W24109  13.415  15.918  12.688  0.0522  0.1386  0.1903
 4576W        W24110   7.927   7.788  13.082 -0.1804 -0.1954  0.2667
 4577W        W24111  12.462  15.328   0.935  0.1146  0.0209  0.1739
 4578W        W24112  15.116  14.621  13.529  0.3727 -0.1540 -0.0293
 4579W        W24113  12.867  15.884  12.730 -0.2119 -0.1381  0.0703
 4580W        W24114  14.278   2.096   2.841  0.0162  0.0352 -0.1764
 4581W        W24115   8.815  13.112  11.604 -0.0606  0.0784  0.1126
 4582W        W24116  15.906   0.955   2.381  0.0854 -0.0514 -0.0732
 4583W        W24117   8.634   9.569   4.244  0.1270  0.0057 -0.1244
 4584W        W24118   9.613  12.757   3.269 -0.0243  0.1599 -0.2240
 4585W        W24119   4.114   5.282  12.203  0.4747  0.0180  0.2278
 4586W        W24120   3.946  15.994   2.754 -0.0419 -0.0572 -0.0824
 4587W        W24121  13.614  16.251   1.254 -0.3730 -0.2576 -0.3236
 4588W        W24122   2.139   8.605  16.394  0.2898 -0.1498 -0.0613
 4589W        W24123   1.659   2.097  15.616 -0.2693 -0.0194 -0.2727
 4590W        W24124   3.187   4.246  13.793 -0.0342  0.1283 -0.0846
 4591W        W24125  13.930  14.529   0.307 -0.1566  0.0683  0.0532
 4592W        W24126   1.587   4.553   4.906 -0.0340 -0.2160 -0.1799
 4593W        W24127   2.946   6.584   0.653  0.0446 -0.2153 -0.1718
 4594W        W24128   7.884  11.286   2.137  0.3748 -0.2971 -0.0176
 4595W        W24129  16.103  10.430  15.094 -0.0951 -0.0400 -0.3207
 4596W        W24130   3.090  14.891  15.038  0.1390  0.1923 -0.1808
 4597W        W24131   1.605   7.487  12.429 -0.1157  0.1323  0.0920
 4598W        W24132  11.933  16.213  16.403 -0.4389  0.1324 -0.1326
 4599W        W24133   1.631   6.716  11.918  0.0978 -0.2254 -0.0002
 4600W        W24134  11.867  17.244  12.950  0.3355 -0.1564  0.2514
 4601W        W24135   8.810   4.132  14.863 -0.0762  0.1010  0.0876
 4602W        W24136   5.966  12.344  15.194  0.2992 -0.3198 -0.0658
 4603W        W24137   5.761  17.905   1.864  0.1186 -0.1963  0.1280
 4604W        W24138  15.213  12.385   1.887 -0.0265 -0.0099  0.0918
 4605W        W24139  10.913   9.834  13.156  0.0602 -0.1276 -0.2710
 4606W        W24140   5.139   3.603   4.336 -0.3265  0.4226  0.0738
 4607W        W24141  17.446  14.489  15.181 -0.1554  0.2278 -0.1888
 4608W        W24142   1.391  16.915  14.367 -0.2304  0.0571 -0.1359
 4609W        W24143  11.099  15.743   2.331 -0.1523  0.1654 -0.1884
 4610W        W24144   0.901   7.317  11.932  0.3273 -0.1523 -0.1089
 4611W        W24145  14.316  17.705   3.843  0.0563 -0.1911  0.3357
 4612W        W24146   7.444   7.999   0.237  0.4109  0.0771  0.0297
 4613W        W24147  16.392   4.071  12.429 -0.1716  0.1030  0.1784
 4614W        W24148  13.398   9.667   3.553 -0.1314  0.1486 -0.0591
 4615W        W24149   2.835  14.445   2.477  0.0315 -0.1546  0.3312
 4616W        W24150   7.558  16.294  15.640  0.0953 -0.1030 -0.1336
 4617W        W24151  14.015   2.406  14.958  0.1241  0.0705  0.1355
 4618W        W24152  15.431   9.996   0.951  0.0254  0.0089 -0.0467
 4619W        W24153   1.998   5.911   2.345 -0.0207  0.0450 -0.3805
 4620W        W24154   1.788   0.624  13.636 -0.2879  0.3382 -0.1513
 4621W        W24155   8.752  17.436   0.183  0.2721 -0.0808 -0.0693
 4622W        W24156   5.823  16.715   3.871  0.2928  0.2586  0.1745
 4623W        W24157  17.073  13.859   1.785 -0.0781  0.2499 -0.2029
 4624W        W24158  13.679   9.509   1.703  0.0222 -0.2996  0.1780
 4625W        W24159   5.062   5.473   4.499  0.0496  0.1255 -0.1008
 4626W        W24160   7.707   2.498  13.207  0.0884  0.1679  0.0833
 4627W        W24161  17.130   0.964  15.097  0.4430 -0.1293 -0.0563
 4628W        W24162   4.395  17.281  14.958 -0.2588 -0.1542 -0.0436
 4629W        W24163  15.519   9.473   0.930  0.0043  0.3455 -0.1617
 4630W        W24164   7.148   3.945   4.687 -0.3026 -0.1656  0.1355
 4631W        W24165   1.244   3.363   3.651 -0.1565  0.5041 -0.1656
 4632W        W24166   7.746  12.613  14.005 -0.0158 -0.1545 -0.1811
 4633W        W24167  13.109   1.192  13.773 -0.0584  0.4310  0.3316
 4634W        W24168  15.599   8.559  12.957  0.1314 -0.0596  0.0908
 4635W        W24169  14.014   5.900   4.591  0.0311 -0.1410  0.4373
 4636W        W24170  11.251  16.569  14.836  0.3652 -0.1331 -0.5696
 4637W        W24171  12.427   9.586  12.483  0.1072  0.3024  0.0594
 4638W        W24172  17.271   5.129   1.216 -0.0960 -0.0065  0.2719
 4639W        W24173   0.426  12.412   4.947  0.0832  0.1509 -0.0774
 4640W        W24174   3.012   8.149   2.222  0.0042  0.1391 -0.0113
 4641W        W24175   7.460   4.396   4.798 -0.0526 -0.0411  0.0721
 4642W        W24176  14.203   3.919  13.542 -0.1562  0.2930 -0.3293
 4643W        W24177   4.049   9.857  14.156  0.1604  0.2409 -0.1138
 4644W        W24178  13.703  10.489   0.342  0.1899  0.1630  0.2058
 4645W        W24179  14.609   1.669   5.413  0.1303 -0.1813 -0.0072
 4646W        W24180   0.088   2.175   0.668  0.2360 -0.2530  0.1709
 4647W        W24181  13.290  13.599   0.043  0.1464 -0.2442  0.1991
 4648W        W24182  16.223   0.723  14.774 -0.0246 -0.1411  0.0001
 4649W        W24183  11.980   6.257   1.784 -0.0886  0.2142  0.1376
 4650W        W24184   3.085  11.712   4.496  0.0578 -0.1734  0.0933
 4651W        W24185   1.813   0.809   1.171  0.0915 -0.1492 -0.3102
 4652W        W24186   9.994   6.459  12.014 -0.1465 -0.2205  0.1620
 4653W        W24187   6.883  16.811  16.033  0.1272 -0.0802 -0.2217
 4654W        W24188  14.332   8.820   0.973 -0.1307 -0.0770 -0.2779
 4655W        W24189   3.967  15.328  14.379 -0.2814 -0.0764 -0.0726
 4656W        W24190  11.019  15.741  12.732 -0.0723 -0.1854 -0.4206
 4657W        W24191   5.896   2.155   5.298 -0.0386 -0.4109 -0.2238
 4658W        W24192   3.395   0.691   0.736 -0.1583  0.3431 -0.0670
 4659W        W24193   2.444  13.089   1.599  0.2874  0.2328 -0.0408
 4660W        W24194   5.981  17.510  13.731  0.1219 -0.2750 -0.0319
 4661W        W24195  15.091  15.751   4.401 -0.0042  0.0466  0.1355
 4662W        W24196   6.466   1.881   3.438  0.0987  0.0807  0.0800
 4663W        W24197  13.733  15.379   3.292  0.0816  0.3089 -0.0192
 4664W        W24198   6.879   9.871   4.797 -0.3570  0.0634  0.1062
 4665W        W24199   4.520   0.167  15.173 -0.1558  0.3271 -0.1190
 4666W        W24200  10.687   2.171  12.242  0.0405 -0.0447 -0.2979
 4667W        W24201  17.693   8.204   4.003  0.2694  0.0086 -0.0974
 4668W        W24202   4.879  13.634  15.397 -0.1030  0.0947 -0.0488
 4669W        W24203   4.640   2.069   3.537  0.3247 -0.2978  0.0075
 4670W        W24204   8.489   2.676   1.604  0.1584 -0.4341 -0.0958
 4671W        W24205  13.148   4.621  13.295 -0.0749  0.0434 -0.0704
 4672W        W24206   0.710   5.061   4.583  0.1822  0.2004  0.0560
 4673W        W24207  12.710  16.486   5.081  0.1707  0.0428  0.0052
 4674W        W24208   1.744  13.298  14.457 -0.0442 -0.0726  0.0663
 4675W        W24209   2.233  11.749  12.843  0.0758 -0.1943  0.1203
 4676W        W24210   0.369   9.124  12.979 -0.2113 -0.1834 -0.0437
 4677W        W24211   4.880   5.010   3.911 -0.2135 -0.1579  0.1061
 4678W        W24212   9.031   7.104  12.013  0.0935  0.3250 -0.1268
 4679W        W24213  12.369  17.120   2.485 -0.1021  0.0503  0.2356
 4680W        W24214  13.549   0.549  12.629 -0.0888  0.0482 -0.1160
 4681W        W24215   9.469  13.439  14.994  0.2189  0.0712 -0.0348
 4682W        W24216   4.203  14.404  13.265  0.3453  0.1795 -0.0038
 4683W        W24217   7.412  12.481   1.440 -0.0729  0.1533 -0.0302
 4684W        W24218   1.034   4.757   1.292 -0.0329 -0.1537 -0.3373
 4685W        W24219  15.212  14.169   1.366  0.0282 -0.1175  0.1248
 4686W        W24220  10.696   8.349   1.985  0.1381  0.0237  0.1006
 4687W        W24221  12.629  17.086  14.749  0.0272 -0.0424 -0.1303
 4688W        W24222  15.267   2.609   3.373  0.2978 -0.1722 -0.0434
 4689W        W24223   8.250  11.247  15.820  0.2134  0.0605  0.0019
 4690W        W24224   6.835   5.857  12.781 -0.0010 -0.2308 -0.1055
 4691W        W24225  15.710   4.734  13.924 -0.0781  0.0899 -0.0540
 4692W        W24226   9.184   6.271  15.786 -0.0515 -0.1531  0.0738
 4693W        W24227   1.502  14.309   2.403 -0.1435  0.3445 -0.2712
 4694W        W24228  17.395   2.645  12.400 -0.3110 -0.0648  0.2818
 4695W        W24229   4.733   5.283   4.906  0.0616 -0.0787  0.1930
 4696W        W24230   8.511   4.400   5.601 -0.3269 -0.1884 -0.0684
 4697W        W24231  14.436   5.963   2.419  0.3458  0.2685  0.1385
 4698W        W24232   3.577   1.794   0.475  0.0866 -0.2405  0.1775
 4699W        W24233  15.888  13.841   2.158 -0.0392 -0.2296  0.2715
 4700W        W24234  14.688   2.167  15.956  0.4477 -0.0377 -0.0327
 4701W        W24235  11.403  14.195  15.174 -0.1685 -0.1188 -0.1711
 4702W        W24236   8.522   8.086  13.826 -0.2169 -0.0972  0.1098
 4703W        W24237   5.272   8.400  13.787 -0.0541 -0.0245 -0.2251
 4704W        W24238   7.757   5.725   3.217 -0.1064  0.0357 -0.4911
 4705W        W24239  11.109  10.022   5.743  0.0776  0.1060  0.0512
 4706W        W24240  17.092  17.214  12.906  0.2246 -0.1139 -0.0583
 4707W        W24241   0.395   1.909   0.368  0.0426  0.0494  0.2731
 4708W        W24242  17.043   9.524   4.273 -0.1179  0.0749 -0.1325
 4709W        W24243  13.318   4.104   1.129 -0.0881  0.0379  0.0729
 4710W        W24244   9.332   2.792   3.255  0.1082 -0.2655 -0.0384
 4711W        W24245   6.444   7.777  16.183 -0.0332  0.3885 -0.0992
 4712W        W24246   1.302  11.843   3.762 -0.1995  0.1785 -0.1287
 4713W        W24247  14.020   6.852  15.136 -0.0696  0.0655  0.0573
 4714W        W24248   3.091   7.324  14.480  0.2712  0.2548 -0.0945
 4715W        W24249  15.724  10.059   2.278 -0.0777 -0.0685  0.1708
 4716W        W24250   4.741   0.996  13.709 -0.0990 -0.1056 -0.0453
 4717W        W24251   2.129   6.163  15.536  0.0417  0.0813 -0.0718
 4718W        W24252  16.452   5.267   4.753 -0.0637  0.2433  0.2901
 4719W        W24253  14.352   3.150   0.078 -0.1171  0.3231  0.3945
 4720W        W24254  13.719  16.268  16.469  0.1302 -0.1071  0.1784
 4721W        W24255   5.708  14.114   0.305  0.4147 -0.1861 -0.0544
 4722W        W24256  12.453  15.589  12.811  0.2516 -0.1535  0.1733
 4723W        W24257   2.134   9.387   2.879  0.3470  0.1716  0.1428
 4724W        W24258   2.672   6.918  11.822  0.0827 -0.1180 -0.0239
 4725W        W24259   2.172   1.312   2.277  0.3456 -0.0299  0.0538
 4726W        W24260  13.029  13.245   2.890  0.1528 -0.2592  0.3181
 4727W        W24261  10.209   7.265  12.969 -0.4703  0.2354  0.2611
 4728W        W24262  14.693   5.760  15.505  0.1859 -0.0281  0.1865
 4729W        W24263   4.722   1.202   2.882 -0.0484 -0.2823  0.0832
 4730W        W24264   7.741  13.722  13.524  0.2396  0.1494  0.3687
 4731W        W24265  14.710  12.019  12.523  0.3533  0.1283  0.1287
 4732W        W24266   4.920  17.223  15.689  0.0609 -0.0391  0.0560
 4733W        W24267   1.567   8.150   5.692 -0.1218  0.0572 -0.0185
 4734W        W24268   8.610  13.394   2.893 -0.0739 -0.0649 -0.1867
 4735W        W24269   7.932   2.917   0.659  0.0105  0.1992  0.1223
 4736W        W24270  10.363   4.491  16.578 -0.2682  0.0622  0.0421
 4737W        W24271   4.388   5.266  12.998  0.0720  0.1145 -0.0829
 4738W        W24272   8.802   3.250   3.863 -0.1128 -0.1613  0.0848
 4739W        W24273   6.611   6.898  11.693  0.2019  0.0786  0.5020
 4740W        W24274   7.125   5.410  12.888  0.1199  0.0143 -0.1378
 4741W        W24275   2.071  10.819   1.364  0.2153 -0.1385  0.0010
 4742W        W24276  16.993   1.221   2.835  0.1098  0.1022 -0.3852
 4743W        W24277   5.984   6.687  14.055  0.1231  0.0057  0.0649
 4744W        W24278  16.613  16.441   0.425  0.0777  0.3243  0.1455
 4745W        W24279   3.785  11.752  14.544  0.1852  0.0011 -0.0693
 4746W        W24280  11.270  14.086  13.713 -0.0901  0.1597  0.1614
 4747W        W24281  15.492  16.060  13.491 -0.0093  0.0634  0.0061
 4748W        W24282  17.451   0.112   2.425  0.0340  0.0284 -0.0333
 4749W        W24283   6.445   4.751  15.045 -0.1725 -0.0117 -0.0685
 4750W        W24284  11.887   7.590   3.283  0.0612  0.0592 -0.1025
 4751W        W24285   4.041  12.504  13.942  0.0797 -0.0118 -0.4228
 4752W        W24286   2.862  10.778  14.576 -0.4489  0.0072  0.0535
 4753W        W24287   1.051   2.485   1.128 -0.1835 -0.2282 -0.2499
 4754W        W24288  10.090   3.345  15.147  0.4351 -0.0350  0.1805
 4755W        W24289   7.475  13.194  15.316  0.2241  0.1121  0.0010
 4756W        W24290   9.194   7.976   3.987 -0.4647 -0.1042 -0.1122
 4757W        W24291   8.454   5.776   1.563 -0.2876 -0.0045  0.0056
 4758W        W24292   6.577  10.740   3.822 -0.1832  0.0862 -0.1781
 4759W        W24293  11.054   6.783  11.881 -0.2973 -0.0376  0.0709
 4760W        W24294   1.958  10.530   3.077  0.1007 -0.3431  0.0699
 4761W        W24295   7.199   7.110   0.392  0.0193 -0.0399 -0.0585
 4762W        W24296  15.248   9.223   3.713 -0.1469 -0.3471  0.0794
 4763W        W24297   6.903   4.008  14.741  0.2244  0.0815  0.0916
 4764W        W24298   8.044   8.059  12.330 -0.2529  0.1380 -0.0844
 4765W        W24299  10.793   5.137   4.552 -0.0543  0.1218  0.0525
 4766W        W24300   7.927  10.350  12.715 -0.2462  0.1720  0.1801
 4767W        W24301   2.745  13.594  14.007 -0.0720 -0.0129 -0.2376
 4768W        W24302   3.036   0.468  11.886  0.3317  0.0257  0.0882
 4769W        W24303   4.513   9.241   1.759  0.0326  0.1079 -0.3433
 4770W        W24304   4.360  16.635   1.428 -0.0960 -0.2908  0.0008
 4771W        W24305  16.652   6.246  14.946 -0.0739 -0.2068 -0.1555
 4772W        W24306   8.164  11.338   1.052  0.0755 -0.1342  0.0886
 4773W        W24307  13.927   5.146   1.068 -0.0487 -0.1490 -0.3672
 4774W        W24308  13.603  15.669   0.672  0.1993  0.1819 -0.1215
 4775W        W24309   9.628  14.272   4.432 -0.2219 -0.0543  0.1072
 4776W        W24310  13.220  15.896  16.106 -0.2770 -0.0486  0.0174
 4777W        W24311  12.970  16.779  16.351 -0.2062  0.0594 -0.2192
 4778W        W24312   8.457  10.413  14.730  0.0245 -0.3214 -0.0644
 4779W        W24313  15.436  11.209   0.952 -0.0101  0.1241 -0.1447
 4780W        W24314   8.633  15.953   2.781 -0.1382 -0.1089  0.0424
 4781W        W24315   9.649   6.008  15.392  0.0983 -0.1021 -0.1568
 4782W        W24316   3.344   6.890  15.483 -0.0842 -0.1370  0.0712
 4783W        W24317  14.648   3.578  12.277 -0.0412  0.0884 -0.2174
 4784W        W24318  16.463  15.178   4.365  0.0576  0.0539 -0.2274
 4785W        W24319  11.482  11.957   3.913  0.0928 -0.3050 -0.2546
 4786W        W24320  14.799  17.547   4.844 -0.1966  0.0148 -0.0663
 4787W        W24321   0.961   0.153   2.180  0.0904 -0.2083  0.1956
 4788W        W24322   6.851   6.774   0.552  0.0778  0.3916  0.2352
 4789W        W24323   1.613  11.238   0.069 -0.0055  0.0579  0.3353
 4790W        W24324  12.928   0.443  14.795  0.1708  0.0726  0.0204
 4791W        W24325   4.669   3.272   3.796 -0.0450 -0.2764 -0.2593
 4792W        W24326   0.282  12.349  15.092  0.1245 -0.0658  0.1600
 4793W        W24327  10.267   7.727  15.292 -0.0618  0.1416  0.0795
 4794W        W24328  16.316   4.156   1.279  0.3330  0.1358 -0.1428
 4795W        W24329   5.111  17.224   2.623  0.1460 -0.1363  0.0292
 4796W        W24330   7.259  15.799  13.760 -0.2686 -0.0993  0.0720
 4797W        W24331   3.931  10.179   2.727  0.1937  0.5781 -0.0037
 4798W        W24332   5.617   6.737   1.867 -0.1884  0.0437  0.1313
 4799W        W24333   1.081  11.004   5.229 -0.0546 -0.1401  0.1852
 4800W        W24334   7.807   5.999  16.221  0.0829  0.1617 -0.0683
 4801W        W24335   7.918   9.637   1.689  0.0833 -0.0850  0.2215
 4802W        W24336   3.644  15.775   3.282 -0.0997 -0.1359  0.0740
 4803W        W24337  13.646   8.068  14.630  0.1008  0.1294 -0.2641
 4804W        W24338   1.890   0.556   3.005 -0.0601  0.2394 -0.2101
 4805W        W24339  12.189  14.791  12.671  0.0913  0.3320 -0.2716
 4806W        W24340  17.224   6.885  13.878 -0.1725 -0.0934  0.0467
 4807W        W24341   7.713   1.348  12.780  0.3526 -0.0982  0.3889
 4808W        W24342  10.922   6.569  13.193  0.1931  0.0109  0.0636
 4809W        W24343   0.946   4.552  15.557 -0.1370  0.2384  0.3313
 4810W        W24344  14.639   2.619  13.405 -0.1863  0.2835  0.3200
 4811W        W24345   6.250  11.747   2.875 -0.5055 -0.1380  0.1036
 4812W        W24346   8.045  15.415  12.199  0.1741 -0.2291  0.0129
 4813W        W24347  13.398   0.893   1.492 -0.1663 -0.1655  0.0199
 4814W        W24348   0.623  16.726  15.528 -0.0205 -0.0210 -0.2145
 4815W        W24349   9.027   9.708  13.987 -0.2299 -0.1762  0.1433
 4816W        W24350  15.083  17.717  13.933 -0.0683 -0.1809  0.0561
 4817W        W24351   4.696  10.521   3.767 -0.0754  0.3370  0.1280
 4818W        W24352   9.784  10.935  15.143 -0.3856 -0.0708 -0.1348
 4819W        W24353  14.507   1.048   0.019 -0.0233  0.2304 -0.0494
 4820W        W24354  13.258   8.980  13.781  0.3614 -0.0086 -0.2078
 4821W        W24355  10.468  16.379   0.101  0.1006  0.0611 -0.0677
 4822W        W24356   8.939  12.774   0.409  0.2408 -0.1024  0.1604
 4823W        W24357  11.544   6.101   1.617  0.0843 -0.2310 -0.1208
 4824W        W24358  16.548   1.157  14.597 -0.1121  0.1475 -0.1172
 4825W        W24359  16.708   7.673  14.895 -0.0442 -0.1091 -0.1144
 4826W        W24360   3.911   8.832   0.477 -0.0466  0.2611 -0.0954
 4827W        W24361   3.506   5.387   4.394  0.3687 -0.0598 -0.1927
 4828W        W24362  14.495  13.301  12.789 -0.0475 -0.0530  0.3514
 4829W        W24363   9.180   4.348   0.927  0.1353  0.3903 -0.0889
 4830W        W24364  12.703   7.591   3.634 -0.1783 -0.0641  0.2473
 4831W        W24365  12.211  17.506  15.161  0.3949 -0.0391  0.0656
 4832W        W24366   2.318   4.974  13.681 -0.2430 -0.0149  0.3009
 4833W        W24367   2.799   1.253   0.991 -0.2770  0.1426  0.0389
 4834W        W24368   7.255  17.698  12.152 -0.0730  0.0346 -0.0744
 4835W        W24369   7.146  15.805  12.165  0.3082  0.0362  0.0504
 4836W        W24370   0.189   0.832  13.708  0.0662  0.1563  0.2376
 4837W        W24371  16.380  11.962  14.669 -0.3576  0.0393 -0.0700
 4838W        W24372   0.337  10.690  16.532  0.1171 -0.3356  0.1639
 4839W        W24373   5.218   7.534  12.618  0.0665 -0.1904 -0.0609
 4840W        W24374   9.019   8.268  15.042 -0.2904 -0.1929  0.1947
 4841W        W24375   1.306  17.065   4.668 -0.1082 -0.3549  0.0497
 4842W        W24376  16.618  17.330  16.151 -0.0103 -0.0892  0.1826
 4843W        W24377   8.034   2.400   2.934  0.0896 -0.0441  0.4257
 4844W        W24378  13.436   3.189  12.491  0.0974  0.2038  0.1479
 4845W        W24379  16.834   0.593   2.574  0.0414  0.1444  0.1787
 4846W        W24380   6.562   9.701   4.389 -0.3126  0.2758  0.1873
 4847W        W24381  13.503   3.490   5.241  0.0989 -0.2263 -0.3234
 4848W        W24382   8.353   5.261   6.610  0.0076 -0.0032  0.1008
 4849W        W24383   0.666  12.340  16.446  0.1190 -0.2615  0.1880
 4850W        W24384   6.238   4.758  16.398 -0.1459 -0.2732  0.5395
 4851W        W24385  17.108   0.701  16.319  0.0618 -0.0257 -0.1917
 4852W        W24386  11.105  11.103  15.728  0.3631  0.0417 -0.1830
 4853W        W24387   1.196   3.833  16.347 -0.0657 -0.1884 -0.1152
 4854W        W24388   8.781   3.766   3.971 -0.0109 -0.1845 -0.1900
 4855W        W24389   5.009   5.820  12.093  0.1825  0.1061  0.1118
 4856W        W24390   0.285   5.162  16.247  0.0886 -0.1292  0.2955
 4857W        W24391  13.077   2.268   1.327  0.1027 -0.0518 -0.1291
 4858W        W24392  13.867   1.795  14.156 -0.1972  0.2136 -0.1239
 4859W        W24393  17.595  11.607  15.192  0.1280 -0.2480  0.1194
 4860W        W24394  10.640  11.603  14.637  0.0208  0.1073  0.2265
 4861W        W24395  15.831   5.230  12.563 -0.0901  0.2093  0.0471
 4862W        W24396   9.425   4.953   0.505  0.2368  0.2192 -0.0823
 4863W        W24397   8.886   5.016  15.965  0.0989  0.0921  0.1449
 4864W        W24398   9.062  15.223  13.522  0.0261 -0.2534 -0.0720
 4865W        W24399   6.369   8.922  12.052  0.4019 -0.3965  0.1568
 4866W        W24400   3.671   1.109  16.003 -0.2849  0.0398 -0.0253
 4867W        W24401  11.757  15.473  12.287  0.0040  0.3838  0.0524
 4868W        W24402  14.105   6.504   2.816 -0.2823  0.0243  0.1885
 4869W        W24403  10.400  15.997   1.089  0.1903  0.0036  0.1523
 4870W        W24404   4.038  13.797   0.892  0.0457  0.0373  0.0136
 4871W        W24405  16.744  16.723   3.116  0.2813 -0.0150 -0.0372
 4872W        W24406   2.042   4.534  15.332  0.1396 -0.0208  0.1274
 4873W        W24407   7.743  13.590  12.625 -0.1068 -0.1806  0.1175
 4874W        W24408   3.600  17.327  13.689  0.0807 -0.1627  0.2136
 4875W        W24409  12.780   4.374   3.690 -0.2266  0.0184  0.3673
 4876W        W24410  17.549   2.587   2.184 -0.2046 -0.1674 -0.4544
 4877W        W24411  16.996   1.192  12.350  0.1251 -0.0676 -0.0456
 4878W        W24412  17.713   4.113   4.537  0.4908  0.1729 -0.0948
 4879W        W24413   2.643   8.047   1.762 -0.1989  0.0405  0.1857
 4880W        W24414  11.209   4.873  12.372  0.1381  0.0928 -0.1658
 4881W        W24415  12.564   2.366  11.958  0.1073 -0.2561 -0.0470
 4882W        W24416  15.308   5.218  14.476 -0.0201 -0.0531 -0.0387
 4883W        W24417  11.946   9.498   1.611  0.2549  0.1429 -0.0479
 4884W        W24418   3.656  14.992  16.459 -0.1932  0.1895 -0.1411
 4885W        W24419  13.116  17.277   4.642  0.0046  0.2438  0.3249
 4886W        W24420  10.543   2.397  16.139 -0.0301  0.0642  0.0705
 4887W        W24421   1.613  10.190   2.777 -0.0113  0.0272 -0.0932
 4888W        W24422   3.627  16.928  16.259 -0.2774  0.1395 -0.0201
 4889W        W24423  13.916   0.337   0.326  0.0103  0.2311 -0.0796
 4890W        W24424  17.623  17.352  16.670  0.1783  0.0271 -0.1457
 4891W        W24425  11.161  14.520  15.547 -0.0866  0.1521 -0.3307
 4892W        W24426   3.632   0.500   0.134 -0.0065  0.2510  0.1086
 4893W        W24427  13.824  10.314   3.464 -0.2768 -0.0652  0.0287
 4894W        W24428  16.998   3.136   2.279 -0.0584  0.0409 -0.0033
 4895W        W24429  15.413   5.353   3.063 -0.1968  0.1185 -0.2584
 4896W        W24430   0.507   6.238  13.367  0.1076 -0.1711 -0.2558
 4897W        W24431  15.428   5.362  13.575 -0.2604  0.1703  0.1836
 4898W        W24432  10.413  10.685  14.978 -0.1689 -0.2031  0.2389
 4899W        W24433   8.527   8.465  12.884 -0.3559  0.2590 -0.2786
 4900W        W24434   1.345   9.710  15.336  0.2720 -0.2777 -0.2822
 4901W        W24435   6.243   2.041  13.020 -0.0903  0.1408 -0.1502
 4902W        W24436   3.956  15.368  16.192  0.1118 -0.1946  0.1408
 4903W        W24437   9.474   1.101   0.429  0.0881  0.1247  0.1312
 4904W        W24438  14.769   4.939   0.506  0.0561 -0.0606 -0.2104
 4905W        W24439  16.460  13.657  14.414 -0.0859 -0.0960  0.0326
 4906W        W24440  12.115   7.575   2.499 -0.3104  0.4722 -0.0582
 4907W        W24441   8.140   9.435  13.925 -0.1068  0.0453 -0.3484
 4908W        W24442   2.917   6.852   3.945 -0.3212  0.0876  0.0091
 4909W        W24443   0.984   8.039  16.041 -0.1151  0.1010 -0.0618
 4910W        W24444   9.703  11.517  11.864  0.0326  0.3528  0.0295
 4911W        W24445   7.191   6.374  16.387 -0.0288  0.2154 -0.0335
 4912W        W24446   3.983   9.523   2.058  0.1149  0.3191  0.1486
 4913W        W24447   2.185   2.812   0.172  0.2564  0.0013 -0.1983
 4914W        W24448   2.083   1.473   3.192  0.0931  0.1632 -0.0153
 4915W        W24449   3.749  16.546  13.680 -0.0512  0.1080  0.2632
 4916W        W24450   9.219  14.693  14.479  0.1343  0.2961 -0.0005
 4917W        W24451  13.075   3.228  13.843 -0.2328  0.2342 -0.3319
 4918W        W24452   2.324   4.288  14.752  0.0149  0.0120 -0.1320
 4919W        W24453  13.202   0.232  13.908  0.2187 -0.0637  0.0995
 4920W        W24454  11.925   0.680   2.408 -0.1662 -0.2459  0.2456
 4921W        W24455  10.948  12.855  16.618  0.3268  0.2707  0.2845
 4922W        W24456   5.425  12.726   4.280 -0.1721 -0.2099 -0.0438
 4923W        W24457   8.490   4.773  16.190 -0.2697 -0.2129  0.0578
 4924W        W24458   7.851  15.615   5.315 -0.2168  0.1842  0.6569
 4925W        W24459   2.297  10.695  11.065  0.0004  0.0557 -0.0295
 4926W        W24460   3.220   2.322   3.737  0.0988 -0.0461  0.1215
 4927W        W24461  11.326  15.672   5.326  0.0648  0.3114  0.1183
 4928W        W24462   5.279   0.468  13.091  0.2972  0.0433 -0.0900
 4929W        W24463   4.537  10.938   0.508  0.5193 -0.0500 -0.0048
 4930W        W24464  12.602   2.587   4.805 -0.1581 -0.3095  0.0598
 4931W        W24465  17.546  17.363  14.833  0.0361 -0.1434 -0.1218
 4932W        W24466  16.104   4.890   2.701  0.0887  0.3558  0.0715
 4933W        W24467   5.547   9.509  15.906 -0.1048 -0.1990 -0.0870
 4934W        W24468  10.876  10.307  12.985 -0.0883  0.1606 -0.1494
 4935W        W24469  17.650  16.756   3.209 -0.0536 -0.1738  0.1657
 4936W        W24470  10.092   0.323  15.383  0.1150 -0.2355  0.1046
 4937W        W24471   0.027   2.515  14.533  0.0893 -0.1479 -0.1325
 4938W        W24472   0.649  16.948   1.761  0.0966 -0.0612  0.1356
 4939W        W24473   9.807   5.950   2.920 -0.2926  0.2107  0.3882
 4940W        W24474   4.713  13.818  13.876 -0.0986 -0.2113  0.0011
 4941W        W24475   0.928   7.224   3.433 -0.2930 -0.0959 -0.2078
 4942W        W24476  10.024  10.849   0.696 -0.2016 -0.0773 -0.2561
 4943W        W24477  16.124   7.262  11.789  0.2022 -0.0603 -0.0868
 4944W        W24478  17.674  11.028  14.234  0.0674 -0.0603  0.0816
 4945W        W24479  13.894   2.045  16.401 -0.1990  0.0449 -0.2285
 4946W        W24480   4.824   1.858   4.506 -0.4555 -0.2025 -0.0804
 4947W        W24481   2.034   4.251   0.073  0.0323 -0.2133  0.0282
 4948W        W24482  10.032  17.406  15.388 -0.2750 -0.4637 -0.1183
 4949W        W24483   2.388  14.278   2.217  0.0002  0.0137 -0.0555
 4950W        W24484   5.542   1.307   4.985 -0.2653  0.0174  0.0078
 4951W        W24485  15.552  15.983   3.068 -0.0612 -0.2600 -0.4000
 4952W        W24486  15.261   2.642   2.011  0.0557  0.1327 -0.0687
 4953W        W24487  17.018   5.579  13.924  0.2873  0.0312 -0.0705
 4954W        W24488   0.351   7.605   2.934  0.1301  0.0045 -0.0234
 4955W        W24489  10.260   8.280  13.319 -0.4149  0.1883  0.1102
 4956W        W24490   5.123  13.221  16.263  0.0106  0.1940  0.3573
 4957W        W24491   4.100   8.595  12.031  0.1252  0.1811  0.1136
 4958W        W24492   9.051   4.736  14.448 -0.4053 -0.2201  0.1474
 4959W        W24493   4.245   0.455   0.149 -0.2020  0.3659 -0.2859
 4960W        W24494  13.327   7.038   1.979 -0.0417 -0.4052 -0.3638
 4961W        W24495   8.967  14.633   2.488  0.2343 -0.0161  0.1142
 4962W        W24496  12.294   6.832   3.547  0.2412 -0.0160  0.1625
 4963W        W24497   3.164   5.061  16.305 -0.1846 -0.1925 -0.1303
 4964W        W24498   1.938   0.877  12.831  0.1123  0.1825 -0.1030
 4965W        W24499  10.421   6.426  15.320 -0.0463 -0.0240  0.2454
 4966W        W24500  15.949   9.938  16.186  0.0973 -0.1627 -0.1192
 4967W        W24501  13.722   7.843   4.403  0.0425  0.0894  0.0856
 4968W        W24502   7.555  17.653  16.751 -0.0087 -0.1887 -0.0444
 4969W        W24503  16.847  14.621   0.515 -0.0468  0.1287 -0.3864
 4970W        W24504  13.828  17.857   3.996  0.1318  0.1574  0.0283
 4971W        W24505   6.535  11.846   4.740 -0.3899 -0.1365 -0.2302
 4972W        W24506   9.240   2.554  14.867  0.5128 -0.0692 -0.0931
 4973W        W24507  10.987   4.221   4.221  0.1867 -0.3203 -0.2949
 4974W        W24508  15.179  11.692   0.656  0.0316 -0.0136 -0.0105
 4975W        W24509  15.919   0.808   4.534  0.3982 -0.2392  0.2769
 4976W        W24510  12.341  11.056   1.454  0.0351  0.1128  0.3120
 4977W        W24511  10.045  15.307   2.605  0.1047  0.0754 -0.3209
 4978W        W24512   6.913   9.514   3.956  0.1979 -0.1175  0.1639
 4979W        W24513   0.628  14.209   2.734  0.0706  0.2338  0.0351
 4980W        W24514   3.856  12.919   0.130  0.1933 -0.1308  0.0668
 4981W        W24515   8.016   4.526  12.510  0.0682 -0.0845  0.1079
 4982W        W24516   5.278  14.604  13.595  0.1190  0.0206  0.0491
 4983W        W24517  17.165   8.435  14.893 -0.0490 -0.0543  0.1065
 4984W        W24518   0.822  13.678   3.667 -0.1015 -0.0258  0.1315
 4985W        W24519  13.452  14.008  13.163 -0.2136  0.0170 -0.2439
 4986W        W24520   4.785   4.851   1.735  0.1096 -0.1658  0.2982
 4987W        W24521  13.409   2.241   2.917  0.1207  0.1250  0.4273
 4988W        W24522   3.056   2.296   1.083 -0.2227 -0.0099  0.0359
 4989W        W24523   8.864   7.934  16.747  0.0891  0.0308  0.1680
 4990W        W24524   7.607   9.169  13.436 -0.0216  0.0920  0.2400
 4991W        W24525   9.171  12.743  16.184 -0.0111 -0.0947 -0.2674
 4992W        W24526  17.253  11.894   1.692 -0.0239  0.0394 -0.1300
 4993W        W24527  11.043   7.008   3.362  0.0376 -0.0478  0.0567
 4994W        W24528   6.738   3.643   4.614 -0.3680  0.2916  0.1754
 4995W        W24529   1.141  15.910  12.298 -0.0334 -0.0543  0.1727
 4996W        W24530   8.043  17.058   3.502  0.0209 -0.0133 -0.2160
 4997W        W24531   8.354   6.063  13.008  0.0123  0.0617  0.1238
 4998W        W24532  13.535   1.647   0.230  0.2312  0.0842  0.3535
 4999W        W24533   1.836   0.302   2.326 -0.1860 -0.1017 -0.4217
 5000W        W24534  12.963   5.473  11.679 -0.0798  0.0850 -0.0784
 5001W        W24535  12.715  10.796   2.590  0.0450 -0.0209 -0.0346
 5002W        W24536   3.299  16.921   5.099  0.0214 -0.2236 -0.0551
 5003W        W24537   4.672   5.416   3.615  0.3435  0.3573 -0.0637
 5004W        W24538   2.902  14.685   4.373  0.1280 -0.0387  0.0946
 5005W        W24539   7.085  14.235  15.614  0.1011 -0.1896 -0.1088
 5006W        W24540   3.134  13.987  15.946 -0.0294 -0.2462 -0.2469
 5007W        W24541  16.827   8.115  11.608  0.0480  0.0340  0.1987
 5008W        W24542  10.999  16.494   0.011  0.0301 -0.3839 -0.1607
 5009W        W24543   5.085  14.484   0.773  0.2300 -0.1363  0.0366
 5010W        W24544   2.315   2.146   2.077  0.3553  0.2227  0.0401
 5011W        W24545   6.358  17.418   3.138  0.3080  0.1629 -0.2523
 5012W        W24546   9.623  17.254   2.151  0.2337 -0.2074  0.1275
 5013W        W24547  10.665   4.165  14.212  0.0732  0.1479 -0.2341
 5014W        W24548  15.473   1.953   0.128 -0.0472  0.1109 -0.1038
 5015W        W24549   4.210   0.407   1.368 -0.1726 -0.0955 -0.3185
 5016W        W24550   6.369  17.509  14.340  0.0861  0.1191 -0.1875
 5017W        W24551   1.350  16.558   5.575 -0.0504 -0.0125  0.1081
 5018W        W24552   6.723   8.703   0.543 -0.2669  0.2746  0.1348
 5019W        W24553  10.797   2.961  12.631 -0.1371  0.0742  0.1610
 5020W        W24554  13.660   2.180   0.081 -0.1451 -0.0029 -0.0813
 5021W        W24555   0.560  10.066   3.753  0.0347 -0.3490 -0.0101
 5022W        W24556  13.929   7.412  14.318  0.0601 -0.1240  0.2136
 5023W        W24557  11.004  15.609  15.671 -0.1865  0.0620 -0.1906
 5024W        W24558  15.408  10.986  15.321  0.0339 -0.0100 -0.0645
 5025W        W24559   5.668   3.525   0.590  0.0353 -0.3223  0.0280
 5026W        W24560   3.187   7.205  16.274  0.0971 -0.3712  0.3341
 5027W        W24561   9.003   8.006  13.709  0.0663  0.0492 -0.0714
 5028W        W24562   4.349   6.918  16.480 -0.1008  0.2751  0.1068
 5029W        W24563  11.447   8.522   2.329  0.2381  0.1379 -0.0904
 5030W        W24564   1.539   4.108  16.089  0.1509  0.2518  0.1852
 5031W        W24565   3.735  12.513  12.319  0.0291 -0.0795 -0.2294
 5032W        W24566  16.404   9.009   4.716  0.3798  0.1843 -0.3497
 5033W        W24567   2.574  11.896   4.267  0.0055 -0.1495  0.0116
 5034W        W24568   6.954  14.392   4.244  0.2686 -0.1002  0.1164
 5035W        W24569  14.602   8.902  12.664  0.2431 -0.1089 -0.1557
 5036W        W24570  10.990   5.836  16.268 -0.3010 -0.1623 -0.0069
 5037W        W24571   2.452   8.542  13.292 -0.0686 -0.0936 -0.3783
 5038W        W24572  14.621  13.265   4.124 -0.4165  0.1473  0.0228
 5039W        W24573   8.425   6.678   2.204 -0.0199  0.0328 -0.1632
 5040W        W24574   0.346   0.796   0.051  0.0265 -0.0064 -0.0246
 5041W        W24575  14.259   2.864   1.888  0.2611  0.0031 -0.1802
 5042W        W24576  10.088  16.392   4.965 -0.2568  0.0910  0.1142
 5043W        W24577   4.700  16.010   3.126  0.0796 -0.0073 -0.4307
 5044W        W24578   3.430   7.307  15.851  0.0705  0.1325  0.0911
 5045W        W24579   6.782  10.033   0.210  0.1263  0.0852  0.2247
 5046W        W24580   7.067   4.528  13.893  0.2288  0.0140 -0.0454
 5047W        W24581   2.164   0.764  12.362  0.1306 -0.0573  0.2943
 5048W        W24582  17.396  11.102  14.693 -0.2343  0.0476  0.0088
 5049W        W24583   1.211  14.502   4.834 -0.2899  0.3662  0.0293
 5050W        W24584   4.441   3.748  12.721  0.0784 -0.3594  0.2852
 5051W        W24585  12.110   4.395   4.888 -0.0797 -0.0043  0.0297
 5052W        W24586   1.655   4.026  11.829 -0.0176  0.1408  0.3779
 5053W        W24587  15.973   6.287   1.555  0.2774 -0.0702 -0.1031
 5054W        W24588  15.812   2.084  15.820 -0.2271 -0.1493  0.0536
 5055W        W24589   6.314   3.419   3.722  0.0641 -0.1475 -0.4673
 5056W        W24590   0.965   9.277  16.454 -0.2933  0.0660 -0.0465
 5057W        W24591   6.746  12.481   2.651 -0.2152  0.1578 -0.0786
 5058W        W24592  14.848  17.787  16.348  0.1660  0.0571 -0.0222
 5059W        W24593  17.050   2.425   2.145  0.0068 -0.0507 -0.1854
 5060W        W24594   8.453  15.563  16.104  0.0808 -0.2668  0.1355
 5061W        W24595  11.661   3.761   1.560  0.0429  0.1133  0.0523
 5062W        W24596  13.094   2.182   4.066  0.1868 -0.0716  0.1465
 5063W        W24597  15.777  13.051  15.837  0.2146 -0.1027 -0.0529
 5064W        W24598   2.120   2.217   1.014 -0.0333  0.0384  0.0824
 5065W        W24599   8.012   6.108  16.740  0.0259  0.0483 -0.0412
 5066W        W24600  13.209   9.575   4.070  0.2324  0.0022  0.2368
 5067W        W24601   1.507   7.516   1.333  0.2400  0.1362  0.0308
 5068W        W24602  13.520   8.255   2.101 -0.0572 -0.0710 -0.0370
 5069W        W24603   1.197   5.983  16.641  0.1134 -0.1043 -0.3631
 5070W        W24604  14.492  13.347  15.322  0.1660  0.0026 -0.0002
 5071W        W24605   0.843  14.977  12.270 -0.0753 -0.0018 -0.1935
 5072W        W24606  10.201  17.165  16.730 -0.2357 -0.2100 -0.0070
 5073W        W24607   9.575  13.302   3.212 -0.2462 -0.1920 -0.0366
 5074W        W24608  13.034   5.659   3.748 -0.0755 -0.1889 -0.1434
 5075W        W24609   5.619  17.851   5.156  0.2519  0.1642  0.0145
 5076W        W24610   3.260  14.303  12.080 -0.3427  0.0852  0.0185
 5077W        W24611   5.668   8.198   4.607  0.1168  0.2937 -0.0139
 5078W        W24612  12.133   7.323  14.113 -0.1866  0.0897  0.0325
 5079W        W24613   6.140  10.415  13.955  0.0606 -0.0954  0.0526
 5080W        W24614   6.116  14.130  16.024  0.1774  0.2408 -0.2908
 5081W        W24615  12.467   3.758  15.529 -0.0497  0.4440  0.2402
 5082W        W24616   9.747   6.605  12.527  0.0224  0.1477  0.2372
 5083W        W24617   4.546   4.869   2.818  0.0919 -0.2122  0.1478
 5084W        W24618  17.340  14.572   2.274 -0.0535  0.2050 -0.0021
 5085W        W24619   7.730  16.951   1.622 -0.0800  0.0609  0.2653
 5086W        W24620  15.590   4.157   2.322  0.2118  0.0332  0.2349
 5087W        W24621  17.569  12.257   2.607  0.0894 -0.0410  0.4120
 5088W        W24622   5.709  16.588  13.180  0.0580  0.1631  0.0458
 5089W        W24623  10.638   2.598   2.141 -0.0337  0.1663 -0.2164
 5090W        W24624  12.067   9.786  14.937  0.1165 -0.0354  0.2022
 5091W        W24625  14.553   9.464  15.729  0.0967  0.2546 -0.1641
 5092W        W24626  11.079   2.020  14.018 -0.0506 -0.1584 -0.0714
 5093W        W24627  11.972   2.075   1.979  0.0429 -0.0114  0.2840
 5094W        W24628   9.737   0.392   3.570  0.0818 -0.2376  0.0253
 5095W        W24629   6.388   9.414   3.983  0.1448  0.1427 -0.4567
 5096W        W24630  11.966   6.813  12.021  0.0913  0.0310  0.1693
 5097W        W24631  13.159   5.718   1.257  0.1073 -0.0074  0.1564
 5098W        W24632   3.163   1.281   2.041  0.2490 -0.2958  0.0954
 5099W        W24633   6.616   1.714  12.908  0.1503  0.0263 -0.2262
 5100W        W24634  17.397   8.107   3.089  0.0871  0.4587 -0.0715
 5101W        W24635  12.566   9.096   0.991  0.1793  0.1372  0.1021
 5102W        W24636   8.650  16.540  16.720 -0.1362  0.0128  0.3576
 5103W        W24637   7.291   5.870   2.917  0.1382 -0.0434  0.0558
 5104W        W24638  15.285  14.198  16.413 -0.1722 -0.2643 -0.0830
 5105W        W24639   6.721  13.073   1.210 -0.2221 -0.3372  0.2189
 5106W        W24640   0.350  10.500  13.586 -0.0272 -0.2002 -0.0205
 5107W        W24641   3.687  11.538  15.915  0.1466 -0.3182  0.1630
 5108W        W24642  16.191   9.163   0.383 -0.2653 -0.2431  0.2079
 5109W        W24643   3.777   6.516   3.029 -0.1143 -0.1330  0.2304
 5110W        W24644  12.063   2.869  12.844  0.0290  0.1453  0.2557
 5111W        W24645   6.830   6.646   4.761 -0.2252  0.1403 -0.1437
 5112W        W24646  17.838  15.619   4.415  0.2636  0.2825 -0.2877
 5113W        W24647  15.452   4.337   2.816  0.3914 -0.0091 -0.0700
 5114W        W24648  13.538   0.061  12.627  0.0180  0.0441 -0.0909
 5115W        W24649   3.017  11.120   3.928  0.2224  0.0943  0.1641
 5116W        W24650   9.137   7.621   0.451  0.1180  0.0870 -0.1469
 5117W        W24651  11.430  10.492   2.088  0.0854  0.1432 -0.0312
 5118W        W24652   1.527  10.766   2.795 -0.3487  0.5091 -0.0340
 5119W        W24653  15.953   9.450   0.729  0.1851 -0.2303  0.1378
 5120W        W24654   3.340   3.555  14.683 -0.0798 -0.1553  0.2087
 5121W        W24655  16.773   3.459   4.948 -0.1345  0.1295 -0.1793
 5122W        W24656   0.043   0.386   0.220 -0.2709  0.0211 -0.2119
 5123W        W24657   0.661   0.268  12.127 -0.1957  0.3358  0.2706
 5124W        W24658   3.037  16.237  14.635  0.1328 -0.2184  0.1949
 5125W        W24659   2.880   0.966   4.932 -0.1613  0.0661 -0.0783
 5126W        W24660   0.423   7.225  11.877  0.0760  0.0915 -0.0051
 5127W        W24661   8.430   7.227  11.679 -0.1232 -0.0454 -0.0903
 5128W        W24662   1.965  14.584  12.908 -0.1192 -0.0941 -0.0179
 5129W        W24663   5.166   0.265  12.278 -0.1160  0.0985 -0.0584
 5130W        W24664   8.623   9.574  15.998 -0.2003 -0.1532 -0.2693
 5131W        W24665   7.034  16.953  16.691 -0.2099  0.1963 -0.0797
 5132W        W24666   7.517  15.764  15.945  0.0686 -0.2876  0.2645
 5133W        W24667   7.705   5.948  15.702  0.1480  0.2327 -0.1668
 5134W        W24668   7.126  13.472  15.043  0.2412 -0.2310  0.4071
 5135W        W24669   6.311   0.002   3.288  0.1442 -0.1110  0.1139
 5136W        W24670  15.950   0.119   2.952  0.0226  0.1052 -0.0516
 5137W        W24671  14.602   1.737   1.691 -0.0161 -0.0545 -0.0822
 5138W        W24672  16.782   0.560   3.860 -0.1971  0.0512 -0.0069
 5139W        W24673  10.497  17.825   0.311 -0.2611  0.1628 -0.0102
 5140W        W24674  10.081  10.078  12.582 -0.1223  0.1840 -0.1975
 5141W        W24675  16.870   4.800  13.500  0.1898 -0.2907  0.1684
 5142W        W24676  14.371   4.381   4.581 -0.1222  0.1082 -0.1610
 5143W        W24677  13.479  14.642  15.357 -0.0629 -0.0011  0.2706
 5144W        W24678   0.821  12.966   1.001 -0.2407  0.2022  0.1947
 5145W        W24679  17.771  14.628  16.549 -0.0648 -0.2750 -0.0482
 5146W        W24680  13.467   8.987  12.800 -0.1917  0.3215  0.4128
 5147W        W24681   6.670  14.229  15.883  0.2811 -0.2810  0.5070
 5148W        W24682   5.589   7.159  11.549  0.0732 -0.3179  0.1181
 5149W        W24683   9.203   4.865  11.723 -0.1843  0.0559  0.0087
 5150W        W24684   0.697   9.444  14.702 -0.3979 -0.0788 -0.2090
 5151W        W24685  10.666  15.616  13.098 -0.0410 -0.2294 -0.2667
 5152W        W24686   1.706   8.073   2.689  0.2297 -0.0950  0.0385
 5153W        W24687  15.795  10.353   0.861  0.0415 -0.0718  0.0325
 5154W        W24688   0.439   1.948  12.434  0.0433 -0.0531  0.0960
 5155W        W24689   2.264   5.288  15.699  0.0028 -0.1516 -0.0054
 5156W        W24690   2.164  17.330  13.112  0.2007  0.1755 -0.1025
 5157W        W24691  14.068  11.080  16.072 -0.2399  0.0232  0.3914
 5158W        W24692   7.339  14.777   0.350 -0.2367 -0.0967  0.0615
 5159W        W24693   6.232  11.312   1.393  0.2464  0.2119 -0.1206
 5160W        W24694  10.878  11.959  15.577 -0.1641  0.3070  0.1827
 5161W        W24695   8.654   2.649  12.140  0.2840 -0.2410  0.0643
 5162W        W24696  15.363   0.081   2.739  0.0911  0.2123 -0.3479
 5163W        W24697  15.115   0.171   2.057  0.1955 -0.1754 -0.3345
 5164W        W24698   5.701   3.967   0.895  0.0238  0.1784 -0.1876
 5165W        W24699  14.528   7.642   1.686  0.2725  0.0585 -0.2735
 5166W        W24700   7.781  13.326   3.309 -0.1431  0.2262 -0.1451
 5167W        W24701  16.450  13.651  12.145 -0.0994  0.0216 -0.1247
 5168W        W24702   0.702   0.913  13.494 -0.1866 -0.2179 -0.1072
 5169W        W24703   4.791  14.244  15.860 -0.1494  0.0707 -0.1675
 5170W        W24704   0.671  13.311  11.740 -0.5721  0.0184  0.0741
 5171W        W24705   2.423  13.981   1.794 -0.2864 -0.0873  0.0863
 5172W        W24706   9.650  11.266   2.014 -0.1885  0.1247 -0.2685
 5173W        W24707   0.964   7.045  13.068  0.0796  0.0741  0.1565
 5174W        W24708   9.038  10.314  14.971 -0.0952  0.0462  0.0214
 5175W        W24709  12.376  15.562  15.162 -0.4580 -0.0538 -0.0660
 5176W        W24710  16.561   2.338   3.907  0.1797 -0.1076 -0.0352
 5177W        W24711   8.995   1.234  15.763 -0.2449  0.0011 -0.2407
 5178W        W24712   1.251   9.931  13.908 -0.1538 -0.0549  0.2231
 5179W        W24713  12.167   4.045  13.028  0.2721  0.0321  0.0996
 5180W        W24714   4.584   5.746  12.923  0.0825 -0.0123  0.0422
 5181W        W24715   0.852  11.353   4.923 -0.1248  0.1453 -0.3796
 5182W        W24716   8.257   0.845   4.231 -0.2275  0.2060 -0.2667
 5183W        W24717  16.610   2.022  13.375 -0.0694  0.2060 -0.0648
 5184W        W24718   2.144   2.900   5.021 -0.0512  0.1535 -0.1365
 5185W        W24719   5.348   2.061  12.047 -0.2656 -0.0274 -0.3228
 5186W        W24720   2.893   6.291  12.940  0.5510 -0.2364 -0.1231
 5187W        W24721  11.341   8.130   2.677 -0.1609 -0.0443 -0.0071
 5188W        W24722   4.370  15.242   2.958 -0.2042  0.1918  0.1464
 5189W        W24723  11.313   0.333   2.578  0.0083  0.0956  0.1351
 5190W        W24724  11.540  14.153  15.681  0.0453  0.0232  0.2295
 5191W        W24725   8.724   6.832   3.298 -0.1267 -0.2158  0.1020
 5192W        W24726  11.378  15.807   2.913  0.0739  0.0170 -0.0241
 5193W        W24727  15.873   5.783   1.403 -0.0170  0.1696 -0.0883
 5194W        W24728  12.340   8.241  12.515 -0.0731 -0.1071  0.3146
 5195W        W24729  10.232   3.995   1.463 -0.3810  0.0564 -0.2289
 5196W        W24730  14.575  14.366  13.649  0.1356  0.1428  0.1585
 5197W        W24731  17.193  16.873   3.311  0.2101  0.2080  0.1196
 5198W        W24732  12.961  13.554   3.714  0.0471  0.0474  0.0017
 5199W        W24733  11.770   1.319  12.501  0.0387  0.0693  0.1387
 5200W        W24734  14.511  13.401  13.992 -0.0753  0.1093 -0.1018
 5201W        W24735  12.287  16.227  14.540  0.0125  0.1365 -0.0085
 5202W        W24736   7.835  13.539   3.933  0.2818 -0.4033  0.2657
 5203W        W24737  12.279  15.131  14.903  0.2526 -0.4356  0.1335
 5204W        W24738  13.545   2.122   4.729  0.0613  0.2551  0.0640
 5205W        W24739  14.242  11.584  15.057  0.1627  0.3847 -0.1440
 5206W        W24740  17.900  13.701   4.480  0.0698 -0.1779  0.0820
 5207W        W24741   4.796   7.808   1.321  0.0401 -0.1495 -0.3204
 5208W        W24742   7.709  15.948   2.110 -0.1740 -0.1696  0.1283
 5209W        W24743  12.464   6.431   4.711  0.1187 -0.1142  0.1861
 5210W        W24744   9.317   7.523  11.898  0.0728  0.5761 -0.2039
 5211W        W24745  15.786   9.334   3.604  0.1035  0.3071 -0.0284
 5212W        W24746   8.832   1.543  13.999 -0.0779  0.0291 -0.4896
 5213W        W24747   4.730   5.521   1.884  0.1964 -0.0056  0.1902
 5214W        W24748  12.869  17.164   0.697 -0.1247 -0.1231 -0.0449
 5215W        W24749   8.917  11.429  12.151  0.0630  0.0943 -0.1819
 5216W        W24750   5.159  15.453   0.859  0.1472 -0.0550 -0.1147
 5217W        W24751  11.106  13.166  15.865  0.0361 -0.1195 -0.2683
 5218W        W24752   1.464  13.401  16.424  0.0525 -0.2196 -0.0273
 5219W        W24753  12.619  12.895  16.466  0.3684  0.0719 -0.0735
 5220W        W24754  13.057   5.600   0.227  0.0741  0.3888 -0.3132
 5221W        W24755   0.540  11.109  15.581  0.0926  0.0256  0.1153
 5222W        W24756  13.637   9.023   0.146 -0.1459  0.1087  0.2079
 5223W        W24757   0.594  13.840  14.882  0.1161 -0.0362  0.0946
 5224W        W24758  15.608   7.014  11.744 -0.2133  0.1499 -0.2641
 5225W        W24759  17.491   9.795   4.472  0.0917 -0.0218 -0.1593
 5226W        W24760   5.926  15.896   2.825 -0.1132 -0.4198  0.0097
 5227W        W24761   4.238   8.394   1.142 -0.1580  0.0143  0.4133
 5228W        W24762  17.837   4.533   4.798  0.1483 -0.3390  0.1432
 5229W        W24763   9.505  16.083  13.473 -0.0365 -0.0061  0.1248
 5230W        W24764   2.404  14.025  12.547  0.0288  0.1569 -0.2160
 5231W        W24765  10.200   1.283  14.689 -0.1631 -0.1405 -0.1899
 5232W        W24766  10.337   0.765   2.701 -0.2450  0.0877 -0.4000
 5233W        W24767   4.333   2.778   3.024 -0.0605  0.1763 -0.3797
 5234W        W24768  12.031   7.076   4.826 -0.0870  0.1664  0.2414
 5235W        W24769   1.820  16.230  12.723 -0.0128 -0.1048 -0.2413
 5236W        W24770  14.554  17.110  16.103 -0.1105  0.1697  0.1808
 5237W        W24771  14.122  13.642   2.269  0.0611  0.0428  0.1640
 5238W        W24772   4.107   3.101  14.198 -0.3149 -0.1293 -0.1669
 5239W        W24773  12.589   7.619   2.597  0.0647  0.0848 -0.4610
 5240W        W24774   8.155  14.917  13.706  0.1797  0.0146  0.3968
 5241W        W24775  13.930   3.987  12.636 -0.2365  0.2193 -0.2933
 5242W        W24776   9.232   7.971  13.065  0.1958 -0.0872  0.1177
 5243W        W24777  10.279  11.542   3.360 -0.0921 -0.2973  0.0843
 5244W        W24778  13.055   6.380  14.708 -0.0138  0.1235  0.3226
 5245W        W24779  15.881  10.786   2.800 -0.2908 -0.3313 -0.2056
 5246W        W24780  13.460   8.402  12.048  0.0599 -0.2595 -0.1078
 5247W        W24781  14.990   7.336  12.437 -0.1099 -0.1756 -0.0150
 5248W        W24782  15.827   8.421   4.080  0.0591  0.1352  0.2620
 5249W        W24783  13.441   0.707   2.067  0.0513 -0.0044 -0.1360
 5250W        W24784  12.553  12.083   1.250 -0.1603  0.0575  0.0711
 5251W        W24785   8.736   1.706  11.974 -0.1696  0.0952  0.1886
 5252W        W24786  10.887   5.114  14.393 -0.1798  0.0632  0.0024
 5253W        W24787  11.308   5.730  14.994  0.3337 -0.2287 -0.2377
 5254W        W24788   7.683   1.696  14.146  0.0648 -0.4971 -0.1934
 5255W        W24789   8.716   3.819   1.869  0.0768  0.2433  0.0242
 5256W        W24790   1.503   4.940   1.295 -0.1535  0.1182 -0.0813
 5257W        W24791   2.291   7.958  13.092 -0.0429  0.1936 -0.0471
 5258W        W24792   3.973   8.263   0.539 -0.3607  0.1607  0.2006
 5259W        W24793   1.892  13.904   1.677  0.2031 -0.3931  0.0088
 5260W        W24794   0.484   9.369   3.120 -0.1468 -0.1672 -0.2122
 5261W        W24795   4.946  12.597  15.170 -0.1236 -0.0695  0.4691
 5262W        W24796  11.354   8.189  12.356  0.0180 -0.1497  0.2577
 5263W        W24797   4.748  11.831   2.099  0.0464  0.5805 -0.0227
 5264W        W24798   5.981  10.312   4.688  0.1295  0.1083 -0.2191
 5265W        W24799  12.498   3.960  11.648 -0.0972  0.0654  0.2582
 5266W        W24800   8.985   0.658  14.086  0.1252  0.1954  0.0767
 5267W        W24801   0.050   7.228   2.772  0.1175  0.3209  0.2972
 5268W        W24802   6.992  16.370  15.901 -0.1814 -0.0577 -0.0941
 5269W        W24803  11.047  13.995   5.177  0.0838  0.1140  0.0889
 5270W        W24804  15.720  17.029   4.051  0.0807  0.3393  0.2190
 5271W        W24805   7.765   0.530   2.391 -0.2823 -0.6146 -0.0064
 5272W        W24806   9.245   9.375   0.916  0.1031  0.0449 -0.4541
 5273W        W24807  13.625   3.401   0.818  0.3804 -0.2999 -0.0350
 5274W        W24808  14.679  14.143   0.313  0.0330  0.3898 -0.0053
 5275W        W24809  17.079  10.903   4.097  0.1043  0.3523 -0.0995
 5276W        W24810  16.946  10.821  12.649 -0.0046  0.0456  0.0877
 5277W        W24811  12.588   9.401  14.170 -0.1713  0.1663  0.1790
 5278W        W24812   7.826  10.142   0.184  0.1058 -0.2613 -0.0825
 5279W        W24813   0.446   7.462  13.156  0.4126  0.0850 -0.1454
 5280W        W24814   7.106  15.674   2.052  0.0423  0.1836  0.1751
 5281W        W24815  16.942  13.899  14.624  0.3034 -0.0123  0.1205
 5282W        W24816  11.122  14.717  13.705 -0.4140  0.0368  0.0080
 5283W        W24817  17.830  13.698   3.177  0.3602 -0.0973 -0.0414
 5284W        W24818   1.769   7.765  15.360 -0.0066 -0.1465  0.0414
 5285W        W24819   4.434   2.213   4.553  0.2303 -0.1218  0.1714
 5286W        W24820   1.455  13.013  13.308 -0.4262  0.0464 -0.2945
 5287W        W24821   0.256  12.547   3.386  0.0113 -0.1754 -0.3213
 5288W        W24822   7.005  15.508   1.219  0.0017 -0.2000  0.3391
 5289W        W24823   4.591  15.374  14.613  0.1876 -0.1923  0.0567
 5290W        W24824  11.023  14.764  11.929 -0.2113 -0.0099 -0.1835
 5291W        W24825  16.222  17.288  14.759  0.2303  0.0272  0.0244
 5292W        W24826  13.930   7.436   3.771  0.1014  0.1754 -0.1048
 5293W        W24827   5.050  15.232  14.461 -0.1329 -0.3115 -0.4078
 5294W        W24828   5.708  12.878  13.560 -0.2545  0.2342  0.1754
 5295W        W24829  11.100   5.898   1.292 -0.0402  0.3254 -0.0835
 5296W        W24830  17.336   0.973   3.114  0.1389 -0.0523 -0.1678
 5297W        W24831  17.037  17.876   3.315  0.1222 -0.3290 -0.2144
 5298W        W24832  12.921  17.169   2.465 -0.1133  0.5918  0.0678
 5299W        W24833   5.321  17.645   1.792 -0.0235 -0.2144  0.3048
 5300W        W24834   9.790   2.605  16.092  0.1248 -0.0721 -0.1875
 5301W        W24835  16.937  11.186  12.186 -0.3668 -0.1117  0.4238
 5302W        W24836  16.926  10.845  13.806  0.0076 -0.2918  0.1326
 5303W        W24837   8.725  17.195  14.941  0.0829  0.3503 -0.0531
 5304W        W24838  13.179   1.308  12.329  0.0155 -0.0425  0.1044
 5305W        W24839   2.800   3.567  13.868 -0.0978  0.2096 -0.0205
 5306W        W24840  17.708   5.260   1.722 -0.1569  0.1876  0.1055
 5307W        W24841  11.008   8.094   4.870  0.1119  0.3712 -0.1071
 5308W        W24842   0.586   4.488  14.563  0.1207  0.2098  0.4209
 5309W        W24843   4.164   0.308  16.001 -0.2064 -0.0365 -0.1080
 5310W        W24844   6.954  10.754  15.981  0.0688  0.0634 -0.1197
 5311W        W24845   5.539  17.059  14.876 -0.2267 -0.1733  0.1176
 5312W        W24846  15.683  14.862   3.930  0.1115 -0.0485  0.2672
 5313W        W24847  14.735  16.232   2.816  0.0737 -0.0376  0.1117
 5314W        W24848   3.090  10.030  13.238 -0.0380  0.0073  0.1552
 5315W        W24849  13.656  10.336  16.170  0.1620 -0.0871 -0.1052
 5316W        W24850   6.599  14.821   2.628  0.1109 -0.0592  0.0260
 5317W        W24851   5.271   5.250  13.541 -0.1355 -0.0906 -0.0605
 5318W        W24852   9.187   2.677  15.363  0.0029 -0.0171  0.1246
 5319W        W24853  10.431   1.942   1.596  0.1374  0.0804 -0.2343
 5320W        W24854  11.724   1.812   1.006  0.2768  0.4084  0.3167
 5321W        W24855  16.726   9.321   3.858 -0.0862 -0.1270 -0.1151
 5322W        W24856   8.346   3.980  14.593  0.0722  0.0156 -0.0372
 5323W        W24857  11.030   4.851  12.863 -0.2428  0.3459 -0.0002
 5324W        W24858  13.931   7.343  15.264 -0.1805 -0.0111 -0.0250
 5325W        W24859  14.038   4.849  15.110  0.0701  0.2577  0.1629
 5326W        W24860   7.707  12.338   4.035  0.2322  0.1157 -0.2353
 5327W        W24861  17.375   8.269   0.373  0.0625 -0.2366  0.0124
 5328W        W24862   3.237   7.278   3.984  0.1727  0.2587 -0.1625
 5329W        W24863   9.345  15.715   2.799  0.2213  0.0119  0.0226
 5330W        W24864  13.009   9.824   0.605 -0.0299 -0.2570  0.0944
 5331W        W24865   2.182  13.662  15.983  0.0813 -0.3975  0.0570
 5332W        W24866  17.516   5.408   2.570 -0.0086  0.1494 -0.0052
 5333W        W24867  15.977   3.626   2.097  0.4515  0.0942  0.3371
 5334W        W24868   7.293   1.625   3.054  0.1520  0.2662  0.1404
 5335W        W24869  10.292   3.060   4.736  0.0324  0.0263 -0.0284
 5336W        W24870   5.888  11.400   4.731 -0.0501 -0.2458 -0.0379
 5337W        W24871   0.126  15.123   4.057  0.1261 -0.2050  0.1964
 5338W        W24872  12.389   8.202  14.236  0.0459  0.1643 -0.1066
 5339W        W24873   4.517   4.902  13.438 -0.1997  0.1938  0.0714
 5340W        W24874   3.181  16.424   4.774  0.1119 -0.3752 -0.2192
 5341W        W24875   0.385  15.344  12.557 -0.1454 -0.3640 -0.1615
 5342W        W24876  17.778   7.451  16.370 -0.2553  0.1388  0.1923
 5343W        W24877  17.583   0.090  13.261 -0.5372 -0.0138  0.0793
 5344W        W24878   1.489   1.137  12.811  0.0965  0.5258 -0.1553
 5345W        W24879   0.431  10.721   3.177 -0.0107  0.0091  0.0978
 5346W        W24880   4.531   5.371   0.978 -0.2250  0.0136  0.0728
 5347W        W24881   0.228  16.221  15.553  0.2642 -0.1623  0.1817
 5348W        W24882   0.086   1.472   4.541 -0.1556  0.1918 -0.3688
 5349W        W24883  10.312   1.222  12.058  0.3140 -0.0917  0.2880
 5350W        W24884  16.259   9.521  14.662 -0.0010  0.1002  0.2034
 5351W        W24885   5.422   1.681   1.228 -0.1264  0.0979  0.1400
 5352W        W24886  14.624  11.063  14.014 -0.0012  0.0720 -0.1268
 5353W        W24887  17.672   7.085  11.852  0.2713  0.1858 -0.1493
 5354W        W24888   4.561  17.298  13.188  0.2664 -0.2871 -0.2562
 5355W        W24889   2.052  13.191   1.893 -0.1213  0.0087 -0.0468
 5356W        W24890   6.327   6.158  13.911  0.6029 -0.2110 -0.1208
 5357W        W24891  13.259  13.149   4.542  0.3347  0.3428 -0.1970
 5358W        W24892  16.642   8.439  16.141  0.2277  0.2193  0.1069
 5359W        W24893  11.139   6.713   4.616  0.1852 -0.0934  0.0684
 5360W        W24894  10.186   2.227  14.727  0.0401 -0.1101  0.2069
 5361W        W24895   1.445   0.019   2.403  0.3147  0.0278  0.1396
 5362W        W24896  14.955   3.898  14.922 -0.1909 -0.1387  0.0096
 5363W        W24897  10.025   0.929  15.460 -0.2266 -0.1154  0.1588
 5364W        W24898  10.660   2.880   1.134  0.3033 -0.3432 -0.2002
 5365W        W24899   7.803  13.736   0.661 -0.2253 -0.1130  0.0532
 5366W        W24900   4.995  17.858  15.301  0.3896 -0.1373  0.0326
 5367W        W24901  11.039  12.122   3.095 -0.2092 -0.0225  0.0364
 5368W        W24902  14.181   4.851  16.541  0.1502 -0.2134  0.0636
 5369W        W24903   9.049   7.473  13.885  0.1307  0.2118  0.1675
 5370W        W24904   9.945   7.356   1.182  0.1360 -0.0104 -0.2758
 5371W        W24905   2.991  15.110   3.910 -0.1464  0.1642  0.0362
 5372W        W24906   9.218   7.183   0.123 -0.0453  0.0224 -0.3017
 5373W        W24907   9.500  13.896  13.231  0.0830 -0.0481 -0.0467
 5374W        W24908   5.955  10.511   2.110  0.0377 -0.2940 -0.0656
 5375W        W24909  11.231   4.587  15.630 -0.1073  0.3534  0.1038
 5376W        W24910   6.463   6.634   0.803  0.1842  0.1080  0.0595
 5377W        W24911   7.333   3.068   2.998 -0.1466 -0.0425 -0.0230
 5378W        W24912   9.528   0.235   0.677  0.0480 -0.1552  0.0686
 5379W        W24913   4.684   8.273   1.494 -0.1967  0.2463 -0.2880
 5380W        W24914  17.338  14.233  13.074  0.2402 -0.2667  0.3765
 5381W        W24915  12.780   3.689  14.883 -0.0101  0.0504 -0.0470
 5382W        W24916  15.970   9.320   1.221  0.1235  0.0319 -0.1181
 5383W        W24917   6.700   8.231  16.224 -0.2713 -0.0349  0.0439
 5384W        W24918  13.835   5.075   0.567  0.2578 -0.4008  0.0486
 5385W        W24919  10.957   1.902  15.435 -0.1548 -0.4047  0.0392
 5386W        W24920   1.385  13.163  14.825 -0.0040 -0.4685  0.0958
 5387W        W24921   8.275  14.562   0.290 -0.0468  0.0755 -0.0095
 5388W        W24922   2.096   3.602   3.918  0.0897  0.0403  0.2065
 5389W        W24923   9.985   1.421  16.715 -0.2503  0.0371 -0.0950
 5390W        W24924   8.194  16.411  15.428  0.1744 -0.0087 -0.1383
 5391W        W24925   5.448  10.452   2.484  0.1400  0.1179 -0.2638
 5392W        W24926  15.380   5.635   1.298  0.3036  0.1311 -0.2057
 5393W        W24927   3.138  10.488  14.141  0.0302 -0.0114  0.0002
 5394W        W24928   5.854   0.108   3.824 -0.1717 -0.0549  0.0592
 5395W        W24929   6.542  11.855  14.410 -0.2370 -0.0325 -0.3791
 5396W        W24930   8.315  14.852   1.054 -0.0932 -0.1443  0.0676
 5397W        W24931  12.183  10.024   3.501 -0.1548  0.0009  0.0920
 5398W        W24932  17.144  11.983  14.296  0.2296  0.0222  0.2515
 5399W        W24933  11.634  11.730  14.326  0.1446 -0.4688  0.1647
 5400W        W24934  13.037   0.176   4.653  0.2093  0.0924  0.0482
 5401W        W24935  12.361  12.637   2.440  0.0815 -0.3732 -0.0022
 5402W        W24936   0.579  16.710   0.719  0.0615 -0.2616  0.1577
 5403W        W24937   2.447   5.159   2.136  0.2114  0.0152  0.1502
 5404W        W24938  15.231  12.161   2.604  0.0453 -0.2605 -0.2158
 5405W        W24939   2.693  11.455   4.764 -0.0237  0.0697 -0.1137
 5406W        W24940   6.191   4.353   3.004  0.1171  0.1364  0.1030
 5407W        W24941   5.539   1.630  15.544 -0.0750 -0.3078  0.1341
 5408W        W24942   4.626   7.746  14.078  0.2008 -0.0344 -0.0966
 5409W        W24943   2.541   6.430  15.236 -0.0395 -0.2460 -0.1466
 5410W        W24944  10.932   0.857  15.176 -0.2176  0.1118 -0.3074
 5411W        W24945   1.998   1.435  13.887 -0.0841 -0.1951  0.3232
 5412W        W24946  10.225  11.028   4.221  0.2332 -0.3701  0.0919
 5413W        W24947   4.581  16.551   0.044 -0.1413  0.1008  0.0005
 5414W        W24948  14.241  14.758   2.611  0.4308  0.0546 -0.2382
 5415W        W24949  17.726  17.739  14.576  0.0670  0.0874  0.3246
 5416W        W24950  13.531  12.590  14.554  0.0233 -0.2344  0.0216
 5417W        W24951  15.421   1.911  14.947  0.1690  0.1993  0.0037
 5418W        W24952   4.618   3.249   0.243 -0.2297  0.1462 -0.0924
 5419W        W24953   7.510   3.655   6.889  0.1282 -0.0056 -0.0380
 5420W        W24954   8.695   3.350   0.116  0.1944  0.0376  0.3339
 5421W        W24955  17.642  12.636  15.290  0.2465  0.0268 -0.0094
 5422W        W24956   8.102   9.361   3.284 -0.2456  0.2535  0.3088
 5423W        W24957  11.596  16.263  15.259  0.0609 -0.2562  0.2479
 5424W        W24958  10.236   7.208  11.560 -0.1206  0.1578 -0.0499
 5425W        W24959  12.632   2.154   1.719 -0.4338  0.1223 -0.1036
 5426W        W24960   4.458   6.072   1.925  0.3483 -0.0499  0.0105
 5427W        W24961   7.414   4.601  12.169  0.1028  0.0098  0.0640
 5428W        W24962  16.807  12.472  16.317  0.3569  0.2033 -0.3339
 5429W        W24963   8.205  16.874   2.446 -0.1923  0.1096  0.1745
 5430W        W24964  10.257  16.543  12.831  0.2669 -0.1822 -0.1734
 5431W        W24965  16.490  14.924   0.517  0.0845 -0.0441 -0.1221
 5432W        W24966  16.789   6.407   3.833 -0.2480  0.1315  0.1044
 5433W        W24967   2.418   7.963   3.141 -0.2053 -0.1912  0.0773
 5434W        W24968  17.071  17.513  11.876 -0.0981 -0.0231 -0.0084
 5435W        W24969  17.129   6.546  13.509 -0.1542 -0.1456 -0.1264
 5436W        W24970  17.341  10.796  13.038  0.1931 -0.3759 -0.2784
 5437W        W24971   2.761   7.467   0.532  0.1839  0.4997  0.2186
 5438W        W24972   1.956  11.151  15.419  0.0636  0.0189  0.0738
 5439W        W24973  10.781   6.042  14.941  0.1895  0.1483 -0.0342
 5440W        W24974   9.094  14.952  14.042 -0.0960 -0.1447 -0.3341
 5441W        W24975   8.199   5.992   3.236 -0.2392 -0.0167  0.0633
 5442W        W24976   8.390  14.533   4.669 -0.1610 -0.0996 -0.3026
 5443W        W24977   7.338  12.019  16.382 -0.1936  0.0071  0.1408
 5444W        W24978   6.505   5.072  13.007 -0.0805  0.0148 -0.1458
 5445W        W24979   2.144  13.342   3.014 -0.0396 -0.3244 -0.3170
 5446W        W24980   5.415  13.699  15.380  0.0226  0.2612  0.1876
 5447W        W24981  10.474  14.143  13.600  0.2258  0.0273 -0.2216
 5448W        W24982   5.848   3.037  14.140  0.3337  0.1878 -0.0588
 5449W        W24983   0.169   4.904   1.329 -0.0982  0.3401 -0.2572
 5450W        W24984   7.960  10.184   1.000  0.0779  0.3072  0.1398
 5451W        W24985   5.787   4.123  14.137 -0.4020  0.2545 -0.1101
 5452W        W24986  12.712   7.164  14.258 -0.1057  0.0106  0.0773
 5453W        W24987   4.110  15.253  14.862  0.1016 -0.2818 -0.0439
 5454W        W24988   5.583  11.641  16.429  0.0090 -0.0104 -0.2847
 5455W        W24989   2.693   5.983  12.265 -0.4169  0.3209  0.2455
 5456W        W24990   9.896   3.263   4.871  0.2352  0.0683  0.1886
 5457W        W24991   8.404  12.069   0.403  0.1748  0.0853  0.1346
 5458W        W24992   4.337   0.848  14.048  0.0941  0.0681  0.1510
 5459W        W24993  11.773  11.728  15.135  0.0273 -0.1092 -0.1729
 5460W        W24994   2.478   6.531   4.392 -0.1865  0.3009  0.0451
 5461W        W24995   2.895  11.316  12.508  0.1923 -0.1254 -0.1355
 5462W        W24996  17.785   9.211  14.998 -0.1623  0.2266  0.1306
 5463W        W24997   8.408   6.741   2.736 -0.3681 -0.0974 -0.1377
 5464W        W24998   3.310   4.607  16.084  0.0785 -0.0459 -0.0997
 5465W        W24999   7.640   3.532  13.624  0.1408  0.1024 -0.0982
 5466W        W25000  16.780   7.107   4.155 -0.1088  0.0303 -0.0759
 5467W        W25001   3.490  10.591   1.646  0.0793 -0.1637 -0.0128
 5468W        W25002   8.919   1.759  14.496 -0.0632  0.0760 -0.2677
 5469W        W25003   5.081  16.737  12.723  0.2073 -0.1522 -0.2862
 5470W        W25004   9.594  15.697  12.974 -0.0146 -0.2440  0.1440
 5471W        W25005   0.788  13.673   0.661  0.0319 -0.1646  0.1918
 5472W        W25006   1.625   3.888   0.746 -0.1129  0.2430  0.2347
 5473W        W25007  15.248   8.299  16.285 -0.4138 -0.1956 -0.3141
 5474W        W25008  14.596  14.373   3.487  0.0968  0.1599 -0.0854
 5475W        W25009  14.515   6.197   3.645 -0.0594  0.1347  0.1390
 5476W        W25010  12.536   2.748  12.284  0.1183 -0.4929  0.2567
 5477W        W25011  14.225  13.295   3.005 -0.1118 -0.1774 -0.1000
 5478W        W25012  16.838  17.114  13.801 -0.0421 -0.0257  0.0704
 5479W        W25013   1.030   3.614  15.436 -0.4679  0.1675  0.1105
 5480W        W25014  17.229   1.049  15.931 -0.1034 -0.1284 -0.1500
 5481W        W25015   6.884  15.135  14.678 -0.0244 -0.0117 -0.4171
 5482W        W25016  16.479  10.801   4.382 -0.2549  0.0750 -0.1716
 5483W        W25017  11.886   5.457  12.806  0.0891  0.0370  0.0072
 5484W        W25018   2.028   2.193   4.415 -0.0755 -0.1009  0.1900
 5485W        W25019  11.521  17.869   0.328  0.1297  0.3505  0.3074
 5486W        W25020   5.890   0.886   0.230 -0.0540 -0.1979  0.3844
 5487W        W25021  14.739   0.845   3.516  0.1281 -0.1601 -0.1257
 5488W        W25022   7.171  15.504  15.354 -0.0001  0.0057  0.0217
 5489W        W25023  15.102  15.022   2.935 -0.1349 -0.0010 -0.3189
 5490W        W25024   3.201   1.000   1.120  0.0104  0.1723 -0.1635
 5491W        W25025  12.289   2.952   1.486  0.1032  0.2897  0.0430
 5492W        W25026  14.546   6.152   0.069 -0.1848 -0.1186  0.1568
 5493W        W25027  15.791   9.990   3.085 -0.1687  0.0271 -0.3264
 5494W        W25028  15.225  13.408   2.741  0.0931 -0.1772  0.1610
 5495W        W25029   8.489   6.637   6.206 -0.0190 -0.4128  0.2995
 5496W        W25030  14.389   2.882   1.048 -0.4143 -0.1270  0.3444
 5497W        W25031   2.828  12.146   2.713  0.1415 -0.3146  0.0256
 5498W        W25032  16.853  12.923  16.674  0.2773 -0.1604 -0.1198
 5499W        W25033   6.547  12.098  12.066 -0.2072  0.0484 -0.0727
 5500W        W25034   0.891   2.064   3.313 -0.0644  0.2223 -0.0670
 5501W        W25035   2.786  16.264  13.698 -0.0345  0.1829 -0.3402
 5502W        W25036   5.602  14.552   0.540 -0.1009 -0.0241 -0.1482
 5503W        W25037  13.403   7.835   4.855 -0.2267 -0.0761  0.2077
 5504W        W25038   5.151  12.637  15.596 -0.1188  0.1021 -0.3009
 5505W        W25039   0.084   6.234   1.529 -0.0126 -0.2116  0.1231
 5506W        W25040   4.252  13.500   1.822  0.0337 -0.3243  0.0724
 5507W        W25041  14.923  15.091   2.349  0.0535  0.4093  0.5143
 5508W        W25042  10.414   8.349   2.421 -0.3460  0.1540 -0.0634
 5509W        W25043  12.579   9.350  12.876  0.0731  0.0074 -0.2139
 5510W        W25044   3.921  13.881   4.414  0.1510 -0.0538 -0.2063
 5511W        W25045   5.034  15.685  14.326 -0.2955 -0.1737 -0.2586
 5512W        W25046   8.270   7.343   3.891 -0.1052  0.0420 -0.3647
 5513W        W25047   0.188   2.140  16.482  0.0847 -0.1768  0.0907
 5514W        W25048  16.074  10.936  15.315  0.1698  0.1166  0.0070
 5515W        W25049   4.862   7.044  16.509 -0.0744  0.0310 -0.1357
 5516W        W25050  10.780   6.551  15.762 -0.1897  0.2743  0.2020
 5517W        W25051   7.267   3.069   5.181  0.0855  0.1076  0.0145
 5518W        W25052  15.338  12.388  15.902 -0.2559  0.0889 -0.0281
 5519W        W25053  13.102  14.821  14.163 -0.5054  0.0575 -0.0555
 5520W        W25054   6.781   5.337   0.046  0.1465  0.0039  0.0598
 5521W        W25055  11.377   4.465   0.406 -0.0181  0.1222  0.0641
 5522W        W25056  15.617   4.328  14.175 -0.0801 -0.1049  0.0296
 5523W        W25057  13.540   2.409  14.945  0.2085 -0.2443  0.2244
 5524W        W25058  12.950   8.426  15.519 -0.1291  0.0701 -0.2491
 5525W        W25059   0.393  11.044   3.628 -0.0941 -0.1715  0.1617
 5526W        W25060  17.060  16.647  16.072  0.1413 -0.0635  0.0116
 5527W        W25061  14.871   0.980  13.024 -0.2437  0.0496  0.1310
 5528W        W25062  16.905  13.757   0.321 -0.1216 -0.1057  0.1769
 5529W        W25063  11.331   7.187  14.360 -0.1166  0.4648 -0.0396
 5530W        W25064  17.029   2.769  15.488  0.2446 -0.2699 -0.0219
 5531W        W25065  13.667   0.403   4.019  0.4210  0.0356 -0.3159
 5532W        W25066  13.902  14.700  14.350 -0.0955  0.1637 -0.1456
 5533W        W25067   9.787  14.908   3.740  0.2119  0.0547  0.1078
 5534W        W25068  16.406   0.154  14.373  0.0645  0.1578  0.0370
 5535W        W25069  10.039   5.737   0.019 -0.1517  0.0794  0.1779
 5536W        W25070  15.371   2.800  13.008  0.2878 -0.0421 -0.0329
 5537W        W25071   2.433  15.459  12.813  0.1285  0.1170 -0.1561
 5538W        W25072  11.505  13.143   0.608  0.2711 -0.1405 -0.0558
 5539W        W25073   7.172   6.828  14.012  0.3334  0.0410  0.0329
 5540W        W25074   0.846  15.181   4.349  0.2033 -0.0770 -0.1407
 5541W        W25075   2.155   3.740  12.529 -0.1117 -0.3914  0.2878
 5542W        W25076   3.050   6.827  15.926  0.0711  0.1600  0.0624
 5543W        W25077   8.134   7.711   4.740 -0.0251  0.1456  0.0795
 5544W        W25078   7.409   6.380   0.864 -0.0456  0.2604 -0.0086
 5545W        W25079  15.951   6.017  12.970  0.0495  0.1481 -0.1025
 5546W        W25080  16.869   0.908  13.300  0.0479  0.0277 -0.2311
 5547W        W25081  13.230  17.483   0.701 -0.0025 -0.0161 -0.0304
 5548W        W25082   6.063  13.570   1.231 -0.2128 -0.0633  0.1274
 5549W        W25083   4.904   5.373  12.770 -0.3532 -0.0953 -0.0088
 5550W        W25084   0.034   4.711   2.381 -0.0082  0.0398 -0.0383
 5551W        W25085   4.033   8.181   3.989 -0.1874 -0.0224 -0.1935
 5552W        W25086  17.230   6.182   1.577 -0.0306 -0.6403  0.1291
 5553W        W25087  14.210   4.572   3.271  0.0701 -0.2107  0.1549
 5554W        W25088   6.072   9.422  14.039  0.2066  0.1589  0.3466
 5555W        W25089   1.181   2.507   5.695 -0.0652 -0.1788  0.0568
 5556W        W25090   8.292  16.143   3.607 -0.1997  0.1882 -0.3604
 5557W        W25091   4.285   7.051   0.921 -0.1818  0.0257 -0.0410
 5558W        W25092   5.951  12.673   0.019 -0.3743 -0.0785  0.1191
 5559W        W25093   0.214   1.017  12.141 -0.0840 -0.0522  0.4929
 5560W        W25094   7.422  16.439  14.254 -0.0054 -0.1823 -0.0805
 5561W        W25095   1.999  14.304   2.580  0.2557 -0.5123 -0.1643
 5562W        W25096   4.816   2.402   0.256 -0.3038  0.0150 -0.0174
 5563W        W25097   8.497  11.781  15.761  0.0313 -0.0215  0.1002
 5564W        W25098  16.789   6.417   1.271  0.0314  0.0345 -0.1588
 5565W        W25099  13.542   8.801  13.341  0.3452 -0.1081 -0.0201
 5566W        W25100   3.026   1.133  12.970 -0.0168 -0.1204 -0.1863
 5567W        W25101  15.036   9.368   0.658 -0.1722  0.1129  0.1123
 5568W        W25102  11.392   9.058   0.015 -0.0699  0.0784 -0.2230
 5569W        W25103  12.703  15.656   1.233  0.3990  0.2169 -0.1390
 5570W        W25104   7.496   5.019   2.576  0.3300 -0.2513 -0.1695
 5571W        W25105  11.192   9.901  16.569  0.3470  0.2097  0.1945
 5572W        W25106   8.210   3.822   3.125  0.2461 -0.0741 -0.2227
 5573W        W25107   3.664   4.040  15.043  0.1949  0.3836 -0.0275
 5574W        W25108   6.591   7.637  12.894 -0.0661 -0.0524  0.4528
 5575W        W25109  14.555  13.650   4.502  0.1831 -0.0029  0.0741
 5576W        W25110  12.966  11.682  15.414 -0.3976  0.2207  0.0433
 5577W        W25111  11.670   9.583  12.149  0.1525  0.0967 -0.2393
 5578W        W25112   2.871   4.530  12.598 -0.0600  0.0127  0.0043
 5579W        W25113  10.440   4.009  11.833  0.1885 -0.0088 -0.1912
 5580W        W25114   1.803   2.521  12.218 -0.2510 -0.0163  0.0640
 5581W        W25115  13.923   7.462  15.965 -0.1449 -0.0952 -0.0599
 5582W        W25116   1.585  14.991   4.271 -0.1870 -0.2510 -0.1961
 5583W        W25117  15.163  12.354  16.464  0.0497 -0.0566  0.0593
 5584W        W25118   3.353   8.017  11.842  0.0866  0.1678  0.0096
 5585W        W25119   3.977  11.944  15.937  0.2612 -0.1178  0.2479
 5586W        W25120  17.512   4.015   0.064  0.0793  0.0848 -0.0570
 5587W        W25121  15.720   1.476   0.480 -0.0393  0.2485  0.1075
 5588W        W25122   1.659   6.177   0.772  0.2443  0.1478 -0.1450
 5589W        W25123  11.105   3.624  12.213  0.2113  0.0352  0.1957
 5590W        W25124  14.242   9.784   3.331 -0.3200  0.2000 -0.3277
 5591W        W25125  13.277   1.193  14.216  0.1253  0.0568  0.0976
 5592W        W25126  11.706   6.285   3.371  0.1724  0.3055  0.3041
 5593W        W25127   4.668  15.654   4.397  0.0202  0.0799 -0.1706
 5594W        W25128   7.753  17.755  14.786 -0.1607  0.3047 -0.1931
 5595W        W25129  11.301  15.480  12.401 -0.2118  0.0161  0.0889
 5596W        W25130   0.666  17.761   2.784  0.1947 -0.5640  0.1926
 5597W        W25131   7.436  12.521  13.513 -0.0569 -0.1308 -0.0465
 5598W        W25132   1.210   9.130   1.311 -0.3996 -0.2813 -0.0292
 5599W        W25133   8.212  13.240   3.502  0.3573 -0.2574  0.3810
 5600W        W25134  10.163   3.293   2.680  0.1034  0.1259 -0.1052
 5601W        W25135   2.169   7.423   1.958  0.0014 -0.0032 -0.1944
 5602W        W25136  17.552  17.313  12.575 -0.1223 -0.0163  0.0124
 5603W        W25137   5.265  14.474   2.911 -0.0789 -0.1325 -0.1663
 5604W        W25138  17.608   0.882  15.160  0.0074 -0.3343 -0.1567
 5605W        W25139  14.557  12.731  16.568 -0.2104  0.0699  0.1016
 5606W        W25140   2.788   8.112  13.249 -0.0598  0.2405  0.0118
 5607W        W25141   9.110   1.795  13.530 -0.1391  0.2023 -0.1226
 5608W        W25142  14.028   0.481  13.907  0.0346  0.0234  0.0084
 5609W        W25143  16.350  13.098   3.569  0.3167  0.1203  0.0964
 5610W        W25144   6.167   0.537   5.095  0.2306  0.1721 -0.0585
 5611W        W25145  12.731  17.104  12.708 -0.2359  0.3185 -0.2407
 5612W        W25146   3.485  11.094   0.059 -0.1910 -0.1459  0.2633
 5613W        W25147   8.469  15.267   5.031 -0.1005  0.1602 -0.4136
 5614W        W25148  11.577  12.265   3.185  0.1312 -0.2493  0.0163
 5615W        W25149   1.276   7.259   3.087 -0.0119  0.3100  0.1286
 5616W        W25150   5.849   9.032   4.684 -0.1253  0.1162 -0.0072
 5617W        W25151   3.537  17.376  16.120 -0.3947 -0.1453 -0.1076
 5618W        W25152   4.475  14.586  12.655  0.1150 -0.1162 -0.3400
 5619W        W25153  16.754   6.778   2.729  0.2171 -0.2532 -0.0966
 5620W        W25154  10.914  13.834  14.594 -0.0099 -0.3195 -0.0595
 5621W        W25155   1.539  13.054  14.008 -0.1481  0.0935  0.0500
 5622W        W25156   9.567  12.004  16.662  0.0442 -0.2318 -0.1203
 5623W        W25157   7.968   4.225   3.309 -0.2619 -0.1281  0.0844
 5624W        W25158   9.787   7.309  11.807 -0.0765 -0.4913 -0.0959
 5625W        W25159  10.797   7.143   1.102 -0.5643 -0.0292  0.3619
 5626W        W25160  13.672   9.861  16.121  0.1824  0.3499 -0.0227
 5627W        W25161   5.920   6.320   1.652 -0.1351 -0.2556  0.0208
 5628W        W25162  13.434   6.326  12.098  0.2862  0.0039  0.1763
 5629W        W25163  15.832   2.755   4.189 -0.0657 -0.2739  0.1647
 5630W        W25164  16.848   7.451   3.512 -0.2656 -0.1079  0.1199
 5631W        W25165   1.729   2.371  13.866  0.3839  0.0678 -0.3124
 5632W        W25166  17.566   2.371   2.703  0.0180  0.1954  0.0328
 5633W        W25167   8.472  10.843  15.040  0.1216  0.0790  0.0675
 5634W        W25168   7.434  10.272   4.354  0.2632 -0.0520  0.1789
 5635W        W25169  12.658   0.543   1.024  0.1997  0.2071 -0.2594
 5636W        W25170  12.888   8.809   2.496 -0.3418  0.0501  0.0131
 5637W        W25171  15.978  10.787  13.913  0.2043 -0.1680  0.0845
 5638W        W25172  10.378   7.689  14.032 -0.0096 -0.3334  0.1809
 5639W        W25173  15.585  10.752   1.187  0.2414 -0.1241  0.0659
 5640W        W25174  13.792  14.262   0.699  0.1236 -0.0837  0.1788
 5641W        W25175  11.654  17.361   2.925 -0.2112  0.2171 -0.1104
 5642W        W25176   7.890   0.579   3.435  0.2345  0.1873  0.0875
 5643W        W25177  12.997  11.745   1.494 -0.3921 -0.7422 -0.2020
 5644W        W25178   8.644   4.418   2.136 -0.0813  0.3724 -0.0669
 5645W        W25179   6.206   4.076  12.740 -0.0151  0.0655  0.2980
 5646W        W25180  14.090  12.430  13.898 -0.3900  0.0958 -0.2491
 5647W        W25181  11.404  12.290  15.450 -0.0591  0.0807 -0.1847
 5648W        W25182  14.575   4.567   0.971 -0.0540  0.1004  0.5216
 5649W        W25183  16.869  11.975  14.721  0.0025 -0.0630  0.0476
 5650W        W25184  10.097   0.872   0.873 -0.1457  0.0215  0.0704
 5651W        W25185   2.704   6.366  16.259  0.1519  0.1121 -0.1526
 5652W        W25186  15.633   3.089  12.660 -0.1930 -0.0363  0.1517
 5653W        W25187  11.403   2.872  14.332 -0.2998  0.3036 -0.2792
 5654W        W25188   3.327   8.732  14.800 -0.1819  0.2432 -0.1060
 5655W        W25189   3.165  15.027   1.016 -0.1213 -0.0105  0.2879
 5656W        W25190   2.851  12.854  13.068 -0.0745  0.1829 -0.1407
 5657W        W25191   1.023  15.131  15.769  0.0626  0.3912  0.1650
 5658W        W25192  10.871  14.440  12.250  0.2983  0.0155  0.3104
 5659W        W25193   1.416  15.168  13.476  0.0400 -0.0854  0.0417
 5660W        W25194  11.207   6.653   2.919 -0.1251 -0.0883  0.0340
 5661W        W25195   8.174  15.250   4.102 -0.0896  0.1016 -0.1700
 5662W        W25196   3.428   2.267  15.210  0.0141  0.1049  0.2512
 5663W        W25197   3.636   2.657  14.904  0.1814 -0.1343 -0.0490
 5664W        W25198  15.194   3.733  16.294 -0.0374 -0.0401 -0.3030
 5665W        W25199   8.873   8.278   3.774 -0.0985 -0.0949  0.2282
 5666W        W25200   1.281   6.748  13.320 -0.0540  0.1004 -0.0838
 5667W        W25201  11.749   9.758  14.002  0.1226  0.0558 -0.0009
 5668W        W25202   3.873   0.957  16.715  0.0458  0.2585  0.2227
 5669W        W25203   4.432   1.953   2.046 -0.0951 -0.1713  0.0163
 5670W        W25204   1.131   6.803  15.369  0.0394  0.3809 -0.2241
 5671W        W25205   2.055  12.924  15.536 -0.2246 -0.0385  0.4191
 5672W        W25206   3.790  13.588   2.609  0.2355  0.0776 -0.2580
 5673W        W25207  15.765  16.359   3.952 -0.0987  0.1401  0.0509
 5674W        W25208   5.352   2.252   3.522  0.1641  0.2532  0.1614
 5675W        W25209  16.598  11.998   2.996  0.0249  0.2765 -0.2545
 5676W        W25210  14.036  15.941  16.698  0.0690 -0.1936 -0.1612
 5677W        W25211   9.010   0.686  13.521 -0.0372 -0.0628 -0.1836
 5678W        W25212   7.818   9.257  12.414 -0.1935 -0.1074 -0.1525
 5679W        W25213  11.752  16.246  12.080  0.1401  0.1450  0.1105
 5680W        W25214   1.224   4.901  13.620 -0.1951 -0.1598 -0.1533
 5681W        W25215   0.409   9.185   1.016 -0.3909 -0.2024  0.0460
 5682W        W25216   8.577  14.031  13.769 -0.0294  0.0181  0.0986
 5683W        W25217  14.136   8.615   4.080  0.0161  0.1952 -0.0388
 5684W        W25218   6.675   7.416  11.764  0.0063 -0.0920 -0.2923
 5685W        W25219   8.517   5.059  13.765 -0.3399 -0.0062 -0.1461
 5686W        W25220  13.931  17.451   3.622 -0.1435 -0.1581  0.1139
 5687W        W25221   3.283  13.741   4.868 -0.1303  0.1877  0.0596
 5688W        W25222  11.263  13.102  12.186  0.2284 -0.3324  0.0071
 5689W        W25223   9.452  10.767   2.843  0.0801 -0.0721 -0.1007
 5690W        W25224  13.874  11.886   2.503 -0.3401  0.2951 -0.3163
 5691W        W25225  16.424   5.539  13.441  0.0817  0.0287 -0.2631
 5692W        W25226   5.332  16.670   4.740 -0.3345 -0.0461  0.1015
 5693W        W25227   0.130  14.064  14.661 -0.2988 -0.1009 -0.0562
 5694W        W25228   9.696   4.250  14.271  0.2542 -0.1160 -0.2433
 5695W        W25229  11.408   9.850  12.906  0.0806 -0.0273 -0.1781
 5696W        W25230   1.118   0.227   0.652  0.0383 -0.1687  0.0564
 5697W        W25231  13.186   2.522  15.230 -0.0090  0.0461 -0.0515
 5698W        W25232   7.070   2.924  13.474  0.0492  0.1733 -0.1258
 5699W        W25233  11.751   9.136  13.865  0.1130 -0.2768  0.0441
 5700W        W25234  11.540   0.994   4.042 -0.1628 -0.3762 -0.0515
 5701W        W25235   1.541   1.972   2.667 -0.1975  0.0092 -0.0525
 5702W        W25236   4.918   4.588   3.065  0.3402 -0.0309  0.0286
 5703W        W25237  12.648   3.871   2.408  0.3053 -0.3976  0.1787
 5704W        W25238  11.173  17.073  16.082 -0.1732  0.1232 -0.1720
 5705W        W25239   9.792  10.421   0.538  0.1403  0.1239 -0.1696
 5706W        W25240   7.099   9.987  14.317  0.0371 -0.0951  0.2485
 5707W        W25241  14.487   4.046  15.457  0.0236 -0.0521 -0.3444
 5708W        W25242  10.737   6.668   3.167  0.1022 -0.0511  0.0111
 5709W        W25243  10.419   2.927  12.990  0.0456  0.1062 -0.2598
 5710W        W25244   4.944  16.364   2.136  0.2447 -0.0714 -0.1376
 5711W        W25245  13.629   9.326  12.349  0.1808 -0.1639  0.0020
 5712W        W25246   7.166   4.974   4.571 -0.1583  0.2296  0.0776
 5713W        W25247   7.601  14.955   4.858  0.0995 -0.1098 -0.1633
 5714W        W25248  10.115   5.491  10.451  0.1126  0.1212  0.0030
 5715W        W25249   2.330   8.371  12.830  0.1534  0.2203  0.0496
 5716W        W25250  10.359  11.327   1.960  0.0592  0.0410 -0.3448
 5717W        W25251   2.387   4.305   0.427 -0.3386  0.2677 -0.0927
 5718W        W25252   6.742   3.409   1.692  0.0378  0.0125  0.2801
 5719W        W25253   8.363   7.680  15.997  0.2644 -0.0176  0.1928
 5720W        W25254  17.600  12.198  13.648 -0.2102 -0.1972  0.1815
 5721W        W25255   5.822  11.494   1.132 -0.0803  0.0645  0.0436
 5722W        W25256  17.019  13.169   2.941 -0.0868  0.0814  0.0170
 5723W        W25257   4.442  15.236   4.352  0.1219  0.3358 -0.0854
 5724W        W25258  12.013  10.934  16.682  0.0234 -0.2250  0.2190
 5725W        W25259  11.939   6.925   1.833  0.1380  0.1359  0.0317
 5726W        W25260  14.700   2.876  12.273 -0.0481 -0.0366 -0.4002
 5727W        W25261   4.787  17.259  14.244  0.4897 -0.2075 -0.1614
 5728W        W25262   3.927  11.165  15.757 -0.1359  0.1461  0.0625
 5729W        W25263  11.481  16.317   2.893 -0.1114 -0.3201 -0.0292
 5730W        W25264  17.887   4.277  14.414  0.0376  0.2816 -0.0181
 5731W        W25265   8.614   5.341   2.767  0.0244  0.1628 -0.5303
 5732W        W25266   1.361  15.341   2.569 -0.0910 -0.1009 -0.0857
 5733W        W25267   7.850   6.997   3.783  0.1362 -0.1440 -0.3235
 5734W        W25268   0.069  15.433   2.371 -0.2059  0.3253  0.2407
 5735W        W25269  13.133   6.811   2.490  0.1318 -0.1533 -0.0680
 5736W        W25270   8.192  14.118   2.667  0.1958 -0.1282  0.2928
 5737W        W25271  17.321   5.059  13.489 -0.0657  0.3664 -0.0536
 5738W        W25272  16.834  12.938   3.762  0.0590  0.2688  0.3686
 5739W        W25273  10.522   2.501  13.277  0.0358  0.1387  0.0465
 5740W        W25274  11.100   6.326   3.246 -0.2085 -0.0030  0.0851
 5741W        W25275  14.008  15.197   4.511 -0.0418  0.2413  0.0887
 5742W        W25276  10.399  12.062  13.129  0.1734  0.0468  0.2358
 5743W        W25277  16.527   3.470  15.359  0.2303  0.1918  0.1225
 5744W        W25278  17.158  14.500   3.118  0.2811  0.0271  0.1313
 5745W        W25279  15.518   8.070  13.647  0.0463 -0.3755 -0.1682
 5746W        W25280  13.610   4.642   4.161  0.2225 -0.2851  0.3127
 5747W        W25281  11.522  11.511  14.725 -0.2034  0.2232 -0.0013
 5748W        W25282   3.706   8.717  13.096 -0.2716 -0.1963  0.2975
 5749W        W25283   2.271   0.058   2.590 -0.2243 -0.0382  0.1522
 5750W        W25284   7.827   2.089   3.986 -0.1317 -0.0793 -0.2730
 5751W        W25285  11.300   6.328  16.496  0.1519  0.0286  0.3045
 5752W        W25286   5.253   2.570  16.663 -0.0412 -0.0863  0.2764
 5753W        W25287  16.202   6.408   0.797 -0.1523 -0.1123  0.0315
 5754W        W25288   8.364   7.539   0.681 -0.0455 -0.1451 -0.3051
 5755W        W25289  13.836   3.740  16.078  0.0225 -0.1681 -0.1672
 5756W        W25290   2.758  12.039   3.568 -0.0063 -0.2713 -0.2245
 5757W        W25291   2.321  15.159  14.846  0.2594  0.1378  0.1544
 5758W        W25292   3.042  10.708   5.541  0.1327  0.1580  0.1614
 5759W        W25293   6.612  12.362  14.453  0.1213 -0.0211 -0.0247
 5760W        W25294   1.776  11.369   4.025 -0.1855  0.2785  0.1496
 5761W        W25295  16.129   6.889  13.183 -0.1030 -0.1607  0.1369
 5762W        W25296   0.571  16.231  13.972 -0.0140  0.0886 -0.2268
 5763W        W25297   4.740  12.071   3.090  0.2221  0.0729  0.2533
 5764W        W25298  10.133  13.343   4.890  0.3228  0.3796  0.0992
 5765W        W25299  10.614   5.726   1.274 -0.0972  0.0750  0.0600
 5766W        W25300  10.031  12.434   3.919  0.1906 -0.0186  0.2137
 5767W        W25301   5.831   9.730  14.316  0.0004  0.0256  0.1036
 5768W        W25302  17.431   8.678  14.060  0.0358 -0.0274 -0.2592
 5769W        W25303   4.109  15.589  15.530 -0.2576  0.1847 -0.0155
 5770W        W25304  11.246   4.076  13.451  0.2157 -0.1932  0.0909
 5771W        W25305   8.878  14.394  13.964 -0.0395  0.0500  0.1858
 5772W        W25306   5.799   8.212  14.611  0.1976 -0.2137 -0.2203
 5773W        W25307   9.955  13.574  14.154 -0.0206 -0.1119 -0.3285
 5774W        W25308   0.820   4.536   2.051 -0.2635 -0.3920  0.0836
 5775W        W25309  14.754   0.798   2.724 -0.0642 -0.0674  0.1916
 5776W        W25310   6.463   3.580   5.396  0.2938  0.2111 -0.2575
 5777W        W25311  15.234  13.377  15.534  0.2827 -0.1003 -0.0463
 5778W        W25312  14.820   8.977   0.929 -0.1222  0.0063  0.1399
 5779W        W25313   5.857  12.679   2.609 -0.1287  0.1615  0.0402
 5780W        W25314   4.579  10.643   1.561 -0.3750  0.1311  0.0950
 5781W        W25315   7.875   1.928  14.895 -0.1368 -0.0697 -0.2256
 5782W        W25316  11.734   7.879  13.208  0.0653 -0.2010  0.0814
 5783W        W25317  13.766  10.560  14.524 -0.0613 -0.2680  0.1925
 5784W        W25318  12.081   6.005  16.349 -0.1253 -0.3591 -0.0323
 5785W        W25319   3.846   8.221  15.611 -0.0092  0.0240 -0.0490
 5786W        W25320  15.727  16.410  14.706  0.0064  0.1971 -0.0220
 5787W        W25321   6.187   7.984   4.848 -0.0475 -0.1997 -0.0371
 5788W        W25322   9.430   8.384   0.993  0.0656  0.0817 -0.1003
 5789W        W25323   6.353  12.121  14.823  0.3432 -0.0983 -0.2926
 5790W        W25324   4.096  14.824  16.254  0.2220  0.0636  0.2654
 5791W        W25325  15.111  17.805   3.134  0.2544 -0.0214  0.1755
 5792W        W25326   9.981  11.312  13.352 -0.0984 -0.2209  0.1207
 5793W        W25327  15.985   0.375   3.957 -0.2037 -0.0275  0.3088
 5794W        W25328   4.273  16.535  13.941  0.0220 -0.3379  0.0153
 5795W        W25329   6.128   7.372  14.463 -0.1480 -0.2537  0.1996
 5796W        W25330  13.774   5.245   3.530 -0.2435  0.0097  0.1159
 5797W        W25331   1.238  12.641   1.703 -0.0819  0.1816  0.0240
 5798W        W25332  13.106  13.649   2.012 -0.1149 -0.1029 -0.1141
 5799W        W25333  17.035  10.784   0.554  0.2086  0.0482 -0.1638
 5800W        W25334   5.508   8.431  16.739  0.1664  0.0294  0.3087
 5801W        W25335   6.775   8.841   2.530  0.3195  0.0861  0.0995
 5802W        W25336   9.137  17.165  13.448 -0.1033  0.0768 -0.0272
 5803W        W25337   4.136  16.350  13.444 -0.2317  0.3209  0.1203
 5804W        W25338   5.519   9.486  14.011 -0.0013 -0.1181  0.0689
 5805W        W25339  10.639   1.146  14.467  0.2074  0.1573  0.0355
 5806W        W25340  15.000  17.085   5.537  0.1051 -0.0006 -0.0267
 5807W        W25341   5.375  16.759   4.101  0.2793  0.1030 -0.1522
 5808W        W25342   7.168   9.973   3.962 -0.0915  0.1920  0.2611
 5809W        W25343  13.081   7.136   0.806 -0.5312  0.3357  0.1668
 5810W        W25344   6.412   7.174  12.594 -0.1063 -0.1562  0.1257
 5811W        W25345  17.331   8.298  16.192 -0.0523  0.0272 -0.0481
 5812W        W25346  15.398  11.077   4.658  0.2632  0.0069  0.1560
 5813W        W25347  11.807   9.782   5.169  0.1541  0.5395 -0.1673
 5814W        W25348   2.711   2.026   3.649 -0.0274  0.2088  0.1819
 5815W        W25349   7.898  11.117  13.077 -0.0135  0.0963 -0.1121
 5816W        W25350   9.238  13.263   0.477  0.1282  0.1090 -0.2656
 5817W        W25351   6.728  10.221   3.956  0.1583  0.0112 -0.1361
 5818W        W25352   1.322   1.371  12.319  0.1774 -0.2513  0.1138
 5819W        W25353   7.123   3.717  11.423  0.0734 -0.1780 -0.1461
 5820W        W25354  14.419  16.375   4.372  0.3186  0.2035 -0.1238
 5821W        W25355  13.668   6.118  13.079 -0.2843  0.1475 -0.0619
 5822W        W25356  17.544   3.556  15.344 -0.1480 -0.3304  0.3417
 5823W        W25357   8.886  10.233  13.872 -0.0561 -0.1284 -0.2585
 5824W        W25358  16.225   6.211   0.293  0.0157 -0.2542 -0.1457
 5825W        W25359   3.947   2.577   0.381 -0.0693  0.0032  0.0378
 5826W        W25360   0.105  10.337  15.279  0.0730 -0.0497 -0.2079
 5827W        W25361  17.134   7.282  12.436  0.0804  0.0873  0.3046
 5828W        W25362   2.649  14.307   3.792  0.1281  0.1733  0.1038
 5829W        W25363  17.546  12.248   3.867  0.0818 -0.2020 -0.2133
 5830W        W25364  12.724   6.840   2.168 -0.0708 -0.0818 -0.0906
 5831W        W25365   4.146   7.831  13.932  0.0401 -0.2099  0.1649
 5832W        W25366  15.939   8.934  16.693 -0.1203  0.1238 -0.3420
 5833W        W25367  10.576   8.195   4.780 -0.1758  0.2911 -0.0468
 5834W        W25368   8.601   4.700  15.697 -0.0591  0.1286 -0.0458
 5835W        W25369  17.888  11.981   4.853 -0.0789 -0.1448  0.0066
 5836W        W25370  10.388  10.971   1.147  0.3202 -0.1230  0.1862
 5837W        W25371   2.846  14.288  15.700  0.0075  0.3744  0.0852
 5838W        W25372   0.937   0.006  16.454  0.0904  0.0051 -0.1078
 5839W        W25373  10.947   7.664   3.324 -0.0102 -0.0743  0.0183
 5840W        W25374  17.015  13.287   1.923  0.1986 -0.0384  0.0385
 5841W        W25375  16.884   4.960   0.204  0.0806 -0.1012 -0.5483
 5842W        W25376  11.772   2.846   4.162  0.1645  0.1089  0.1466
 5843W        W25377   5.007   2.351   3.846  0.0260 -0.2632  0.2085
 5844W        W25378   1.746   7.609   1.789  0.0079 -0.1117  0.2289
 5845W        W25379   1.728   9.802  14.843 -0.2255  0.0343 -0.2275
 5846W        W25380  10.340   9.037   0.100 -0.0477  0.0128  0.0408
 5847W        W25381   5.772  11.145  11.997 -0.0511  0.2435 -0.2543
 5848W        W25382   5.821   9.971  16.623 -0.1984 -0.2034 -0.1797
 5849W        W25383  10.575  15.177   1.776  0.0261  0.1253 -0.1199
 5850W        W25384  12.511   6.390   1.367  0.0606  0.2905  0.1460
 5851W        W25385  12.431  16.677   2.981 -0.0756  0.0521 -0.0200
 5852W        W25386  13.283   7.433  12.051 -0.1432  0.1574 -0.1284
 5853W        W25387   4.795   4.061   4.044 -0.1472 -0.1295  0.3204
 5854W        W25388  14.293   7.432  15.656  0.2423 -0.0364  0.2756
 5855W        W25389   5.285  12.036   3.202 -0.1598 -0.1457 -0.0111
 5856W        W25390   4.630  13.180   0.878 -0.2091 -0.0771  0.2413
 5857W        W25391   7.191   7.499  15.299 -0.1438  0.0011  0.1287
 5858W        W25392  16.009  15.630   4.552  0.1948  0.1339 -0.1573
 5859W        W25393   8.138   8.476   0.419 -0.0336  0.1265  0.1722
 5860W        W25394  14.443   3.936   3.636  0.2322 -0.1058 -0.0421
 5861W        W25395  12.296  15.871  14.196 -0.1278  0.1083 -0.0394
 5862W        W25396  13.693   6.825   2.218 -0.0520 -0.1957  0.1725
 5863W        W25397   0.078  15.004   0.036 -0.1631  0.2036 -0.1531
 5864W        W25398  13.176   5.395   5.595  0.1315  0.0654  0.2323
 5865W        W25399   8.765   1.024   1.545  0.1145 -0.1455 -0.1364
 5866W        W25400   7.790   6.929   6.158 -0.0166 -0.1043 -0.1385
 5867W        W25401   1.634   2.892  13.921 -0.1330 -0.1236  0.1639
 5868W        W25402   5.742   1.099   5.527 -0.1961  0.1560 -0.3022
 5869W        W25403  10.445  10.228  15.118  0.0812  0.0380  0.0564
 5870W        W25404  11.148  11.160   0.960 -0.0956 -0.0915 -0.0563
 5871W        W25405   1.372  16.455   0.541  0.2329  0.2165 -0.0219
 5872W        W25406   2.460   3.805  12.085  0.0060  0.2359 -0.3866
 5873W        W25407   3.710   5.770   1.996 -0.2358 -0.1291 -0.0197
 5874W        W25408  14.847  14.524  15.575  0.0445  0.1217 -0.0204
 5875W        W25409   2.535  10.899  13.348  0.1472 -0.2783 -0.0717
 5876W        W25410   0.419  11.276   1.445 -0.1505  0.0432 -0.1786
 5877W        W25411   4.745  13.122   5.207  0.0451  0.2230  0.2361
 5878W        W25412  17.631   2.714  15.067  0.1351  0.2728 -0.2492
 5879W        W25413  14.468  15.785  16.505  0.0660  0.2168 -0.0102
 5880W        W25414  12.992  12.729   4.687 -0.0479 -0.1186  0.1909
 5881W        W25415  16.590   8.921  16.363 -0.1424  0.1045  0.2917
 5882W        W25416   0.913  15.348   2.091  0.1193 -0.1119 -0.0833
 5883W        W25417  13.087  17.640  13.611  0.2381  0.0741  0.0369
 5884W        W25418   0.178   9.503   0.630  0.1474 -0.1644  0.3096
 5885W        W25419  17.858  10.754   0.513  0.0384 -0.3020  0.2385
 5886W        W25420   9.437   5.706   2.647 -0.0559  0.0093 -0.1349
 5887W        W25421   7.729   3.258   3.918  0.0184  0.3297  0.1364
 5888W        W25422  12.551  12.612  14.556  0.0756  0.1400 -0.1337
 5889W        W25423   1.432  11.552  16.408  0.1019  0.1164 -0.2506
 5890W        W25424   3.565  12.609  16.678  0.0904  0.0205  0.0587
 5891W        W25425  17.806   2.845   1.819 -0.0182 -0.0274  0.1163
 5892W        W25426   3.800   8.127   2.491 -0.1200 -0.1074 -0.0907
 5893W        W25427   8.723  12.782  12.083  0.0502 -0.1249  0.3025
 5894W        W25428   7.851  15.469   0.639 -0.0845  0.0983 -0.0848
 5895W        W25429   5.040  12.648   3.285 -0.0252  0.3243  0.1349
 5896W        W25430  17.048  10.951  16.200 -0.2306  0.1826  0.1165
 5897W        W25431   6.622   8.046  14.103  0.2908  0.0530  0.0966
 5898W        W25432  15.951  14.603   4.660 -0.0422  0.2329 -0.2156
 5899W        W25433   0.771   5.195   2.537 -0.3323  0.0807 -0.0676
 5900W        W25434   8.319   7.638   2.297 -0.1373  0.1835  0.0360
 5901W        W25435   1.605  10.052  16.179  0.0344  0.1691 -0.2565
 5902W        W25436  12.211   8.259   1.070  0.1605 -0.0403 -0.0860
 5903W        W25437   9.376   3.546  15.756  0.1130 -0.2060 -0.1200
 5904W        W25438  15.923   7.933   0.989 -0.0950 -0.0931  0.2514
 5905W        W25439   9.886   4.045   2.686  0.1346  0.0080 -0.0542
 5906W        W25440  13.970  17.365   2.249 -0.1477 -0.1990  0.0267
 5907W        W25441   7.857   7.305  16.267 -0.0331  0.0847 -0.1645
 5908W        W25442   0.706   9.157   1.398 -0.0891  0.3180  0.1009
 5909W        W25443   7.332   1.287   2.667 -0.4464 -0.0148 -0.1784
 5910W        W25444   8.708  12.191   2.066  0.1646 -0.0556  0.1608
 5911W        W25445   6.183   4.778  15.474 -0.2742 -0.1335 -0.1551
 5912W        W25446  12.398   8.787   2.638 -0.0781 -0.2095  0.2270
 5913W        W25447   5.496   3.883  16.344  0.0248 -0.0536  0.1025
 5914W        W25448   4.221   7.150   2.385  0.0257  0.1980 -0.0477
 5915W        W25449  12.199  10.520  12.296  0.0848  0.1241 -0.1336
 5916W        W25450  13.743   3.396  12.026  0.0930 -0.2025  0.0080
 5917W        W25451  10.366   9.723   1.505  0.0161  0.3644 -0.0124
 5918W        W25452   6.265   8.153  13.335 -0.1338 -0.1761  0.2546
 5919W        W25453  16.036   0.230   1.430  0.0379 -0.0924 -0.0604
 5920W        W25454  11.063  12.284  15.045  0.0811 -0.2364 -0.0216
 5921W        W25455  16.099   1.479  11.210  0.0670  0.4499 -0.1109
 5922W        W25456  16.331  12.843  13.845  0.0744  0.0839  0.0649
 5923W        W25457   8.695  15.222  14.258  0.0765 -0.1820 -0.1159
 5924W        W25458   2.781   9.689  12.945 -0.0206 -0.0196 -0.0291
 5925W        W25459  13.637  11.337   4.001  0.0522  0.0828  0.2795
 5926W        W25460  13.607   9.764   0.755  0.1530  0.1003 -0.0442
 5927W        W25461   9.691   9.352   0.683  0.0660  0.0064 -0.1683
 5928W        W25462  17.214  16.152  14.347  0.0050 -0.2244 -0.2868
 5929W        W25463  12.830   6.904  11.632 -0.0572  0.2550 -0.0320
 5930W        W25464  14.455   0.770  11.916 -0.1653  0.1505  0.0696
 5931W        W25465   0.558   8.790  13.969  0.0994 -0.1376  0.0771
 5932W        W25466   4.676   2.774   1.088  0.1767 -0.3631  0.1698
 5933W        W25467  14.681   8.876   1.381  0.0234 -0.1885  0.1395
 5934W        W25468   8.285   5.259   0.067 -0.1739 -0.0988  0.1103
 5935W        W25469   3.643   1.148   0.796  0.1249 -0.1411 -0.1818
 5936W        W25470   5.785  16.491   1.506 -0.1747 -0.0679 -0.0165
 5937W        W25471  12.775   0.824   4.578  0.1235  0.0500  0.0866
 5938W        W25472  14.670  11.050   1.042  0.0254 -0.1547 -0.1384
 5939W        W25473   0.191  16.997  11.002  0.5318 -0.3203  0.1710
 5940W        W25474  11.958   7.283   1.258  0.0447  0.1509 -0.0751
 5941W        W25475   5.449   2.464  12.592 -0.0229 -0.2804  0.1780
 5942W        W25476  10.417   5.309  12.400  0.0109 -0.0310 -0.2278
 5943W        W25477   7.754  12.470   2.242 -0.0162  0.0254 -0.2834
 5944W        W25478  12.579   2.618  12.764 -0.0396  0.1557 -0.0430
 5945W        W25479  11.810  17.634  14.252 -0.0899 -0.1292 -0.1675
 5946W        W25480  11.657   3.795  15.563 -0.0326  0.1485  0.2090
 5947W        W25481  14.740  13.246  16.546  0.1273 -0.2099 -0.1620
 5948W        W25482  17.834  17.122  11.437 -0.0625  0.1279 -0.1041
 5949W        W25483   0.567  15.189   1.225 -0.2617  0.0058 -0.0867
 5950W        W25484   5.042  12.657  12.475 -0.2028 -0.0483 -0.2887
 5951W        W25485  16.552  12.795  11.934 -0.3080  0.0410  0.0923
 5952W        W25486   1.190   3.100  14.834  0.4546  0.0105  0.1881
 5953W        W25487  11.963  14.380  13.059  0.2248 -0.1668  0.0895
 5954W        W25488   4.784   7.100  13.394 -0.1777  0.3180  0.1433
 5955W        W25489   6.516  10.240   4.667 -0.1685  0.0823 -0.0098
 5956W        W25490   6.408   9.290   2.588 -0.2826  0.1689  0.0272
 5957W        W25491   8.514   8.393  16.411  0.0821  0.0216  0.1962
 5958W        W25492   9.491   9.540  14.266 -0.0230  0.0878  0.1639
 5959W        W25493  11.188  15.926  10.768  0.1522 -0.2528 -0.2147
 5960W        W25494   9.406  16.014  15.950 -0.1878  0.0115  0.5453
 5961W        W25495  12.644   7.884   4.448  0.2217  0.2535 -0.0202
 5962W        W25496  17.695   6.014  11.878 -0.4154 -0.1483 -0.1522
 5963W        W25497   2.884   3.427   0.069  0.2238  0.1085 -0.0998
 5964W        W25498   5.438   2.506  11.123  0.0646  0.0349 -0.0689
 5965W        W25499   5.596   5.660   1.218 -0.0017 -0.3041  0.0355
 5966W        W25500  15.973  13.216   2.275  0.0705 -0.1801 -0.2587
 5967W        W25501   1.578   2.436   4.493 -0.0210 -0.2072 -0.1012
 5968W        W25502   3.579   5.722  13.963 -0.2250 -0.1148 -0.2490
 5969W        W25503  10.493  12.361  14.965 -0.0643 -0.4127 -0.1166
 5970W        W25504  17.749  10.010   2.041 -0.2083 -0.0354  0.2507
 5971W        W25505  15.239  12.295  13.671  0.1256 -0.0769  0.1741
 5972W        W25506   6.903  13.008   4.444  0.0263 -0.3735 -0.3568
 5973W        W25507   1.454  14.587   1.943 -0.1300 -0.1609  0.1005
 5974W        W25508   0.897   0.684   4.063 -0.0937  0.0787 -0.0068
 5975W        W25509   0.456   9.288   1.823 -0.3234  0.1139 -0.1081
 5976W        W25510   5.542   9.604   0.209  0.2197 -0.2697 -0.0513
 5977W        W25511  14.731  12.921   2.106  0.1596  0.1254 -0.2754
 5978W        W25512   3.463  12.249  12.798 -0.0801  0.2677 -0.2625
 5979W        W25513   5.950  14.303   2.361 -0.2824  0.0403  0.1553
 5980W        W25514   8.519   2.095  16.540  0.0536 -0.0764 -0.0319
 5981W        W25515   6.550   5.819   5.549 -0.1092 -0.0248  0.1474
 5982W        W25516  10.759  17.849  15.950 -0.1612  0.1377  0.3165
 5983W        W25517  11.224   4.594  16.128  0.2460 -0.4186  0.2572
 5984W        W25518   4.111   1.290   5.040 -0.0250  0.0364  0.1207
 5985W        W25519   5.172  16.686  14.867  0.1231 -0.2462 -0.2124
 5986W        W25520  16.259   7.985  14.870 -0.0077 -0.1794 -0.0408
 5987W        W25521  16.664  10.028  13.560  0.0019  0.0396  0.0975
 5988W        W25522   3.798   1.608   4.708  0.1403  0.0795  0.1370
 5989W        W25523  11.446  15.092   1.943 -0.2713 -0.1248  0.0305
 5990W        W25524   4.820   1.124   3.920  0.3009  0.4191  0.4136
 5991W        W25525   6.006   6.555   2.868  0.1670 -0.1752 -0.0973
 5992W        W25526  13.618   1.306  13.030 -0.2551  0.0312  0.0661
 5993W        W25527   9.531   5.752   0.198 -0.2005  0.1217  0.3520
 5994W        W25528   8.077   3.840  12.493 -0.6002 -0.2554 -0.3677
 5995W        W25529   8.602  17.874   3.080 -0.2240 -0.0042  0.2517
 5996W        W25530   2.691  17.565  13.910 -0.3857  0.3715  0.1263
 5997W        W25531  12.555   5.280  15.679  0.1396  0.0868  0.0444
 5998W        W25532  10.154   4.283   5.138 -0.1984 -0.0991 -0.0169
 5999W        W25533   2.746  13.530   0.903  0.0435  0.2839  0.1234
 6000W        W25534   7.642  10.380   1.770 -0.0112  0.0425 -0.1282
 6001W        W25535   0.940  11.544   2.781 -0.0455  0.0322 -0.0186
 6002W        W25536   5.667   0.009  11.859 -0.1169  0.1235 -0.2471
 6003W        W25537   7.478   1.944   5.284  0.0888  0.0147  0.0430
 6004W        W25538   5.002   7.268   0.205 -0.2141  0.1477  0.1214
 6005W        W25539   9.774  15.537   2.996 -0.1511  0.1093  0.0432
 6006W        W25540  13.098   0.513   4.241  0.2553 -0.0330  0.1027
 6007W        W25541  12.252   2.742  15.343  0.0638 -0.0873 -0.1110
 6008W        W25542   8.420  13.668   3.305 -0.0779  0.0744 -0.4393
 6009W        W25543  10.558   7.147   3.080 -0.1714 -0.1116 -0.1405
 6010W        W25544   3.935  14.890   3.138 -0.0349  0.2608 -0.0228
 6011W        W25545  14.168  15.802   0.889  0.3148 -0.0017 -0.1858
 6012W        W25546  11.364   2.816  15.707  0.0579  0.0053 -0.1337
 6013W        W25547   3.087   4.797   0.062 -0.1792 -0.0381 -0.1851
 6014W        W25548   4.901   3.432   2.304 -0.1244  0.0399  0.0362
 6015W        W25549  10.528   8.142  12.872 -0.0972 -0.4569  0.0383
 6016W        W25550  15.684  15.225  16.531 -0.2302 -0.0769 -0.0550
 6017W        W25551   1.572  11.799   0.974  0.2071 -0.0106  0.2069
 6018W        W25552  12.656   8.070   1.953 -0.0629  0.0556 -0.1918
 6019W        W25553   1.401  11.765  14.442  0.0708 -0.4444  0.1224
 6020W        W25554  12.200   4.863  11.931 -0.4080  0.2398  0.0506
 6021W        W25555   1.905  14.637   1.769  0.0316 -0.1232  0.2264
 6022W        W25556   9.850   0.748   4.609 -0.0157  0.0831 -0.0424
 6023W        W25557  15.559   8.303   0.923  0.0420  0.2906 -0.0865
 6024W        W25558  13.989   2.428   1.700  0.0456 -0.0902 -0.0792
 6025W        W25559   8.679   1.069   4.492  0.0726 -0.2471 -0.0907
 6026W        W25560   9.738  12.752   0.264 -0.1326 -0.0258 -0.0415
 6027W        W25561   1.728  17.394  12.385  0.1231  0.0614  0.0256
 6028W        W25562  16.158  13.885   1.474 -0.0162  0.0839 -0.0381
 6029W        W25563  10.508   2.950  13.495  0.0334  0.3038 -0.2852
 6030W        W25564  13.366  10.115  14.441 -0.0152  0.0797 -0.3911
 6031W        W25565   8.865  10.049   0.028 -0.0197  0.1594 -0.0217
 6032W        W25566   8.081  15.913  14.752  0.1293  0.0262  0.1840
 6033W        W25567   8.921  13.780  15.914 -0.0264 -0.0261  0.2300
 6034W        W25568   9.151   3.911   5.206  0.0523 -0.1989  0.4122
 6035W        W25569  15.297  11.039  15.920 -0.0383 -0.0036  0.2295
 6036W        W25570   7.097   8.358   0.554  0.1098  0.2307 -0.1257
 6037W        W25571  10.625  14.977   3.427  0.1761 -0.0797  0.0856
 6038W        W25572   9.845   5.093   3.295 -0.2078  0.4456  0.2573
 6039W        W25573  14.372  17.471  15.292  0.2456  0.1693 -0.1068
 6040W        W25574  10.087   8.309  13.836  0.0894  0.0986 -0.0403
 6041W        W25575  13.292   4.436  16.121 -0.2128 -0.0007  0.1553
 6042W        W25576  14.655  13.932  13.866 -0.0466 -0.2649 -0.0620
 6043W        W25577   6.706  14.948   2.085  0.1165  0.1351 -0.0575
 6044W        W25578   2.400   4.340  14.294  0.1127 -0.0571 -0.0074
 6045W        W25579   1.831  13.535   4.350 -0.1322 -0.3627  0.1187
 6046W        W25580  16.037   4.128   2.072 -0.1869  0.0818  0.2588
 6047W        W25581   9.403   6.465  12.105  0.3108 -0.3607  0.1480
 6048W        W25582  16.789  11.164  12.975  0.2041 -0.2323 -0.0011
 6049W        W25583   9.405   2.487   3.762 -0.1697 -0.0997  0.2538
 6050W        W25584  10.059   1.412   1.226 -0.1784  0.1753  0.1876
 6051W        W25585   9.053  11.258  13.136  0.1636 -0.0534 -0.0125
 6052W        W25586  17.156  11.715  13.416 -0.0080  0.0934  0.2385
 6053W        W25587  14.041  15.761   2.479  0.0687 -0.0254  0.2121
 6054W        W25588  15.213   4.656   1.717  0.1303  0.0297  0.1783
 6055W        W25589  17.490   8.664   2.625 -0.3327 -0.2331  0.0605
 6056W        W25590  16.450   1.292   2.907  0.1748 -0.1626 -0.0461
 6057W        W25591   6.451  10.970   1.740  0.0190  0.0035  0.3263
 6058W        W25592   1.619  13.826  13.260  0.2108  0.1220  0.0768
 6059W        W25593   1.413  14.697  13.082 -0.3757 -0.1010  0.3372
 6060W        W25594  10.070  13.024  15.341 -0.1457  0.2150  0.0334
 6061W        W25595   6.565   8.836  12.519 -0.0728 -0.1587 -0.1209
 6062W        W25596   6.536   3.808  15.025 -0.2942 -0.1590 -0.0213
 6063W        W25597  14.235  12.203   1.775 -0.0332 -0.0018 -0.4596
 6064W        W25598   9.677  11.801  15.295 -0.1876 -0.0272 -0.0077
 6065W        W25599   2.509  11.290  16.500  0.2322 -0.0811 -0.0241
 6066W        W25600  12.846  11.265   2.488 -0.1569 -0.2113 -0.3261
 6067W        W25601   3.986  17.787   0.853 -0.0158  0.1573  0.1978
 6068W        W25602  13.436  13.085  14.493 -0.1814  0.0185 -0.0561
 6069W        W25603   5.633   0.568   2.713  0.0462 -0.0284  0.2006
 6070W        W25604  11.599  15.250   0.680 -0.1071 -0.0136 -0.2642
 6071W        W25605   4.343  11.717   4.971 -0.1922  0.1263 -0.0092
 6072W        W25606   8.135   6.109  15.530 -0.1648 -0.1353 -0.0058
 6073W        W25607   6.378   8.422  11.746 -0.0046 -0.1383  0.0648
 6074W        W25608   1.709   5.735   0.562 -0.0434 -0.0987 -0.0761
 6075W        W25609   3.872   2.454   5.062 -0.1299  0.0692  0.0780
 6076W        W25610   7.999  14.976   2.814 -0.0791 -0.1792  0.0645
 6077W        W25611   5.132  15.408   2.451  0.0775  0.0646 -0.0875
 6078W        W25612   8.628   5.899  15.621  0.1971  0.2797 -0.0309
 6079W        W25613  11.188  16.146  14.369 -0.1672  0.1800 -0.0002
 6080W        W25614   9.829   9.147  14.403 -0.2044  0.1120  0.0794
 6081W        W25615   6.221   4.871  13.981 -0.1640  0.1561  0.1799
 6082W        W25616  15.593  10.963   3.212  0.1474  0.1533 -0.0107
 6083W        W25617  11.909  15.782   1.692 -0.2942 -0.1027  0.4092
 6084W        W25618   2.408   4.351  15.917  0.4955 -0.0693 -0.1198
 6085W        W25619  13.678   5.801   3.407 -0.0341 -0.0275 -0.0162
 6086W        W25620   3.623  14.704  12.028  0.2701 -0.1945 -0.2783
 6087W        W25621   4.653  12.090   4.803  0.0702  0.0014  0.2122
 6088W        W25622  17.648   7.590  15.897 -0.4068 -0.1826 -0.1692
 6089W        W25623   3.637   2.950  14.083 -0.0577 -0.1307 -0.2357
 6090W        W25624   8.640  17.710   0.860 -0.3167 -0.1873 -0.2841
 6091W        W25625  10.551  15.012  14.553  0.0870  0.1322  0.2911
 6092W        W25626   0.468   9.005  12.495  0.1391 -0.0061  0.0520
 6093W        W25627  14.919   3.172  13.778 -0.2450  0.1393  0.0952
 6094W        W25628  13.385  15.931  13.618 -0.0267 -0.0893 -0.1794
 6095W        W25629   5.590   9.234  15.017  0.2208 -0.1551  0.0151
 6096W        W25630  16.856   0.326   0.197 -0.1490  0.0789 -0.0883
 6097W        W25631   9.572   3.527  11.864 -0.0879  0.2319  0.2748
 6098W        W25632  10.830  10.973  12.355  0.0257 -0.0454  0.1272
 6099W        W25633   0.858   3.185   0.872 -0.1010  0.1917 -0.1081
 6100W        W25634   9.527   8.021  13.613 -0.2174  0.0409  0.0877
 6101W        W25635   3.259   5.439  12.977  0.1698  0.1776 -0.2815
 6102W        W25636   6.656  15.390  12.552  0.0539  0.0159 -0.2925
 6103W        W25637   6.050   3.615  13.769  0.0607 -0.2118 -0.0845
 6104W        W25638   0.371   0.425  15.651  0.1909 -0.4047  0.4085
 6105W        W25639   4.074   5.738  12.328  0.2842 -0.1721 -0.2095
 6106W        W25640  15.237   7.671  13.216  0.3176 -0.0452 -0.1766
 6107W        W25641   9.336  11.266   0.612 -0.0565  0.0435  0.2218
 6108W        W25642  14.170   4.151  15.088 -0.0700  0.1883  0.1282
 6109W        W25643  11.397  17.120   2.557 -0.0124 -0.1495  0.0008
 6110W        W25644  13.867  11.743   2.060 -0.0136 -0.1191  0.2834
 6111W        W25645   2.766   3.637   3.464  0.2144  0.1437 -0.1167
 6112W        W25646   7.602   5.937  14.231  0.1957  0.0663  0.2976
 6113W        W25647   3.706  12.513   1.012 -0.1630  0.0142 -0.1098
 6114W        W25648   5.293  11.465   4.917 -0.2431  0.1586  0.1840
 6115W        W25649  10.203   8.778  15.332  0.3901 -0.4667  0.1820
 6116W        W25650  12.693   2.083   2.579  0.0582  0.1702  0.0109
 6117W        W25651   9.511  14.345   2.857  0.1927  0.0655  0.1651
 6118W        W25652   6.501  16.724  13.489  0.2125  0.1520 -0.0683
 6119W        W25653  15.953   5.605   0.968 -0.0273  0.0275 -0.0686
 6120W        W25654  16.341   9.501  12.104 -0.1306  0.0104  0.2387
 6121W        W25655   0.143   7.805   1.985  0.3831  0.0278  0.1447
 6122W        W25656   0.236   9.638   2.136  0.0114  0.0647  0.0704
 6123W        W25657  15.028  10.615  13.630  0.0887 -0.2843  0.1720
 6124W        W25658   6.739  16.787   4.892  0.0469 -0.2729  0.0576
 6125W        W25659   6.980   7.459   4.701  0.1918  0.1419 -0.2205
 6126W        W25660   0.100   2.334   4.961 -0.1251  0.1671  0.2433
 6127W        W25661   7.041  10.509  15.560  0.0517  0.1709 -0.1368
 6128W        W25662  13.078  11.164  14.509  0.2475 -0.0971 -0.2629
 6129W        W25663  13.394   5.041   1.728  0.1626  0.2488 -0.0644
 6130W        W25664   0.941   6.160   0.326 -0.4469 -0.1711  0.0522
 6131W        W25665  12.494  11.571   1.317 -0.0428  0.1228 -0.0175
 6132W        W25666   5.646  13.680  13.923  0.2671  0.1866  0.2164
 6133W        W25667  14.288  14.079  14.196 -0.1845 -0.2606 -0.1424
 6134W        W25668  11.137   3.012  13.957  0.2980 -0.0923  0.0328
 6135W        W25669  12.323  15.677   2.809  0.2740 -0.1776 -0.2642
 6136W        W25670  11.274  10.806  16.275  0.0887 -0.0130 -0.1418
 6137W        W25671   4.487  15.032  16.628  0.3046 -0.2337  0.2459
 6138W        W25672  16.015   2.470   4.568 -0.0445 -0.0551  0.0378
 6139W        W25673  16.857   0.212  14.858 -0.1467  0.1222  0.2457
 6140W        W25674   7.150  15.076   2.260  0.1524  0.0217  0.0176
 6141W        W25675  17.719  15.612  14.454 -0.2522 -0.3830  0.2424
 6142W        W25676  12.470   2.222   3.485 -0.2953 -0.0197 -0.0811
 6143W        W25677   2.528  14.930  16.486  0.0239 -0.1266 -0.2396
 6144W        W25678   7.293   5.334  14.893 -0.0937 -0.2915  0.2012
 6145W        W25679   4.976   1.494   1.313  0.0240 -0.0799  0.0512
 6146W        W25680   3.417   8.414  13.889  0.1768  0.3098  0.0915
 6147W        W25681  13.978  14.838  12.521  0.0386 -0.1290  0.0397
 6148W        W25682   6.696   7.513  15.746  0.3625 -0.3973 -0.3871
 6149W        W25683   5.532   6.257  16.149 -0.3333 -0.2545  0.1428
 6150W        W25684  15.310  17.300   5.116 -0.1951 -0.2827 -0.1344
 6151W        W25685  11.685   1.288   2.764 -0.0168 -0.0085 -0.1063
 6152W        W25686  14.555   8.975  14.919 -0.0483  0.0843 -0.1425
 6153W        W25687   0.392  11.126   4.659  0.1009 -0.1177 -0.1051
 6154W        W25688   7.015  14.650  14.209 -0.3693 -0.2115 -0.0619
 6155W        W25689   4.556  13.891   4.603 -0.1827 -0.0749 -0.2316
 6156W        W25690   6.344   8.495  16.551 -0.0218 -0.1339 -0.0650
 6157W        W25691   2.399  12.293  15.161  0.3004 -0.1253  0.0940
 6158W        W25692   2.820   3.664   2.266  0.3511  0.3410 -0.0380
 6159W        W25693  14.045   6.870   1.333 -0.0058  0.3367 -0.1515
 6160W        W25694   2.879  11.146   3.427 -0.0348  0.0676  0.2885
 6161W        W25695   9.236  17.266  12.939  0.0334  0.0341 -0.0759
 6162W        W25696   7.431   8.409   4.473  0.0693 -0.1730  0.0715
 6163W        W25697   9.557   4.380   4.363 -0.0532  0.1214 -0.0224
 6164W        W25698  17.549   6.572   4.479 -0.3178  0.2125  0.1406
 6165W        W25699  13.885  12.391   1.309  0.3878 -0.2250  0.1094
 6166W        W25700  16.601  11.014   1.748 -0.2082  0.0643  0.1747
 6167W        W25701  11.233  16.321  12.051  0.1647 -0.3118  0.2348
 6168W        W25702   3.150   3.995   2.427  0.1156 -0.0918  0.2645
 6169W        W25703   4.225   1.489   2.740 -0.0752  0.1512 -0.1902
 6170W        W25704  12.339   9.152   4.441 -0.0750  0.0618 -0.0332
 6171W        W25705   9.296   0.689   3.999  0.0018  0.1359 -0.1887
 6172W        W25706   0.367  13.266   2.636 -0.0176  0.3346  0.1522
 6173W        W25707   2.914   4.300  15.820  0.0039  0.3423 -0.2747
 6174W        W25708  15.760  15.800  13.891 -0.1912 -0.0160 -0.0297
 6175W        W25709  12.891   1.674  11.894 -0.0048  0.0893  0.2508
 6176W        W25710   6.612   0.773  14.633 -0.0682  0.0307  0.0117
 6177W        W25711  17.776   0.674   3.034  0.1982 -0.2309  0.1100
 6178W        W25712   7.335  14.511  16.610  0.1053 -0.1641  0.0819
 6179W        W25713   1.294   6.398  15.620  0.0147  0.1229  0.0327
 6180W        W25714  15.568   3.529  16.008 -0.3823  0.3928  0.1184
 6181W        W25715   5.790  11.302  14.876 -0.2278 -0.0003  0.2675
 6182W        W25716   7.162  17.624  16.486  0.0274  0.2765  0.1365
 6183W        W25717   5.521   4.683  12.331 -0.0912  0.1469  0.2327
 6184W        W25718   3.707  13.410  12.030  0.0951 -0.2105  0.0016
 6185W        W25719  11.754   1.748  12.763  0.3941 -0.0803  0.0643
 6186W        W25720   7.894  17.406   1.276  0.0069 -0.0132  0.1142
 6187W        W25721  15.846   2.911  16.006 -0.0089  0.2025  0.0833
 6188W        W25722  12.370  10.742   4.240 -0.0056 -0.0856 -0.2182
 6189W        W25723  17.785   4.555  13.833  0.1986  0.0185  0.0099
 6190W        W25724  17.446   6.780  15.897 -0.1909 -0.0371 -0.2531
 6191W        W25725  16.358  11.569  13.382 -0.2917 -0.1762 -0.3157
 6192W        W25726   0.976   1.502   4.151  0.0416 -0.1589 -0.2217
 6193W        W25727   7.698   0.316  13.344  0.1245 -0.3008 -0.0306
 6194W        W25728   1.683   6.125  13.730 -0.3196  0.3351  0.1616
 6195W        W25729  16.114   8.044  16.682  0.0201 -0.1566  0.0457
 6196W        W25730   7.046   7.111  16.500  0.0606  0.0136 -0.0342
 6197W        W25731   0.321   9.464  15.005 -0.0194  0.0075 -0.2562
 6198W        W25732  10.273   6.456   0.518 -0.1971 -0.0328 -0.0077
 6199W        W25733   3.617   0.579   4.633  0.2045 -0.0610 -0.3598
 6200W        W25734  15.002  12.307  11.771 -0.3204  0.1427  0.0999
 6201W        W25735   8.243   6.584  14.704 -0.2253 -0.1160  0.1563
 6202W        W25736   9.222   2.995  14.049 -0.1222 -0.2220 -0.2437
 6203W        W25737  16.494  13.966  16.601  0.0265 -0.0165  0.0925
 6204W        W25738   1.566   2.720   2.144 -0.2040 -0.1406  0.0981
 6205W        W25739   1.900  15.841  13.407 -0.0042 -0.4253 -0.0330
 6206W        W25740  12.783   3.848  15.949  0.2513  0.1171 -0.2001
 6207W        W25741  14.748   6.163  15.948  0.0447 -0.2309 -0.0899
 6208W        W25742  10.682   6.841   3.768 -0.0092 -0.1506 -0.0221
 6209W        W25743   7.538   9.371   3.321  0.1512  0.0752  0.1656
 6210W        W25744  15.785   0.765  15.563 -0.3170  0.1005 -0.1398
 6211W        W25745   4.953   9.340   3.613  0.0799  0.1147  0.0614
 6212W        W25746   0.025   1.237   1.428  0.2794 -0.1437 -0.0430
 6213W        W25747   4.429  14.977  14.317 -0.1882  0.0320  0.4453
 6214W        W25748  11.902   2.124  15.533 -0.2324 -0.2101  0.1013
 6215W        W25749   7.623   3.288  16.466  0.0628  0.1465 -0.0651
 6216W        W25750  13.457   3.505  15.250  0.0411  0.1411 -0.0401
 6217W        W25751   7.065  13.230   3.690  0.0661 -0.1455  0.1756
 6218W        W25752   0.749  16.712  13.710  0.0738 -0.0086  0.1683
 6219W        W25753   8.299   0.584   3.804 -0.0075 -0.0353  0.1111
 6220W        W25754   0.301   5.802  15.086 -0.0334  0.2922 -0.0743
 6221W        W25755   1.511  12.796   3.882  0.1115  0.0428  0.0464
 6222W        W25756  11.718   1.443   0.140  0.0175  0.1587 -0.1446
 6223W        W25757   0.001  12.287   0.418 -0.2256  0.2472  0.0182
 6224W        W25758   6.862  10.516   1.896 -0.1089  0.0422 -0.2598
 6225W        W25759   2.028   1.885  16.472  0.2191 -0.1475 -0.0785
 6226W        W25760   7.555   2.337  14.849  0.0892 -0.0423  0.0868
 6227W        W25761   6.967  14.131   0.175 -0.0788 -0.1786  0.3328
 6228W        W25762  11.297  11.812  15.337 -0.1162  0.3678  0.3099
 6229W        W25763  10.848   6.533  11.478  0.0908  0.0738  0.0079
 6230W        W25764   7.789  10.623  13.143 -0.1881  0.1427  0.0324
 6231W        W25765   9.343   4.238  16.181  0.0679 -0.2533  0.0091
 6232W        W25766   1.356  14.283  15.896  0.3148  0.1278 -0.0016
 6233W        W25767  16.425  13.939  12.961 -0.0239  0.1046 -0.1788
 6234W        W25768   7.927   8.926  14.764 -0.3569 -0.1662  0.0379
 6235W        W25769   7.602  14.979   1.401  0.3247  0.2672  0.0476
 6236W        W25770   8.291  17.663  11.111 -0.1392  0.0669 -0.2279
 6237W        W25771   2.320   6.393   2.974 -0.3135  0.0730  0.2394
 6238W        W25772   6.653   8.503   3.686 -0.0323 -0.3128 -0.0205
 6239W        W25773   0.398  17.237  16.712 -0.0006  0.1137  0.0385
 6240W        W25774  12.335  16.329  15.766 -0.2637 -0.0187  0.0509
 6241W        W25775   8.640  15.697   0.141 -0.1002  0.3059  0.1748
 6242W        W25776  12.856   0.170  13.522  0.2317 -0.0682  0.2212
 6243W        W25777  15.276   7.030  12.169 -0.0224  0.1779  0.0722
 6244W        W25778   6.118  17.045   0.014  0.0307 -0.0344  0.0858
 6245W        W25779   5.510  12.292   0.106 -0.2589 -0.0211 -0.3626
 6246W        W25780   4.551   8.958  13.439 -0.2219  0.3265  0.3575
 6247W        W25781   0.293  13.484   2.163  0.0360  0.4657 -0.2347
 6248W        W25782  13.533   5.986   2.218 -0.3704  0.0874 -0.0560
 6249W        W25783   7.420   6.084   1.225  0.0565 -0.0296 -0.1197
 6250W        W25784   4.839   9.450  12.889  0.1074  0.1261 -0.0783
 6251W        W25785   2.919   8.520   0.905 -0.1623 -0.0109 -0.0610
 6252W        W25786  14.980  10.035   1.846 -0.1762 -0.1942 -0.0783
 6253W        W25787   0.432   7.006  14.675 -0.0321  0.0530 -0.2712
 6254W        W25788   1.467   1.829  12.142  0.0850  0.3433  0.0353
 6255W        W25789  16.223  14.200  15.832 -0.1444 -0.1855 -0.2768
 6256W        W25790   8.519   3.003   2.508 -0.1089  0.1267  0.0690
 6257W        W25791  17.560   3.315   1.199  0.1508 -0.1739 -0.1870
 6258W        W25792   2.883  11.850  15.767  0.0001  0.0942 -0.2608
 6259W        W25793  12.555  12.268   4.741 -0.1183  0.0814  0.2585
 6260W        W25794  12.956  16.737   2.714  0.0894  0.0056  0.2282
 6261W        W25795   4.867   7.412  13.807 -0.0003 -0.1744  0.1037
 6262W        W25796  13.835  13.673  16.663 -0.5046  0.1901  0.0037
 6263W        W25797  13.946   6.944   0.007  0.0601 -0.2556 -0.0398
 6264W        W25798   8.462   2.381  14.337 -0.0062 -0.1509  0.1632
 6265W        W25799  13.779  16.009  15.442 -0.1945 -0.2149 -0.1320
 6266W        W25800  16.909   9.030  15.086 -0.1093  0.1831  0.0857
 6267W        W25801   4.446   4.457   1.991 -0.3230  0.1703  0.0903
 6268W        W25802   9.306   3.049  12.641  0.1213 -0.1397 -0.0641
 6269W        W25803  11.923   0.811  15.162  0.2295  0.0521 -0.2460
 6270W        W25804   4.950   1.942   0.525 -0.1782  0.0851 -0.0451
 6271W        W25805   4.330  13.972  16.649  0.1290  0.0154 -0.2436
 6272W        W25806   3.947   4.461  16.347  0.0333 -0.1672 -0.0279
 6273W        W25807   1.456   1.023   0.309 -0.1590  0.0894 -0.1285
 6274W        W25808   0.274   2.908   4.468  0.0164  0.1480 -0.2311
 6275W        W25809  13.818  16.895  15.420  0.0075 -0.2907  0.1730
 6276W        W25810  12.551   4.717   3.285  0.2444 -0.3831 -0.0411
 6277W        W25811   6.503   2.628  14.317 -0.0736  0.1595 -0.1174
 6278W        W25812  17.207   7.786   3.888 -0.2267 -0.0519 -0.0542
 6279W        W25813   5.697   0.741   1.832 -0.1385  0.0471  0.1169
 6280W        W25814   7.354   3.449   1.605  0.2206  0.1523 -0.1454
 6281W        W25815  14.040   1.857   0.100  0.1688  0.1089 -0.2379
 6282W        W25816   7.226  11.472  13.825  0.2106 -0.0935  0.1968
 6283W        W25817   1.573   9.250  12.526 -0.3604  0.1040  0.1339
 6284W        W25818  14.915   5.633   4.257 -0.0486  0.1951 -0.4291
 6285W        W25819  17.001   8.571   3.600  0.2180  0.0628  0.4370
 6286W        W25820   0.541  17.053  16.246 -0.1444  0.1906 -0.0347
 6287W        W25821   4.146   7.469  16.742 -0.4328  0.1355 -0.2666
 6288W        W25822   9.090   6.208   3.958 -0.3751 -0.0320 -0.1617
 6289W        W25823  16.190  10.832   3.224 -0.0902  0.4255 -0.3574
 6290W        W25824   8.008   4.482  14.462  0.0950 -0.3485  0.1559
 6291W        W25825   1.441   8.373  13.531 -0.0710  0.1681 -0.0354
 6292W        W25826  16.988   5.518   4.558 -0.0068 -0.0025 -0.2581
 6293W        W25827  13.475   0.055  13.569 -0.0282  0.2685  0.2217
 6294W        W25828  10.733  13.453  13.639  0.1991 -0.0749  0.4055
 6295W        W25829  17.727   1.088   3.990  0.0006  0.1135  0.2502
 6296W        W25830   7.855   5.621   0.309 -0.1404  0.2166 -0.1200
 6297W        W25831  16.100  17.190  13.096  0.0472  0.0919 -0.3127
 6298W        W25832  10.864  16.672  14.558 -0.1146 -0.1649  0.0711
 6299W        W25833  16.526   3.683   1.410  0.0870  0.3150  0.3714
 6300W        W25834  17.000   1.788   3.033 -0.0800  0.1020  0.3806
 6301W        W25835  12.180   9.696   3.871 -0.1228  0.0725  0.3858
 6302W        W25836  14.726  13.412  14.705 -0.0202 -0.0948  0.0144
 6303W        W25837  11.794  12.253   3.648 -0.2959 -0.1701  0.0884
 6304W        W25838   4.477  10.361   1.972  0.1255  0.0384  0.2556
 6305W        W25839  12.536   6.774  16.671 -0.1317 -0.0524  0.2196
 6306W        W25840   6.071  16.447  12.313 -0.0175  0.2054  0.0317
 6307W        W25841   2.956   6.434   2.453  0.1101  0.0515  0.1542
 6308W        W25842  11.095  12.250  15.974 -0.1941  0.0506  0.2313
 6309W        W25843  11.164   8.968   3.400 -0.2214 -0.0231  0.0284
 6310W        W25844   4.740  11.809  13.983  0.1543 -0.4279 -0.1166
 6311W        W25845  12.310  17.449   2.899 -0.1854 -0.1761 -0.1148
 6312W        W25846   1.565   0.478   5.005  0.0029  0.0346 -0.2118
 6313W        W25847   4.135  12.095  15.443  0.0695 -0.0589  0.2636
 6314W        W25848   3.232   0.281   3.023  0.1193  0.0067  0.0220
 6315W        W25849  11.729  13.457   0.914  0.0865 -0.0484  0.0241
 6316W        W25850  12.133  11.386   3.773 -0.0009  0.3369 -0.1457
 6317W        W25851   9.439  10.706   0.816 -0.1196  0.2130 -0.1706
 6318W        W25852  15.931   4.146  12.716 -0.3920 -0.2432 -0.1959
 6319W        W25853  12.466   9.684   2.647 -0.2592  0.1613 -0.2131
 6320W        W25854  17.573  13.195  13.509 -0.1364 -0.3389 -0.1294
 6321W        W25855   2.226  11.196   4.595 -0.1275 -0.2123 -0.1542
 6322W        W25856   4.310   9.419  13.605 -0.2659  0.0335 -0.0383
 6323W        W25857  14.229   2.725   5.434  0.0300 -0.0647  0.0674
 6324W        W25858  17.531   5.533   3.720 -0.1113  0.0710 -0.1173
 6325W        W25859   0.376   7.734  14.787 -0.2536 -0.4243  0.0784
 6326W        W25860   6.089  10.986   3.755 -0.0235 -0.0456  0.1081
 6327W        W25861   8.685   3.406  12.821  0.0348  0.0954 -0.1670
 6328W        W25862   9.393   3.322   1.420  0.4195  0.0927  0.1350
 6329W        W25863   5.881  11.429   2.832  0.0176 -0.0000 -0.0860
 6330W        W25864  17.707  12.658   2.076  0.0434 -0.0663  0.0603
 6331W        W25865   2.247   5.783  13.046  0.0160  0.1543  0.1360
 6332W        W25866   9.175   4.517   3.946 -0.1819 -0.1576  0.0194
 6333W        W25867   9.565  10.438   1.555 -0.0345  0.0132  0.1509
 6334W        W25868  17.408   3.843  14.530 -0.3858 -0.0553 -0.3049
 6335W        W25869  14.940  13.589   3.830 -0.0693 -0.0190 -0.0314
 6336W        W25870  17.833   5.108  12.176  0.1224  0.0532  0.1156
 6337W        W25871   4.756  15.500   3.111 -0.0131  0.0493 -0.5118
 6338W        W25872  10.868   3.981  13.809  0.1579 -0.2306 -0.1912
 6339W        W25873  16.207   6.815   3.656  0.0496  0.0009  0.0182
 6340W        W25874   3.407   7.977   1.467 -0.0963 -0.1884  0.0968
 6341W        W25875  11.036   7.118  16.737 -0.1115  0.5220  0.1679
 6342W        W25876  10.778   5.729  10.317  0.2661  0.0706 -0.3192
 6343W        W25877  10.706   6.114   4.900  0.0733 -0.1954  0.2054
 6344W        W25878  13.793   8.818   2.787  0.3348  0.1586 -0.1058
 6345W        W25879   3.070   4.249   4.561 -0.1453  0.0985 -0.0161
 6346W        W25880   6.088   1.411   2.872  0.3316 -0.0981 -0.1852
 6347W        W25881   2.211  14.106   0.828  0.2530  0.1793  0.0311
 6348W        W25882   4.717  14.745   3.569  0.2470  0.1830  0.4750
 6349W        W25883   3.670   6.999  13.810  0.1060 -0.3860  0.0454
 6350W        W25884  16.292  16.479   1.559  0.1622 -0.0671  0.0312
 6351W        W25885   9.786  17.843   3.827 -0.0504  0.0439 -0.3174
 6352W        W25886  15.749   6.590   0.577  0.0730 -0.1785  0.0551
 6353W        W25887  15.708  14.164  12.946  0.0602  0.0728  0.0593
 6354W        W25888   7.112   6.356   0.425 -0.1347  0.0521 -0.1468
 6355W        W25889  15.994  11.209  14.781 -0.2208  0.0232  0.3634
 6356W        W25890  15.032  16.308  14.272 -0.1009 -0.3533 -0.1268
 6357W        W25891  13.468   1.744   0.713 -0.0180 -0.2310 -0.0345
 6358W        W25892  10.286   1.139   2.280 -0.4426  0.2826  0.1892
 6359W        W25893  16.588  17.345  16.706  0.2145 -0.2920  0.1671
 6360W        W25894   7.629  12.063  15.937 -0.1878  0.2046 -0.0317
 6361W        W25895  16.759   6.937  12.320  0.3270 -0.1582 -0.0362
 6362W        W25896  11.567  10.125   1.110  0.1467 -0.1466 -0.0958
 6363W        W25897  17.874  11.242   3.566 -0.2472 -0.2694 -0.0321
 6364W        W25898   5.821   8.747   1.056  0.1178 -0.2219  0.0232
 6365W        W25899   8.521   9.790  14.036 -0.2453 -0.3093  0.1355
 6366W        W25900  13.221  14.119   0.493  0.0033  0.0771 -0.1965
 6367W        W25901   8.737   6.755  12.831  0.1318  0.0828  0.0968
 6368W        W25902  15.968   0.027  14.626 -0.0269  0.0426  0.2132
 6369W        W25903  14.892   8.082   3.623  0.1773 -0.1217 -0.2464
 6370W        W25904   1.626   3.326   2.095 -0.3837  0.0882  0.0733
 6371W        W25905   1.213   8.980  10.755  0.0484 -0.2843 -0.2974
 6372W        W25906   3.309  16.128   0.475 -0.0967 -0.2709 -0.1360
 6373W        W25907   3.383   1.045  13.715 -0.0073  0.1115 -0.1292
 6374W        W25908   6.053  15.893   3.901  0.2081 -0.3197  0.0268
 6375W        W25909   5.655  12.336   1.499  0.3154 -0.2362 -0.1351
 6376W        W25910  15.606   7.393   2.160  0.2262 -0.0060 -0.0568
 6377W        W25911  10.562  13.008  13.331  0.1189 -0.0902 -0.1116
 6378W        W25912   1.843  15.139   0.278  0.3295  0.1184  0.3244
 6379W        W25913  12.448  17.740  15.897  0.1872  0.0094  0.1665
 6380W        W25914   5.332  13.726   4.113  0.2376 -0.2164 -0.0464
 6381W        W25915   1.758  17.590   0.087  0.0513 -0.0762  0.0857
 6382W        W25916  13.198  10.438  10.953  0.0037  0.1962 -0.4763
 6383W        W25917  16.909   4.250   1.945  0.2700  0.0088 -0.1270
 6384W        W25918  12.049  15.720   3.750  0.1812 -0.2917  0.1153
 6385W        W25919  15.276  10.161   3.046 -0.1569  0.0276  0.1854
 6386W        W25920  15.982   5.840  11.993 -0.0934  0.1762  0.1157
 6387W        W25921  10.057  11.246  14.750 -0.1127 -0.1355  0.0279
 6388W        W25922  11.201   6.117  14.266  0.1013 -0.3112  0.2045
 6389W        W25923   3.965   6.316  15.930 -0.2008 -0.1455 -0.0282
 6390W        W25924   9.944   8.706  16.040  0.0742 -0.0775 -0.1339
 6391W        W25925   9.108  12.086  12.717 -0.1376 -0.2008 -0.0559
 6392W        W25926   3.339   9.065   1.843  0.0324  0.2280 -0.1194
 6393W        W25927  14.355  14.956  14.279 -0.0330 -0.1735  0.1990
 6394W        W25928  15.354  16.514  16.552  0.3234  0.1403  0.0260
 6395W        W25929   0.982   0.677   1.175  0.1874 -0.2361  0.1142
 6396W        W25930  12.953  17.745   6.059  0.2900 -0.2163  0.0441
 6397W        W25931   4.939   2.933   1.571  0.1405 -0.0021  0.1494
 6398W        W25932   0.226   6.874   3.940  0.0542  0.0285 -0.2986
 6399W        W25933   8.655  12.257   4.022  0.1634  0.1724 -0.0093
 6400W        W25934   5.682   8.033  14.129  0.1072 -0.2367  0.2241
 6401W        W25935   6.269  15.317  12.871  0.0645  0.1119 -0.1217
 6402W        W25936   9.469   6.481   0.773  0.1127  0.0794  0.1133
 6403W        W25937   9.173  10.946  13.781 -0.1366 -0.0103  0.0361
 6404W        W25938   9.324   0.483  14.670  0.1822 -0.2515  0.1179
 6405W        W25939  14.307   0.073   2.698  0.0538 -0.0871 -0.1004
 6406W        W25940   2.913  13.229  14.307 -0.0355 -0.1070 -0.0180
 6407W        W25941   0.096   1.897   2.214  0.0702 -0.1951 -0.1916
 6408W        W25942  14.048   6.412  15.304 -0.0554  0.2510  0.0990
 6409W        W25943   6.918  10.760   1.393 -0.2028  0.1861  0.0066
 6410W        W25944  16.339   6.341   3.653  0.0007 -0.1316 -0.0821
 6411W        W25945   2.803  14.939   2.553  0.0197  0.1358 -0.0209
 6412W        W25946   1.799  10.903   0.534  0.0904  0.1877 -0.0379
 6413W        W25947  15.574  11.622  11.692 -0.1107  0.0946 -0.1498
 6414W        W25948  14.411   7.293   3.708 -0.1304 -0.1353 -0.3760
 6415W        W25949  17.466  11.388   1.663  0.0824 -0.0933  0.0724
 6416W        W25950  10.279  17.386  12.213  0.2524 -0.3781  0.1336
 6417W        W25951   1.797   8.948  15.557 -0.2427  0.2975  0.2073
 6418W        W25952   8.483  16.087  16.250 -0.0230 -0.2521  0.0023
 6419W        W25953  16.592   4.380  14.377 -0.0675  0.2832 -0.0859
 6420W        W25954  10.830   3.872   2.259 -0.2153  0.2246  0.0343
 6421W        W25955  17.751  10.760  14.844  0.2644 -0.3540  0.0987
 6422W        W25956   8.861   5.483   1.960  0.1305  0.0220  0.0514
 6423W        W25957   4.597  13.415   0.350  0.0472  0.2385  0.0409
 6424W        W25958   6.084   1.694   0.133 -0.0340 -0.2424  0.1609
 6425W        W25959   5.554   6.583   1.338  0.0903 -0.0195  0.0218
 6426W        W25960  13.800   8.107  16.564 -0.0943  0.2305 -0.1439
 6427W        W25961   5.425   0.138   4.567 -0.1084 -0.1976 -0.4939
 6428W        W25962   4.982   1.353   5.798  0.3895 -0.1342  0.4170
 6429W        W25963   0.581   4.194   4.100 -0.0948 -0.1428 -0.1925
 6430W        W25964   7.704  12.811   4.150  0.0548  0.1006  0.1389
 6431W        W25965   0.583   7.505   3.342  0.0173 -0.2656  0.1610
 6432W        W25966   5.998  16.291   2.566 -0.2585 -0.1025  0.0052
 6433W        W25967  14.778   3.553  16.494  0.0027  0.1948  0.1478
 6434W        W25968   4.523   9.804  13.029  0.1910 -0.1773 -0.2002
 6435W        W25969  11.760   2.903   1.195  0.0209  0.2422  0.2613
 6436W        W25970   8.077  11.683  13.571  0.2039 -0.2462 -0.1538
 6437W        W25971  10.519   7.221   4.069  0.0227 -0.1688 -0.0816
 6438W        W25972   8.015   6.506  15.930  0.3030  0.2171  0.1966
 6439W        W25973  12.123  15.460  14.556 -0.0276 -0.0040 -0.0292
 6440W        W25974  10.708  16.335  16.408  0.2038 -0.1475  0.0518
 6441W        W25975   2.558  13.088   4.685 -0.2239  0.2951 -0.0778
 6442W        W25976   6.205  13.947   0.351  0.1885 -0.3924  0.2795
 6443W        W25977  15.739  15.120  14.871 -0.0841  0.1545  0.1398
 6444W        W25978   7.503  10.820   3.615  0.0548 -0.0143 -0.0241
 6445W        W25979  10.160   4.810   5.159  0.0055 -0.0141  0.2746
 6446W        W25980   9.749   0.430   4.170 -0.2008  0.0431  0.1318
 6447W        W25981  11.170  12.783   0.524  0.3834 -0.2507 -0.1083
 6448W        W25982  16.425  10.127  10.784 -0.1126  0.0669  0.0865
 6449W        W25983  17.397  10.909   1.754  0.0249 -0.3525  0.0631
 6450W        W25984  13.530   2.662  14.103 -0.3209  0.0066 -0.3864
 6451W        W25985  15.427   8.244   4.302 -0.2087 -0.0331  0.2178
 6452W        W25986   5.846  17.389   2.045 -0.1705 -0.2028  0.0059
 6453W        W25987  10.226  10.859   0.148 -0.3398  0.0619 -0.0405
 6454W        W25988  12.744  16.897  13.560 -0.2131 -0.0143  0.0242
 6455W        W25989   8.064   1.691   2.164 -0.1144 -0.2216  0.1581
 6456W        W25990   0.354   4.341  13.812  0.1113 -0.2754  0.2805
 6457W        W25991   8.257   2.005   3.684  0.1836  0.1042 -0.0176
 6458W        W25992   1.083   1.411   2.278  0.3680  0.1555 -0.1621
 6459W        W25993   5.627  16.115  12.265  0.2806  0.1213  0.2196
 6460W        W25994  14.172  14.872   3.081  0.4012  0.2837 -0.0033
 6461W        W25995  11.378   1.400   0.881  0.1041 -0.4104  0.2200
 6462W        W25996  14.496   9.273   2.997  0.2652  0.2647  0.3401
 6463W        W25997   0.669   3.072  16.599 -0.1129  0.0896  0.1110
 6464W        W25998  15.860   5.614   3.053  0.0314 -0.0842  0.0286
 6465W        W25999  14.444   8.375   2.125  0.3304  0.0233 -0.2245
 6466W        W26000   5.265   9.231  16.181 -0.0392  0.3227  0.0819
 6467W        W26001   1.524   6.171  12.495  0.1753  0.1196  0.0719
 6468W        W26002   8.652   7.278  15.007  0.1539 -0.2730  0.1828
 6469W        W26003  14.942   5.699  15.926 -0.1611  0.1011 -0.1057
 6470W        W26004   2.798   0.598  15.778  0.1174 -0.1168  0.1096
 6471W        W26005   1.170   3.257   2.998  0.4414 -0.1082 -0.0843
 6472W        W26006   1.023  12.785   3.856  0.1463  0.1633 -0.2752
 6473W        W26007   1.802   8.360   3.891  0.1868 -0.2059  0.4246
 6474W        W26008   4.549  12.996  16.284 -0.4185  0.1702  0.4746
 6475W        W26009   2.649   0.726  14.936 -0.3194 -0.2227 -0.0268
 6476W        W26010   4.116  15.097  15.787  0.0936 -0.2854  0.3239
 6477W        W26011   2.795  13.680  12.614 -0.1595 -0.4345  0.0214
 6478W        W26012   5.717   5.761   3.774 -0.0626  0.0620 -0.1876
 6479W        W26013  17.022   3.565   3.499 -0.1226 -0.0485  0.0917
 6480W        W26014   2.729  10.865  12.345  0.0560 -0.2536  0.0198
 6481W        W26015   3.164   9.037   0.606 -0.1412 -0.0221 -0.0032
 6482W        W26016   5.951  13.213   2.516  0.2744  0.2566 -0.0772
 6483W        W26017  12.614   6.540   3.791  0.0918  0.0845 -0.0182
 6484W        W26018   6.453   5.176  14.786  0.0213 -0.1846 -0.3873
 6485W        W26019   8.596  12.566  14.865  0.0688 -0.0657  0.1760
 6486W        W26020  16.418  17.139   2.896  0.2956  0.0968 -0.0185
 6487W        W26021   2.543  13.920  16.340 -0.3093 -0.3060 -0.1321
 6488W        W26022   1.086   0.277   4.291 -0.1080  0.0407 -0.2912
 6489W        W26023  14.818  14.592   1.590  0.0404 -0.1402 -0.1246
 6490W        W26024   2.732  16.510   3.783  0.1337  0.1729 -0.1072
 6491W        W26025   7.805   5.911  13.152 -0.1041 -0.5390  0.1148
 6492W        W26026   5.560   0.982  12.486 -0.1551  0.1077 -0.2396
 6493W        W26027   4.134  16.763   4.408  0.0879 -0.1383 -0.4115
 6494W        W26028   6.170   3.496  10.356  0.0601 -0.1226  0.0700
 6495W        W26029  17.889   7.728   2.553 -0.1722 -0.2092 -0.3272
 6496W        W26030   8.321   6.737  11.686  0.1199 -0.1155 -0.3005
 6497W        W26031  13.567   7.256   3.528 -0.0010  0.0339 -0.0329
 6498W        W26032  14.844  12.318   4.299 -0.0909  0.0561 -0.1302
 6499W        W26033   9.492  12.359  12.823  0.1147 -0.2876  0.0233
 6500W        W26034   2.757  11.644  12.837  0.1224  0.0199 -0.1182
 6501W        W26035  15.099  14.584   1.144 -0.2723  0.4251  0.0476
 6502W        W26036   7.471   4.401   1.140  0.3165  0.3435 -0.0267
 6503W        W26037   2.262   9.680   0.626 -0.1293 -0.1049  0.0204
 6504W        W26038   8.745  11.395   1.929 -0.2215  0.1351 -0.2216
 6505W        W26039   5.434  14.512  14.926  0.3490 -0.1944 -0.3713
 6506W        W26040   7.513  13.814   4.304 -0.1704 -0.0498 -0.0193
 6507W        W26041   8.523   9.549   4.796 -0.0458 -0.0546 -0.0761
 6508W        W26042  12.757   1.131  12.756 -0.0503 -0.0713 -0.2991
 6509W        W26043   8.671   3.263  15.258  0.1457  0.0840  0.0987
 6510W        W26044   4.480  17.534  11.760  0.2088  0.0802 -0.1524
 6511W        W26045   6.793   8.401  12.614  0.1139  0.0465  0.1515
 6512W        W26046  11.115   3.887  14.274 -0.0438  0.1300  0.0283
 6513W        W26047   1.205  11.459  12.467 -0.0122  0.0408  0.2565
 6514W        W26048  17.555  15.126   0.145 -0.0495 -0.0683 -0.1766
 6515W        W26049  14.997   7.026   4.580  0.0165 -0.5702 -0.1899
 6516W        W26050  17.168  10.639   2.332  0.0316  0.0801  0.1835
 6517W        W26051  14.394   6.810   3.413  0.1677 -0.2034  0.1045
 6518W        W26052  16.262  12.456   1.297  0.1166 -0.0479 -0.1171
 6519W        W26053  11.744   1.734   2.957 -0.2245 -0.0550  0.0834
 6520W        W26054  13.450  17.354   2.466  0.3834 -0.2216 -0.0354
 6521W        W26055  13.421  13.451   1.749 -0.0188 -0.0568 -0.2847
 6522W        W26056   7.726  13.235  14.632 -0.0960 -0.3260  0.0715
 6523W        W26057   7.509  13.073   1.992 -0.1306 -0.0819  0.0478
 6524W        W26058   4.776   7.315  14.277  0.0728 -0.1469  0.0357
 6525W        W26059   1.155   3.673   4.315 -0.2303  0.1829 -0.1552
 6526W        W26060   0.606   1.484  13.434  0.0854  0.1306 -0.0208
 6527W        W26061  16.900   8.257   3.146  0.0484 -0.2608 -0.5430
 6528W        W26062   5.902  12.760  16.053  0.2716 -0.2864 -0.3747
 6529W        W26063   4.028  17.505   1.781 -0.1446  0.0166  0.0149
 6530W        W26064   4.032   2.481   6.800  0.1705  0.0217 -0.1940
 6531W        W26065  16.928   6.074  13.918 -0.5381  0.0768  0.0389
 6532W        W26066  13.867   9.107  15.844 -0.2164 -0.0104  0.4010
 6533W        W26067  16.566   5.740   0.236 -0.1839 -0.2315  0.2415
 6534W        W26068  17.186   2.029  14.741 -0.0752 -0.4557  0.0247
 6535W        W26069   0.933   4.102  13.790 -0.4941  0.0326  0.1658
 6536W        W26070   6.242  13.179  15.937 -0.0071  0.1178  0.1130
 6537W        W26071  11.312   1.540   3.141 -0.0115  0.2753 -0.4398
 6538W        W26072  15.359   6.028   2.256  0.0881  0.5606  0.4121
 6539W        W26073   9.146   5.577  12.699 -0.0417 -0.2525 -0.0285
 6540W        W26074  11.500   3.693  14.618  0.0159 -0.1827 -0.1028
 6541W        W26075  10.415   7.687   4.887 -0.0447 -0.0789 -0.2239
 6542W        W26076  10.684   1.397   2.554 -0.1663 -0.0265 -0.1038
 6543W        W26077  12.106   9.254  14.313  0.0086 -0.2061  0.0327
 6544W        W26078   1.893   4.720   0.942 -0.2220  0.2581 -0.1527
 6545W        W26079   8.375   3.462   1.953 -0.1520 -0.1094 -0.1493
 6546W        W26080   4.152  17.334   1.316 -0.3033 -0.0895  0.3252
 6547W        W26081   3.604  12.306  14.160 -0.1232  0.0056  0.0375
 6548W        W26082   1.382   0.548   2.568  0.0091 -0.1268 -0.1962
 6549W        W26083   3.557   5.290   0.858  0.0769  0.2858 -0.0934
 6550W        W26084   2.506  10.552  14.311  0.2889  0.0353 -0.1157
 6551W        W26085  13.243  16.022   3.869  0.0298  0.1183  0.1617
 6552W        W26086  14.891  14.651   0.185  0.0752  0.2202  0.3085
 6553W        W26087   4.818  13.626  12.813 -0.1628 -0.0012 -0.2890
 6554W        W26088  12.626   1.522  15.311  0.0449 -0.0240 -0.2112
 6555W        W26089   4.240  15.969  13.833 -0.1926 -0.3358 -0.0563
 6556W        W26090  10.877   7.698   1.956 -0.1600 -0.2483 -0.0192
 6557W        W26091   7.910   0.463   1.534 -0.0404 -0.0429  0.0337
 6558W        W26092   9.885  14.032   4.049 -0.0296  0.2646 -0.4440
 6559W        W26093   9.066   5.391  13.184  0.1764  0.4968 -0.1999
 6560W        W26094   8.143  11.689  15.398 -0.0385 -0.0774  0.1261
 6561W        W26095  16.839   3.026   4.397  0.1349  0.0879  0.0144
 6562W        W26096  10.308   6.257  12.742  0.2201 -0.1381  0.0930
 6563W        W26097   0.922  10.378  15.682  0.2373  0.0745  0.3554
 6564W        W26098  17.411  11.195  16.558  0.1308 -0.2178  0.1436
 6565W        W26099   4.313   6.743  12.597 -0.1597 -0.0897 -0.2490
 6566W        W26100   1.470   7.919  12.194 -0.0816 -0.1408 -0.3124
 6567W        W26101   9.187  15.592   1.488 -0.1671 -0.0102  0.1535
 6568W        W26102   5.001  14.341  14.061  0.0029  0.0895 -0.0300
 6569W        W26103  15.442  15.650  14.878 -0.2331 -0.4598 -0.4936
 6570W        W26104  16.587  10.236  16.633 -0.2689 -0.0080 -0.1960
 6571W        W26105  11.694   2.018   4.273 -0.1484  0.2123 -0.1369
 6572W        W26106   4.815  13.918   2.698  0.2840 -0.0293  0.0279
 6573W        W26107  13.654  15.531  14.673  0.0384 -0.3653 -0.1206
 6574W        W26108  17.053  12.664   1.070  0.3155  0.0081  0.1127
 6575W        W26109   2.270  11.424   2.937 -0.1137  0.1622  0.0955
 6576W        W26110  13.711   7.815   1.906  0.1458 -0.1257 -0.1665
 6577W        W26111   6.957   1.035  12.429  0.4927  0.0208  0.2615
 6578W        W26112   1.347   8.603  16.039 -0.1233  0.1541 -0.0032
 6579W        W26113   8.026   1.920   1.122  0.2295  0.3687  0.1527
 6580W        W26114  13.410  13.225   0.356 -0.0544 -0.0243  0.1048
 6581W        W26115   1.302  15.591   3.344  0.3573  0.0885 -0.0460
 6582W        W26116   9.238   7.543  13.388  0.0625 -0.1839 -0.1902
 6583W        W26117   4.261  14.895   5.145  0.0129  0.0611 -0.0317
 6584W        W26118   3.431  12.218   1.307  0.2397  0.0675  0.1110
 6585W        W26119   6.597   6.029   2.246 -0.2011 -0.0386 -0.1442
 6586W        W26120   3.299  13.366  13.973 -0.0341  0.0918 -0.0141
 6587W        W26121  12.623  14.038  12.539  0.3490 -0.0414 -0.0793
 6588W        W26122   5.130   8.903  11.356 -0.0339  0.1948 -0.1800
 6589W        W26123  14.213   7.930  12.189 -0.0635  0.1099 -0.0142
 6590W        W26124   1.453   8.127  16.259 -0.3399  0.0303 -0.0952
 6591W        W26125  14.988   9.322  12.702  0.0345 -0.0412  0.0376
 6592W        W26126  12.908   8.013   3.961 -0.1949  0.1514 -0.0618
 6593W        W26127   8.626  13.337   0.561 -0.2951 -0.2051  0.1047
 6594W        W26128  10.950   9.620  16.181 -0.2166 -0.3149 -0.0254
 6595W        W26129   5.071   9.943   1.854  0.2180 -0.2149 -0.2190
 6596W        W26130   2.440   2.088  15.112  0.0498  0.3504 -0.0213
 6597W        W26131   3.108   0.630   0.239 -0.0653  0.1885  0.1346
 6598W        W26132  10.128   6.470  13.816 -0.2573 -0.0279  0.0048
 6599W        W26133  10.256  13.527   1.463  0.1227  0.1796 -0.1627
 6600W        W26134   1.166   0.903  12.416  0.2138 -0.0016  0.0816
 6601W        W26135   4.841   1.099  12.652  0.0141  0.0789  0.0694
 6602W        W26136   8.177  15.728  16.508  0.2733  0.0603  0.1911
 6603W        W26137   0.675  11.908  16.202  0.0897  0.2175  0.0593
 6604W        W26138   6.842  11.282   0.143 -0.0266 -0.1145  0.0006
 6605W        W26139  12.093   2.212  13.257 -0.0316  0.3894  0.2050
 6606W        W26140   9.025  16.947  12.084  0.4344  0.2649 -0.0618
 6607W        W26141  10.686   4.839  15.028 -0.3047  0.1482 -0.1138
 6608W        W26142  14.449   3.193  12.827  0.0932  0.1918 -0.0505
 6609W        W26143   2.756   9.137  13.015 -0.2816  0.1287  0.2476
 6610W        W26144  14.824  11.515   3.268  0.0215 -0.0981 -0.0897
 6611W        W26145  16.339  15.714  16.302 -0.0701  0.1351 -0.1670
 6612W        W26146   7.429  14.376  14.180 -0.0429 -0.0256  0.0239
 6613W        W26147   8.189  12.337   2.023 -0.2551  0.2167 -0.0774
 6614W        W26148   9.875  11.707   4.254  0.1097  0.1646  0.1342
 6615W        W26149   2.654  17.272   1.535  0.0796 -0.1388  0.2438
 6616W        W26150   5.412   6.326   2.116 -0.1233 -0.0749 -0.0995
 6617W        W26151   6.427  13.471   0.888 -0.1054  0.1472  0.0919
 6618W        W26152   6.963   0.442   2.360 -0.2125 -0.3282  0.1662
 6619W        W26153  11.670   0.122   4.699  0.0107  0.1436 -0.2714
 6620W        W26154   5.650   9.742   1.086 -0.3647 -0.1179 -0.1749
 6621W        W26155  11.814   5.282   0.350 -0.2628 -0.1021 -0.2127
 6622W        W26156  17.893   8.815  12.470 -0.1667 -0.2004  0.5145
 6623W        W26157   7.979   9.656   0.340 -0.1175  0.2343  0.4138
 6624W        W26158   8.850  13.846   4.899  0.3213 -0.0935  0.0781
 6625W        W26159  10.996  15.026  12.341  0.0332 -0.0864 -0.0657
 6626W        W26160  11.439   3.370  11.856  0.0443  0.0213 -0.0685
 6627W        W26161  17.675   3.874   2.345 -0.0119  0.1473  0.2837
 6628W        W26162   0.606   7.259   2.525 -0.1955  0.0893  0.1689
 6629W        W26163  10.924  13.414   2.536 -0.1719  0.2360  0.1525
 6630W        W26164  12.520   8.678  12.734 -0.1276 -0.1184  0.0483
 6631W        W26165  11.464  12.850   2.711  0.1114  0.2999  0.2335
 6632W        W26166   5.225   3.280  12.387  0.1029  0.3482 -0.2610
 6633W        W26167  11.755   0.314  12.373  0.2253 -0.0356  0.3402
 6634W        W26168  13.317   9.631   2.989  0.3642  0.1626 -0.3093
 6635W        W26169   2.818   1.463  14.420  0.0137  0.1931 -0.2855
 6636W        W26170   4.495   4.877  14.966 -0.2867 -0.1384 -0.0941
 6637W        W26171  14.069  14.536   2.194  0.0119 -0.2949  0.0507
 6638W        W26172  14.503   7.321   2.540  0.0293 -0.2174  0.1450
 6639W        W26173  17.050   5.545  12.664 -0.3008 -0.1341 -0.3565
 6640W        W26174  10.207  16.037  16.563 -0.1796  0.2662 -0.0146
 6641W        W26175  12.166  13.526  16.125  0.0898  0.0149 -0.0312
 6642W        W26176  14.910  13.624  15.189 -0.1071  0.0193 -0.0988
 6643W        W26177   5.783   6.996  16.202  0.0012  0.0247 -0.0411
 6644W        W26178  16.240  10.620   2.507 -0.0049  0.4351  0.1459
 6645W        W26179  14.464   7.814  14.138  0.0950 -0.1092  0.3180
 6646W        W26180  14.422  10.665   4.078 -0.1632  0.1452  0.1907
 6647W        W26181  15.497   6.977   1.327  0.0934 -0.0192  0.1275
 6648W        W26182   8.919   1.759   0.842 -0.0178 -0.0506  0.0630
 6649W        W26183   6.004   8.750  15.839  0.3915  0.2731 -0.1412
 6650W        W26184   0.402   6.969  15.423  0.2123  0.0386  0.0386
 6651W        W26185  17.571  14.985   1.034  0.0876  0.1807  0.1301
 6652W        W26186  11.699   1.101   0.529 -0.2451 -0.0843 -0.2136
 6653W        W26187   9.385   6.011   1.759 -0.0992  0.1445 -0.2909
 6654W        W26188   3.031   5.208   4.325  0.1049 -0.0918  0.0011
 6655W        W26189   3.950  10.211   4.297  0.0565 -0.3456  0.0743
 6656W        W26190  11.879  14.129  15.259  0.1257  0.1540 -0.2331
 6657W        W26191   6.029  13.206  16.678  0.0950  0.0064 -0.0378
 6658W        W26192  16.488   5.249   0.127 -0.0591 -0.0343 -0.0428
 6659W        W26193  17.133  15.778   0.876 -0.2690 -0.1982  0.0312
 6660W        W26194   6.280   3.876   0.254 -0.0872 -0.0985  0.0618
 6661W        W26195  14.987  16.187   1.548 -0.2222 -0.0264 -0.2178
 6662W        W26196   5.258  10.850  15.675 -0.3279  0.2435  0.3241
 6663W        W26197  16.528   1.980   3.041  0.1481 -0.0512  0.3084
 6664W        W26198  10.083   3.549  11.927  0.1545 -0.0782 -0.1129
 6665W        W26199   0.260   7.922   0.864 -0.0431 -0.1341 -0.1852
 6666W        W26200  10.130   2.822   0.184 -0.0848 -0.1376  0.3092
 6667W        W26201   3.252  11.760  16.105 -0.4509 -0.1609 -0.1605
 6668W        W26202   5.982  11.758   1.540 -0.1347  0.3328  0.1378
 6669W        W26203  12.364   9.342  14.969  0.4408 -0.2188  0.1162
 6670W        W26204   0.327  10.553   2.354 -0.3335 -0.0893 -0.0402
 6671W        W26205   8.120   4.089   5.475 -0.2601  0.0937 -0.0570
 6672W        W26206   5.380  17.457  13.139  0.0254 -0.0922 -0.0114
 6673W        W26207   5.684   9.212  12.516 -0.1173  0.0097 -0.0333
 6674W        W26208  11.312  15.198  12.849  0.0651  0.1540 -0.1472
 6675W        W26209   0.063  12.026   2.305  0.1763 -0.1316 -0.1889
 6676W        W26210  11.627   9.502  15.538 -0.1965  0.3317  0.0460
 6677W        W26211  15.363   9.235   4.569 -0.3515 -0.1664 -0.1649
 6678W        W26212   9.391   6.397  15.222  0.1869  0.0448  0.1732
 6679W        W26213   9.899   9.441  15.288 -0.0242  0.1730 -0.0624
 6680W        W26214  14.010  10.097  13.350 -0.1875 -0.0169  0.2566
 6681W        W26215  10.182   0.886   3.739  0.0262  0.0358  0.0010
 6682W        W26216   1.919   9.228  14.665 -0.0344  0.1057 -0.0486
 6683W        W26217  15.637  17.049   1.940 -0.1091  0.1309 -0.2144
 6684W        W26218  15.935   7.943   4.480 -0.1441  0.0601  0.1024
 6685W        W26219   6.149   2.861  15.234  0.0771  0.1128  0.0192
 6686W        W26220  10.358  11.750   1.692 -0.1045 -0.1010  0.2643
 6687W        W26221  11.393  13.857  16.431 -0.4069  0.0096 -0.2381
 6688W        W26222   6.288  11.787  13.189 -0.3799 -0.0485 -0.0704
 6689W        W26223  15.352  16.018   0.691 -0.2494  0.2667 -0.1289
 6690W        W26224  10.048  14.591  13.299  0.0697 -0.3033  0.0317
 6691W        W26225   0.183   1.353   0.126 -0.0701 -0.0427  0.1108
 6692W        W26226  14.646   7.258   0.796  0.1232 -0.1369  0.0856
 6693W        W26227  15.212  17.544   3.525  0.3084  0.0054 -0.1824
 6694W        W26228   3.615   7.378   3.637 -0.0494  0.0120 -0.0273
 6695W        W26229   5.975   1.550   6.376  0.1282 -0.1235  0.1854
 6696W        W26230   6.281   4.098   5.410  0.0935 -0.0418  0.0475
 6697W        W26231   3.355   6.790   4.207 -0.0877 -0.0224  0.0843
 6698W        W26232  10.760   7.547  12.236 -0.2306 -0.1163 -0.3562
 6699W        W26233   2.481   4.633   5.128 -0.1073  0.1328 -0.1326
 6700W        W26234   5.490   0.832  16.211 -0.0096  0.0691 -0.0529
 6701W        W26235  17.089  16.811  15.381  0.2214  0.2374 -0.2404
 6702W        W26236   5.428   1.132   1.572  0.0143  0.3385  0.1924
 6703W        W26237   3.821  15.975   4.599  0.0818 -0.2051 -0.2180
 6704W        W26238   8.514  17.368   1.875  0.1044 -0.0481  0.0246
 6705W        W26239   2.505  11.408  13.236  0.1177 -0.0761 -0.1913
 6706W        W26240  13.466  15.338   4.604 -0.3098  0.1442 -0.2303
 6707W        W26241  15.723   7.202  16.588 -0.1312  0.0935 -0.1175
 6708W        W26242  13.448  10.717  12.730 -0.0218  0.1150  0.4651
 6709W        W26243  15.873   1.114   1.878 -0.3669  0.0901 -0.1029
 6710W        W26244   7.456   2.622  12.629 -0.3379 -0.0053  0.3476
 6711W        W26245   9.608  12.716  15.203 -0.0994  0.1925  0.1384
 6712W        W26246   9.994  16.221  13.258  0.0820  0.0593  0.0066
 6713W        W26247   7.458  13.543   1.085  0.0048 -0.2165 -0.2197
 6714W        W26248   3.414  12.723  16.013  0.3040  0.0659  0.1941
 6715W        W26249   0.864   5.149  13.960 -0.1287 -0.4748  0.0847
 6716W        W26250   5.690   1.720   0.808  0.2124  0.0182 -0.1710
 6717W        W26251  15.084  14.010  12.914  0.1622 -0.0482  0.0025
 6718W        W26252   1.736  17.164   5.060  0.2370  0.0851  0.0738
 6719W        W26253  17.274   1.898  14.081  0.1087 -0.0767 -0.1585
 6720W        W26254  10.722   4.197   2.651 -0.0629  0.2528  0.0950
 6721W        W26255  13.243   4.342   4.483 -0.0911  0.2496  0.0669
 6722W        W26256  15.941   5.148  15.352 -0.0315 -0.1405  0.1462
 6723W        W26257  16.406  10.441  14.237 -0.2848 -0.2343  0.1854
 6724W        W26258   4.960  11.130   4.829  0.0150  0.1850  0.1837
 6725W        W26259   2.209  15.526   2.958 -0.1419 -0.2906 -0.1743
 6726W        W26260   6.664  14.225   5.258 -0.3655  0.4426  0.0078
 6727W        W26261  15.709   5.271  13.031 -0.1059 -0.0142  0.0870
 6728W        W26262  14.220  10.399   1.622  0.0578 -0.0631 -0.3980
 6729W        W26263   1.109   9.890   4.496 -0.0589  0.1908  0.2408
 6730W        W26264   7.625  10.684  16.159 -0.1676 -0.0097  0.2432
 6731W        W26265   3.582   5.853  13.494  0.0747 -0.3173  0.2032
 6732W        W26266  10.958   1.670   3.524 -0.2654  0.0257 -0.0310
 6733W        W26267   6.162   3.294   5.627  0.0183 -0.2189  0.1562
 6734W        W26268   6.803  15.977  16.632 -0.0961 -0.1074  0.1385
 6735W        W26269   2.059  14.830  15.183 -0.1337  0.2241  0.1832
 6736W        W26270   6.131   1.458   5.000 -0.1404  0.1045 -0.0273
 6737W        W26271  12.211  15.321  12.429 -0.1822  0.1879 -0.0286
 6738W        W26272  12.452  14.025  11.226 -0.0445  0.2223 -0.0165
 6739W        W26273  12.972   3.628  15.392 -0.0292 -0.1746 -0.3298
 6740W        W26274  17.269  10.144   4.108  0.2371 -0.0328  0.0594
 6741W        W26275   2.102   6.354  14.356  0.3121 -0.2131  0.0531
 6742W        W26276   7.859   8.968   4.547  0.0003  0.0445 -0.0930
 6743W        W26277   3.855   7.212  14.703 -0.1280 -0.1988  0.0679
 6744W        W26278   2.722   1.364   4.488 -0.2305 -0.3685  0.0922
 6745W        W26279   8.984   1.745  15.127  0.0577 -0.1524  0.3188
 6746W        W26280  11.572  13.184   4.619  0.1234  0.4011  0.0584
 6747W        W26281  12.854   9.604  13.273  0.1312 -0.0363  0.0085
 6748W        W26282   4.813   2.179   2.667  0.2198  0.0074 -0.1510
 6749W        W26283  10.680  10.262   3.315 -0.0460 -0.1503  0.1746
 6750W        W26284   0.405  15.072  12.058  0.0995 -0.0071 -0.1347
 6751W        W26285  14.918  14.363   4.338  0.2038  0.2570 -0.0168
 6752W        W26286   8.313  15.378   0.874  0.1409 -0.1399 -0.3065
 6753W        W26287  13.884  12.040   4.454 -0.0622  0.1063 -0.0610
 6754W        W26288  14.908  14.615   5.641 -0.0405  0.0068  0.0608
 6755W        W26289  15.923   4.404  15.689 -0.0610 -0.1287 -0.0178
 6756W        W26290  11.508  14.068   0.181 -0.1421 -0.0443  0.2388
 6757W        W26291   4.378  14.987  13.746 -0.0003 -0.3861  0.2502
 6758W        W26292   1.099   3.149   5.137 -0.2790 -0.1122  0.0020
 6759W        W26293   7.239  11.582  12.628 -0.6124  0.1623  0.0772
 6760W        W26294   4.980   7.105   3.277 -0.0034  0.2589  0.1244
 6761W        W26295   6.915  10.325  14.710  0.0422  0.1954  0.0750
 6762W        W26296   6.185  16.446   4.235  0.0474 -0.1639 -0.2002
 6763W        W26297   2.256  12.710   0.621  0.1807  0.2676  0.2417
 6764W        W26298   8.911   2.874   0.247  0.0287  0.3151 -0.1124
 6765W        W26299  15.966   2.069   2.099 -0.0845  0.2275 -0.2407
 6766W        W26300  14.279   2.754   3.734  0.0785 -0.0303 -0.0706
 6767W        W26301  13.481  13.011   1.511  0.1400 -0.0338 -0.1611
 6768W        W26302   2.421   1.276   4.898  0.3108  0.6062  0.1355
 6769W        W26303   2.857   1.257  14.968  0.1004  0.0397 -0.0458
 6770W        W26304  16.086   5.065  11.563 -0.0230  0.3585  0.0135
 6771W        W26305   8.025  11.998   4.734 -0.0759  0.1643 -0.1833
 6772W        W26306   7.277  12.459  14.993  0.2283 -0.0032 -0.0865
 6773W        W26307   5.952  11.793  12.664 -0.1218 -0.0781  0.0351
 6774W        W26308  14.727   8.129   4.873  0.2044  0.1475  0.2485
 6775W        W26309  14.747   7.510  16.067 -0.2354 -0.1544  0.0618
 6776W        W26310   2.154   1.541   4.562  0.2456  0.0433 -0.2257
 6777W        W26311   8.551   0.636  13.670 -0.0659 -0.0712  0.0367
 6778W        W26312  13.524  17.733  13.997 -0.0518 -0.3881 -0.1935
 6779W        W26313   9.970   5.600  13.225 -0.2732  0.1302 -0.0071
 6780W        W26314   8.318  17.582  12.332  0.2174  0.1275  0.1057
 6781W        W26315   8.021   7.032   3.016 -0.0591 -0.1219 -0.0240
 6782W        W26316   3.039  12.469  16.259  0.0753  0.0996  0.0603
 6783W        W26317  13.766   1.167   1.213 -0.2863 -0.2380 -0.1586
 6784W        W26318   6.841   4.502   1.797 -0.0008  0.2777  0.0284
 6785W        W26319   5.929   0.951  15.942 -0.2466  0.0491  0.0496
 6786W        W26320  15.790  16.018   0.206  0.1278  0.1030  0.0970
 6787W        W26321  12.927  15.596   3.853 -0.1259 -0.1261  0.1581
 6788W        W26322   5.446   6.343   3.062  0.0601  0.1108 -0.2070
 6789W        W26323   0.083   9.952   2.483 -0.1819  0.1172 -0.1062
 6790W        W26324   2.649   6.617  13.259 -0.0512  0.1456 -0.1170
 6791W        W26325  13.870   2.926   1.517  0.0585 -0.2547 -0.1157
 6792W        W26326   6.290   1.413   3.339 -0.1817  0.3210 -0.1062
 6793W        W26327   1.969   6.865  12.941  0.0078  0.1228  0.1010
 6794W        W26328   2.736  11.008   1.174  0.0563 -0.0562  0.0436
 6795W        W26329   9.981   8.733   0.940 -0.2666 -0.0495  0.0096
 6796W        W26330  17.064  16.487   2.034  0.1769  0.1300 -0.3285
 6797W        W26331   7.121  11.750   3.891 -0.1894 -0.1579  0.2402
 6798W        W26332  16.079   2.615  13.773  0.2773 -0.1740 -0.1175
 6799W        W26333  16.199  13.533   1.937 -0.0360 -0.1479 -0.0545
 6800W        W26334  13.170   6.485  12.795  0.2985  0.1362  0.3453
 6801W        W26335  14.746  13.480  15.689  0.4291 -0.0036 -0.2409
 6802W        W26336   6.072   4.280  15.626  0.3030 -0.2926 -0.0890
 6803W        W26337  13.880  11.956  14.429  0.0600  0.2833 -0.1200
 6804W        W26338  12.884   4.906  11.733 -0.2618 -0.0285 -0.0269
 6805W        W26339   1.438  12.626   0.289 -0.1844  0.0234 -0.5071
 6806W        W26340   3.960  12.709  16.088  0.3350 -0.0620 -0.0110
 6807W        W26341  12.240   7.745   0.289 -0.1043  0.1035  0.0294
 6808W        W26342   6.832   7.177  15.364  0.0484 -0.1293 -0.2116
 6809W        W26343   1.631   9.663  15.711  0.3383 -0.1542 -0.3644
 6810W        W26344  15.516   9.214  16.418  0.2456 -0.1275 -0.0648
 6811W        W26345  13.511   0.774   0.971 -0.0897  0.0939  0.1560
 6812W        W26346   3.185   9.757   3.143 -0.0791 -0.3515  0.1527
 6813W        W26347   2.087  16.112   0.101  0.1898 -0.2046  0.1234
 6814W        W26348  15.302   5.592  13.174 -0.0750 -0.1285  0.1920
 6815W        W26349   3.516   7.036  11.958 -0.1925 -0.0901 -0.1534
 6816W        W26350  17.627   6.385   2.762 -0.0228 -0.0035  0.0243
 6817W        W26351   4.982  12.504   4.052 -0.1809 -0.0900 -0.0664
 6818W        W26352   0.121  15.111   1.429  0.1671 -0.1010  0.2864
 6819W        W26353  12.041  13.713   0.709 -0.0615 -0.3197 -0.2102
 6820W        W26354   8.582  11.751   2.537  0.2127  0.2616 -0.0661
 6821W        W26355  11.250   2.763   2.079 -0.2192  0.0624 -0.0454
 6822W        W26356  12.743  12.715   0.153 -0.1489  0.1987  0.1820
 6823W        W26357  12.044   8.874   3.377  0.0110 -0.0116 -0.2906
 6824W        W26358   3.046   3.190  12.482  0.0446  0.2415 -0.0082
 6825W        W26359   6.023   0.000   1.403 -0.1295 -0.0278  0.1445
 6826W        W26360  16.598  15.398   0.636  0.4642  0.2762 -0.1588
 6827W        W26361  16.235  17.610   2.166  0.1568  0.1984  0.0192
 6828W        W26362  13.387   5.299   4.376 -0.0920  0.2867 -0.0639
 6829W        W26363   3.127   7.806   1.898 -0.2797 -0.0331  0.2134
 6830W        W26364  10.900  17.267  14.041 -0.0970  0.1748  0.0173
 6831W        W26365   6.190  15.088   4.792  0.0646 -0.1069  0.1428
 6832W        W26366  12.227   3.715   4.911  0.3725  0.1604  0.2690
 6833W        W26367  17.406   7.942  12.358 -0.3005  0.1880  0.2342
 6834W        W26368   8.198  10.378  15.192 -0.2884  0.2384 -0.4144
 6835W        W26369   7.745  16.408  12.701 -0.0060 -0.1158  0.0398
 6836W        W26370  11.131   7.429   1.621  0.3325 -0.0536  0.0955
 6837W        W26371  14.763   4.343  14.004  0.1118  0.2406  0.1709
 6838W        W26372  11.301  15.863   4.866  0.0210 -0.2585 -0.0939
 6839W        W26373  17.895  12.968   4.597  0.0936 -0.0329  0.2061
 6840W        W26374   0.187  11.172  14.007 -0.0860 -0.4014  0.1568
 6841W        W26375   0.714   3.896  16.113 -0.0797 -0.5491 -0.1046
 6842W        W26376  15.934   3.970  13.291 -0.3326  0.0217 -0.1085
 6843W        W26377   0.140  12.894  13.359 -0.1080 -0.2309 -0.1110
 6844W        W26378  10.917   8.494  12.260 -0.0711  0.1958  0.1227
 6845W        W26379   6.337   2.036  12.101 -0.0543  0.0238  0.2387
 6846W        W26380   2.060  11.422  12.339  0.0298  0.3746 -0.0200
 6847W        W26381   2.994  11.984   4.065  0.1399  0.2255  0.0129
 6848W        W26382  14.068  14.848  13.255  0.3121  0.3394 -0.1506
 6849W        W26383   8.730   4.110  12.033 -0.2817 -0.1122 -0.3654
 6850W        W26384   2.547   7.848   2.206  0.1649 -0.2394 -0.2823
 6851W        W26385  13.926   9.104   1.002  0.2292 -0.0644 -0.1388
 6852W        W26386  12.206  16.330   1.742  0.4206 -0.0259 -0.1547
 6853W        W26387   6.181   5.057   3.544 -0.1239  0.0117 -0.0084
 6854W        W26388   0.009   6.625  16.050 -0.0167 -0.2338  0.1985
 6855W        W26389   7.678   8.020   3.948  0.2372 -0.4530 -0.1436
 6856W        W26390  16.607  12.513   0.869 -0.1087 -0.0628  0.1618
 6857W        W26391   9.077   1.501   3.862 -0.0443 -0.1858 -0.1470
 6858W        W26392  15.543  15.395  14.022 -0.3143  0.0539  0.3747
 6859W        W26393   6.025   6.491   5.341  0.2011  0.3419 -0.2829
 6860W        W26394   3.840   6.274  13.811  0.0008  0.1549  0.0579
 6861W        W26395  13.850  13.256   0.169 -0.1101 -0.4842 -0.2199
 6862W        W26396  14.057   1.759   4.199 -0.0585  0.0519  0.0254
 6863W        W26397  16.342  14.452   0.571 -0.1014  0.2443 -0.0359
 6864W        W26398  17.765  10.188  10.791  0.1737  0.3019 -0.0705
 6865W        W26399   9.816  12.454  12.144 -0.1520 -0.0931  0.0483
 6866W        W26400  15.230   0.121  12.368  0.0828 -0.0738  0.1228
 6867W        W26401   9.214   4.844  13.151 -0.0841  0.1066 -0.0248
 6868W        W26402   6.489   3.801  13.479 -0.2547  0.1958  0.1432
 6869W        W26403   3.683   5.731   1.428  0.0544 -0.3330 -0.2064
 6870W        W26404  11.050  17.300   1.056 -0.1299  0.1870  0.1409
 6871W        W26405  16.361   0.107   1.817 -0.1314  0.0009 -0.1987
 6872W        W26406  16.865   1.482  15.905 -0.2240 -0.0601  0.0701
 6873W        W26407  12.877  16.986   1.353 -0.1169  0.0788  0.1424
 6874W        W26408  16.310   4.957   3.230 -0.0806  0.1934 -0.3267
 6875W        W26409   6.327   8.030  15.025 -0.3730 -0.1083 -0.2252
 6876W        W26410   0.793  10.409   2.186  0.0644  0.1061  0.0055
 6877W        W26411  14.292   8.587  14.893 -0.2549  0.0288 -0.0544
 6878W        W26412  17.611  15.391  15.512 -0.0358 -0.2032  0.1038
 6879W        W26413  11.448  15.734  13.521  0.3306  0.3512 -0.3614
 6880W        W26414   3.432   3.132   3.179  0.4724 -0.0858 -0.1222
 6881W        W26415  17.741  14.525  13.429 -0.0660 -0.0172  0.0679
 6882W        W26416   9.214  13.006  13.667  0.5226 -0.1234 -0.1437
 6883W        W26417   0.812   5.660  13.080 -0.2017  0.0853  0.4110
 6884W        W26418   6.356   1.628  13.780  0.1092  0.2626  0.0036
 6885W        W26419   7.804   4.416   5.826  0.0986  0.0859 -0.1194
 6886W        W26420  11.576   0.353  13.958  0.1583  0.0565 -0.2995
 6887W        W26421  16.850   4.197  12.242  0.2269  0.1353 -0.1048
 6888W        W26422  16.958   9.662  13.906  0.2615  0.0906 -0.0146
 6889W        W26423  10.858  17.786  14.078  0.4603  0.1948  0.4107
 6890W        W26424  15.762   1.261  14.620 -0.0094  0.1731 -0.0202
 6891W        W26425   7.425   7.057  12.822  0.2208  0.3777  0.0871
 6892W        W26426  14.738   6.217   1.086  0.0360  0.2470  0.0652
 6893W        W26427  16.921   2.517   1.095  0.0738 -0.2262 -0.2476
 6894W        W26428  16.093   2.523  16.483  0.0387 -0.0226  0.2524
 6895W        W26429  17.648  12.941  16.274  0.0469  0.0012  0.2576
 6896W        W26430  16.760  17.604   4.048  0.1302  0.1148  0.2049
 6897W        W26431  17.531  17.759  15.160 -0.0465  0.2368 -0.2140
 6898W        W26432   2.172  14.995   4.332 -0.0452 -0.0405 -0.1090
 6899W        W26433  17.260   2.712  13.240  0.3032 -0.0009  0.0239
 6900W        W26434   3.480   2.903   0.747 -0.0481 -0.0007  0.3072
 6901W        W26435   5.142   6.902  15.610  0.1686  0.1220  0.1399
 6902W        W26436   0.770  17.158   2.683 -0.2183 -0.0004 -0.0899
 6903W        W26437   7.924   5.858   4.125  0.1144  0.2902  0.2192
 6904W        W26438  12.499  15.683   4.626  0.1646  0.2588  0.4624
 6905W        W26439  10.478  14.906  13.846 -0.2479  0.4080 -0.0284
 6906W        W26440   7.433   2.480   0.478 -0.1612 -0.3369 -0.2354
 6907W        W26441   3.908   0.703  15.652 -0.2564  0.0856  0.0953
 6908W        W26442   4.910   3.640   0.080 -0.1549 -0.1593  0.2629
 6909W        W26443  16.711   1.280  15.155  0.2171  0.3955  0.0414
 6910W        W26444  17.629   4.366  11.607  0.2124  0.2810  0.0286
 6911W        W26445  13.869  17.318   2.756 -0.3979  0.0531 -0.1255
 6912W        W26446   1.490   4.958   3.187 -0.0584 -0.0932  0.0942
 6913W        W26447   5.379  14.797  16.411  0.0756  0.0615 -0.1926
 6914W        W26448  11.255   3.604  13.766  0.0634  0.0024  0.0770
 6915W        W26449   1.352   5.364  11.842 -0.2292  0.1066  0.3267
 6916W        W26450   8.684   8.400  14.204  0.0021 -0.1125  0.3000
 6917W        W26451   8.541   7.785   4.433 -0.0148  0.0302  0.1900
 6918W        W26452  17.211   6.440  14.064  0.1725  0.3830  0.1294
 6919W        W26453  17.631   6.086   1.941  0.1534  0.0840 -0.0968
 6920W        W26454   2.562   7.419   3.371  0.1046 -0.1721  0.1652
 6921W        W26455   0.685   6.477   4.653  0.2053 -0.0231  0.2508
 6922W        W26456  14.815   5.061  12.286 -0.0541  0.0276 -0.1255
 6923W        W26457  15.489   7.005  14.861  0.1230 -0.1569 -0.0724
 6924W        W26458   7.927  15.152  13.284 -0.2173  0.0235  0.0485
 6925W        W26459  15.423  13.756  13.246 -0.0323  0.0557 -0.4166
 6926W        W26460   9.596  17.174   0.738  0.0311  0.5145 -0.5674
 6927W        W26461   7.239   6.327  14.138 -0.0789 -0.0606  0.3262
 6928W        W26462  16.369   8.355  12.900 -0.1506 -0.1292 -0.0204
 6929W        W26463   9.811   8.056   1.346 -0.1433 -0.1259  0.1422
 6930W        W26464  13.066   1.592   4.233 -0.1829 -0.1882  0.0938
 6931W        W26465  12.483  15.274   2.287  0.1670  0.0168  0.0967
 6932W        W26466   8.331  13.161  13.585 -0.0883 -0.1287 -0.0484
 6933W        W26467   9.137  12.555  13.695 -0.3031 -0.1147 -0.2945
 6934W        W26468  15.321  15.510   3.035 -0.1162 -0.0083  0.2282
 6935W        W26469   3.811   4.680   4.966 -0.0447 -0.1521  0.0658
 6936W        W26470   4.995   9.680  14.793 -0.2591 -0.1613  0.0176
 6937W        W26471  12.206   1.072   0.449 -0.0425 -0.2784 -0.0213
 6938W        W26472   9.216   0.091   3.838  0.0642 -0.1102  0.0124
 6939W        W26473   2.478   3.925  14.014  0.1064  0.0883  0.0789
 6940W        W26474   2.118   9.049   3.263  0.0844 -0.2474  0.1547
 6941W        W26475   5.520   6.732   5.359  0.0015 -0.0096 -0.0096
 6942W        W26476   1.772   2.840  16.532  0.3131 -0.0828 -0.2065
 6943W        W26477   5.483   4.380  16.403  0.1445 -0.0849  0.0543
 6944W        W26478   2.046  10.709  15.591 -0.0834 -0.3661 -0.4937
 6945W        W26479  14.839   0.308  15.620  0.1220  0.1045  0.1198
 6946W        W26480   8.318   2.834  12.543  0.0827 -0.0971  0.1324
 6947W        W26481   0.886  13.011  14.759 -0.0531 -0.2116  0.0830
 6948W        W26482  11.364  10.630   3.714 -0.2607  0.2041  0.1179
 6949W        W26483  16.407  15.010  12.239  0.1867  0.0547  0.5074
 6950W        W26484   2.178  10.935  13.011  0.2144 -0.0342  0.0142
 6951W        W26485   5.068   3.777  15.386  0.0273 -0.0277 -0.2204
 6952W        W26486   6.749  15.824   2.386  0.2206  0.3478 -0.1846
 6953W        W26487  14.457  16.766  12.694 -0.2148 -0.1247 -0.1352
 6954W        W26488   8.198   3.492  16.158  0.3205 -0.2068  0.1915
 6955W        W26489  10.752   2.592   3.284 -0.4671  0.1365 -0.1092
 6956W        W26490   8.849   7.832  14.159 -0.1528  0.0681  0.1158
 6957W        W26491   5.660  14.475   4.398 -0.1895 -0.2854 -0.1680
 6958W        W26492   4.576   7.016  13.944 -0.2566  0.3002 -0.0937
 6959W        W26493   2.644   4.554   0.081  0.3111 -0.1357 -0.0729
 6960W        W26494  10.084  12.677  14.919 -0.0652 -0.2568  0.0677
 6961W        W26495  11.377   3.491  13.294  0.2091  0.1516 -0.0927
 6962W        W26496   1.719   9.622   2.956  0.0016 -0.2000 -0.1624
 6963W        W26497   8.041   6.999   2.014 -0.1119 -0.1214  0.2508
 6964W        W26498   1.381  10.185  12.925 -0.0430 -0.0670  0.0343
 6965W        W26499   3.175  10.762   3.636 -0.3569 -0.0138  0.0382
 6966W        W26500   4.463   4.334  12.974  0.2091  0.1694  0.0913
 6967W        W26501  10.249   0.309  16.740 -0.0145  0.1216 -0.1295
 6968W        W26502  14.682   3.734  12.789 -0.1140  0.0564  0.1244
 6969W        W26503  11.818  12.788  14.227 -0.0863 -0.0969  0.1638
 6970W        W26504   5.192   6.507   1.711 -0.1516 -0.3400 -0.0958
 6971W        W26505  16.896   1.513   4.346  0.2800  0.2418 -0.3586
 6972W        W26506   0.631  11.922   0.094  0.2031  0.1339  0.1337
 6973W        W26507   8.593   8.423   3.327  0.1561 -0.0475  0.0691
 6974W        W26508   0.683   8.167   2.384 -0.1668 -0.1441  0.0979
 6975W        W26509  11.477   7.917   4.036  0.0675  0.2167 -0.1092
 6976W        W26510   5.102  10.314  14.830  0.2288  0.3575  0.2342
 6977W        W26511   6.072   2.317   3.546  0.0373  0.2104 -0.6287
 6978W        W26512  11.519  17.560  15.749  0.3682  0.3308 -0.1029
 6979W        W26513  10.471   8.709   0.969  0.1569 -0.0011  0.0555
 6980W        W26514   6.008  16.692  14.291  0.2319  0.2104  0.1188
 6981W        W26515   5.939   9.496  14.751 -0.0745  0.0248 -0.0299
 6982W        W26516   0.411   1.595  12.027 -0.0309  0.4219  0.1832
 6983W        W26517   1.584   6.592   4.038 -0.0483  0.2094 -0.0310
 6984W        W26518  15.916   6.057   4.501 -0.0505  0.1264 -0.0623
 6985W        W26519  17.797   8.318  11.865  0.1071  0.1974  0.0052
 6986W        W26520   6.645   1.090  12.035  0.1986  0.2033 -0.0858
 6987W        W26521  13.291  13.708  15.598 -0.3040  0.2207  0.0429
 6988W        W26522   0.675   6.566  14.266  0.2592 -0.2595 -0.0389
 6989W        W26523  15.437   8.289   3.723  0.1964 -0.3182  0.0493
 6990W        W26524   7.605   4.554  11.365 -0.0315  0.0562 -0.0242
 6991W        W26525   3.233   1.479   0.704  0.0010 -0.0100  0.0291
 6992W        W26526  15.785   2.358   1.159 -0.1587  0.0306 -0.1815
 6993W        W26527   8.115   2.416   0.814 -0.1311  0.0048 -0.2283
 6994W        W26528   7.030   4.230   1.362  0.1283 -0.0484  0.1527
 6995W        W26529   6.028   6.494   0.149 -0.0284  0.2382 -0.1304
 6996W        W26530   9.667   3.926  15.807 -0.0702 -0.0905 -0.0570
 6997W        W26531   4.984   9.978  12.927  0.1903 -0.1894 -0.2229
 6998W        W26532   4.867  10.224   3.308 -0.1313 -0.0153  0.2123
 6999W        W26533   7.095  14.897  15.217 -0.0539 -0.2978 -0.1608
 7000W        W26534   3.255   0.169  14.935  0.0411  0.3381  0.0341
 7001W        W26535  15.305   3.187  14.129  0.2202  0.3453 -0.2410
 7002W        W26536  16.919  10.470   4.289  0.2669 -0.0039  0.4895
 7003W        W26537   6.269   7.732   2.780  0.0592  0.1532 -0.1692
 7004W        W26538   3.500  13.545  13.039  0.0684 -0.2416  0.0846
 7005W        W26539   8.379   0.227  10.956  0.0402 -0.2678 -0.1408
 7006W        W26540   2.957   4.380  16.347  0.1480 -0.0744  0.1929
 7007W        W26541   4.147  10.804  12.661 -0.0322  0.0386  0.1341
 7008W        W26542  17.616  16.837   0.880  0.1312 -0.2531 -0.0178
 7009W        W26543   7.580   6.777   0.229 -0.1487 -0.3234  0.0736
 7010W        W26544  10.909  17.664   4.322 -0.2574  0.0634  0.0376
 7011W        W26545   8.757   9.978   3.717 -0.0518  0.0633  0.1846
 7012W        W26546  17.046   5.713   3.299  0.1534  0.1566  0.0565
 7013W        W26547  14.772   9.428  14.785 -0.2722  0.0281  0.0104
 7014W        W26548  16.299  16.634   2.521  0.0981 -0.0342 -0.0303
 7015W        W26549  15.138  16.310  13.159  0.2229  0.3008 -0.0010
 7016W        W26550   0.335  16.702  12.236  0.0831 -0.2386  0.0007
 7017W        W26551   6.681   5.943  12.298  0.1209 -0.0705 -0.0205
 7018W        W26552  15.350  10.573  15.656 -0.4852  0.1485  0.2021
 7019W        W26553  12.710  15.232   2.785  0.2827  0.1749 -0.1109
 7020W        W26554   3.952   1.983   4.406 -0.1167 -0.2569 -0.1070
 7021W        W26555  16.875  10.008   2.487 -0.0442  0.1459  0.0665
 7022W        W26556  16.848  15.446  15.206 -0.1137  0.1198 -0.0653
 7023W        W26557   7.339  17.032  16.308  0.2241  0.3304  0.0746
 7024W        W26558  11.968   4.848   0.373  0.2547  0.4013 -0.0845
 7025W        W26559  16.374  16.559  13.227 -0.0151  0.2115 -0.3716
 7026W        W26560  10.340  11.538   4.195 -0.0160 -0.0130 -0.2351
 7027W        W26561  13.108   2.055  15.050 -0.2657 -0.2170  0.4072
 7028W        W26562  12.808  11.257   1.621 -0.1170  0.2831 -0.0763
 7029W        W26563   2.109   2.710   2.173 -0.0944 -0.0206 -0.2660
 7030W        W26564  17.705  14.181   4.349  0.3425 -0.1690 -0.2718
 7031W        W26565  16.663   2.909   3.833 -0.0102 -0.0695 -0.0349
 7032W        W26566   1.342   6.307   1.972  0.1356  0.1668  0.4850
 7033W        W26567   6.919   9.735   0.627 -0.2688  0.0183  0.2312
 7034W        W26568  10.227  13.962  15.187 -0.0500  0.2562 -0.1932
 7035W        W26569  11.518   0.496   2.113 -0.0006  0.0672  0.0567
 7036W        W26570   6.020  10.471   3.915  0.1416 -0.3787 -0.0578
 7037W        W26571   1.779   3.600  15.066 -0.2308  0.0026 -0.1227
 7038W        W26572   6.965   6.942  13.561 -0.1336  0.0692  0.2895
 7039W        W26573  13.877   7.913   3.893 -0.1176  0.1583 -0.1359
 7040W        W26574   6.959  17.860   1.202 -0.2348 -0.1372 -0.0810
 7041W        W26575   8.663  14.183   1.814 -0.1483 -0.0059  0.1141
 7042W        W26576   5.964   5.260   3.115 -0.0451  0.0647  0.1742
 7043W        W26577   0.553   2.481   4.902  0.4115  0.1358 -0.2462
 7044W        W26578  13.830   9.823   0.270 -0.5050  0.2508 -0.1400
 7045W        W26579   6.298   6.371   3.289  0.2519  0.0040  0.0051
 7046W        W26580   5.197  13.604   3.614  0.1380  0.2116  0.0297
 7047W        W26581   8.233  10.800  12.833  0.4107 -0.1084  0.1621
 7048W        W26582   3.991   3.014   2.178 -0.2959 -0.3736 -0.4927
 7049W        W26583   6.395  17.906   3.864  0.3330  0.2089 -0.0909
 7050W        W26584   8.367   8.652  13.313 -0.1431 -0.0773 -0.1688
 7051W        W26585  16.916  14.811  14.793  0.1834  0.1862  0.1064
 7052W        W26586   4.829  16.212   0.300 -0.1786  0.1696  0.1819
 7053W        W26587   7.527  16.555   1.271 -0.1564 -0.4420 -0.2335
 7054W        W26588  16.662   6.917   1.928 -0.0978  0.0757 -0.0333
 7055W        W26589   8.716   8.593   2.259 -0.1275 -0.0265 -0.2623
 7056W        W26590   1.715   9.043   1.041 -0.3283 -0.0237  0.2215
 7057W        W26591   9.322  13.644   1.735 -0.0388  0.0984  0.2225
 7058W        W26592   1.045   0.728  11.916 -0.3004 -0.2243 -0.0804
 7059W        W26593   0.259  14.692  13.706 -0.0521  0.1710  0.1961
 7060W        W26594   7.840   1.756   3.520 -0.0702 -0.0640  0.2107
 7061W        W26595  11.737  16.690  13.937 -0.1761 -0.1190 -0.1817
 7062W        W26596   3.878  16.431  12.647 -0.2446  0.0744 -0.0859
 7063W        W26597   1.305  10.081  15.737 -0.0406  0.2891 -0.3382
 7064W        W26598   4.886  17.037   3.385 -0.1259  0.1633 -0.0359
 7065W        W26599  14.840  11.341   4.720  0.1656  0.1683  0.5128
 7066W        W26600   7.150   9.467   1.199  0.0132  0.4565 -0.1433
 7067W        W26601  14.089  14.445  13.509  0.0002  0.1434  0.0676
 7068W        W26602  17.109   3.662   2.990 -0.1427 -0.1049 -0.0048
 7069W        W26603  17.815   9.574  14.676 -0.0083  0.0872 -0.0220
 7070W        W26604  11.114  17.151  16.555  0.1964  0.1246 -0.1292
 7071W        W26605   7.206  14.611   3.208 -0.1509 -0.1233 -0.0168
 7072W        W26606   0.780   8.189   3.953  0.2348 -0.1708 -0.0892
 7073W        W26607  11.597  16.335   1.853  0.0632  0.1241  0.1092
 7074W        W26608  13.443   4.846   0.320  0.0393 -0.1063  0.0142
 7075W        W26609   3.533   1.132  12.789 -0.0624  0.0219  0.0845
 7076W        W26610   4.184  11.720  14.898 -0.0980  0.1719  0.2806
 7077W        W26611   2.848   5.854   4.075  0.0172  0.2152  0.0726
 7078W        W26612   1.161  16.217   1.962 -0.2446  0.0052 -0.0642
 7079W        W26613   8.988  14.266   0.753  0.0889 -0.0701  0.0316
 7080W        W26614   9.412  16.546   1.112 -0.1383  0.3181 -0.0018
 7081W        W26615  14.094  16.017  16.205 -0.0631 -0.3025  0.0262
 7082W        W26616   8.959  17.608  13.166 -0.2847 -0.2790 -0.1568
 7083W        W26617   1.433   5.263  16.361 -0.1692  0.0247  0.0027
 7084W        W26618   7.466   4.969  13.046  0.2261  0.0128  0.1740
 7085W        W26619   4.400   8.945   2.697 -0.2328  0.0882 -0.3109
 7086W        W26620   0.070  13.049  12.539  0.1705  0.0771 -0.2946
 7087W        W26621   2.258  12.680  13.830  0.0216 -0.1155 -0.1911
 7088W        W26622   5.827   7.089   0.045  0.3487  0.1536 -0.1410
 7089W        W26623   8.501   4.293   2.796  0.0340 -0.1593 -0.0179
 7090W        W26624   9.045  11.694   2.754  0.0703  0.2642  0.0871
 7091W        W26625  17.570   5.579   1.094 -0.0346 -0.2378  0.0740
 7092W        W26626  14.214   1.607  14.579  0.0220 -0.0729 -0.1321
 7093W        W26627  13.877   4.413  12.365 -0.0898 -0.0119  0.1801
 7094W        W26628  14.236  12.448  11.729 -0.0569  0.2063 -0.0297
 7095W        W26629   6.904   1.906  16.521  0.0644  0.1159  0.2887
 7096W        W26630   8.503  10.894   2.633  0.0116 -0.0979 -0.1985
 7097W        W26631   6.692   8.559  12.136 -0.1234  0.0856  0.2032
 7098W        W26632   7.850  14.293   0.177 -0.2117 -0.1622 -0.1562
 7099W        W26633  15.110  10.182  15.846  0.2608 -0.1708  0.0705
 7100W        W26634   5.850  11.647  11.054 -0.0108 -0.0914 -0.1070
 7101W        W26635  12.469   5.258   3.164  0.1964  0.1785 -0.2263
 7102W        W26636   6.878  13.796  14.603  0.1388 -0.1569  0.3476
 7103W        W26637  17.069  12.772   3.286  0.0268 -0.0633  0.1630
 7104W        W26638  10.788   0.012   2.106 -0.1757 -0.3325 -0.0859
 7105W        W26639   9.642   3.619  16.188  0.0878 -0.2029 -0.0114
 7106W        W26640   6.995  11.737  16.157  0.0147 -0.1051 -0.0532
 7107W        W26641   3.407  16.794   2.617  0.1489  0.3219 -0.2192
 7108W        W26642  10.973  16.207   3.601  0.1370  0.1404 -0.1992
 7109W        W26643   3.690   3.682  15.728  0.1479 -0.0494  0.1012
 7110W        W26644   8.697  13.329   4.831 -0.1014 -0.1275  0.1242
 7111W        W26645  17.634   4.529   3.474 -0.0770  0.0708 -0.3068
 7112W        W26646   2.507   2.476  11.795  0.0789  0.0125 -0.0823
 7113W        W26647   0.496   0.074  16.065  0.0498 -0.0031 -0.0865
 7114W        W26648  13.601   6.575  14.893  0.0188 -0.0400 -0.1840
 7115W        W26649  15.959  10.315  13.956 -0.1073  0.0840  0.4473
 7116W        W26650   2.734   7.484   1.871 -0.0639 -0.1485 -0.0371
 7117W        W26651   3.770   7.680  16.045 -0.0474 -0.1848  0.0599
 7118W        W26652   6.227   9.259  14.461 -0.4138 -0.4085  0.0150
 7119W        W26653   6.462  13.141  12.220 -0.1935 -0.0312 -0.0391
 7120W        W26654   6.532   4.476   4.444 -0.2259  0.0044 -0.1555
 7121W        W26655   5.101  16.669  14.336 -0.0790 -0.1503  0.3936
 7122W        W26656  17.550  15.557   1.665 -0.4653 -0.0700 -0.1649
 7123W        W26657  17.665   7.108  12.651 -0.2776 -0.2702 -0.2378
 7124W        W26658   0.208  16.534  16.486 -0.1122  0.2068 -0.1551
 7125W        W26659   8.205  13.291   0.207 -0.1489 -0.3441 -0.1794
 7126W        W26660   1.046  16.548   4.037  0.4503 -0.1049 -0.0156
 7127W        W26661   4.606  12.604  12.743  0.0185 -0.0322 -0.3125
 7128W        W26662  14.431   9.138   1.734  0.0364  0.1588  0.1400
 7129W        W26663  13.622   1.204   2.400  0.1512 -0.1984  0.0672
 7130W        W26664   3.686   5.215  16.534  0.1232  0.2355 -0.1968
 7131W        W26665   7.270  12.895   2.508  0.0437  0.1009  0.3948
 7132W        W26666  13.975  16.897   5.142 -0.1891  0.1971  0.1036
 7133W        W26667   9.181   8.343  13.391  0.0179  0.1113 -0.2070
 7134W        W26668   8.676   9.012  13.512 -0.1474 -0.1715  0.1040
 7135W        W26669   1.634   9.759   0.354  0.0135  0.0234 -0.0833
 7136W        W26670  10.175  17.471   2.154  0.2650  0.0069  0.0231
 7137W        W26671  12.884   7.094   0.033 -0.2520  0.0282  0.1818
 7138W        W26672   3.705  16.619  15.465 -0.0470 -0.1395  0.1096
 7139W        W26673  16.309   9.631   0.382 -0.2642 -0.1302  0.1454
 7140W        W26674  17.617   2.594   4.158 -0.0100  0.3040 -0.1522
 7141W        W26675  15.604  14.760   0.229 -0.3667  0.1392  0.0745
 7142W        W26676   2.178  15.046   0.811  0.3537  0.0994 -0.3251
 7143W        W26677   8.944  13.179   3.802  0.1001 -0.1964  0.1463
 7144W        W26678  16.047   5.561  13.869 -0.0785 -0.0228  0.0623
 7145W        W26679  11.427   4.693  11.393 -0.1909 -0.1320 -0.1199
 7146W        W26680  15.792  15.761   2.427 -0.0869  0.0231  0.2280
 7147W        W26681   8.827   7.622  16.318  0.3207  0.1823 -0.0019
 7148W        W26682   2.634  14.816   3.542 -0.0558 -0.1695  0.1882
 7149W        W26683   1.960   0.477   4.729  0.0152  0.1484 -0.0310
 7150W        W26684   3.953   2.162   0.756  0.0317  0.2346  0.2584
 7151W        W26685   1.028  13.718  14.604  0.1152 -0.0538 -0.2649
 7152W        W26686   9.270   6.723  11.677 -0.4238 -0.1528  0.0533
 7153W        W26687   2.220  14.493   4.987  0.0904 -0.0425  0.1971
 7154W        W26688   0.226   9.929  13.487 -0.2939  0.1486 -0.1402
 7155W        W26689   6.262   2.138   2.529 -0.1995  0.2115  0.0904
 7156W        W26690  11.882   4.075  11.654  0.1480  0.3352 -0.2410
 7157W        W26691   8.504   5.652  14.339  0.0070 -0.0135 -0.2056
 7158W        W26692   9.125   3.116   4.233  0.0564 -0.1854  0.1864
 7159W        W26693   1.007  10.961   2.807  0.2372 -0.0758  0.0336
 7160W        W26694  12.835  14.143  12.972  0.0603 -0.0750 -0.1350
 7161W        W26695   2.542  10.253  13.804  0.3213  0.1197 -0.0263
 7162W        W26696   0.750   9.809  14.074  0.1949 -0.1739  0.0326
 7163W        W26697  17.235  14.781   3.529 -0.0405  0.1714 -0.0431
 7164W        W26698   8.226   2.788  15.153  0.1198  0.0481  0.0087
 7165W        W26699   3.987   4.376  11.629  0.0517  0.2351 -0.0165
 7166W        W26700  13.036   9.033   0.444 -0.1254 -0.1594  0.1032
 7167W        W26701   2.832  10.408  14.971 -0.3562 -0.2104 -0.0907
 7168W        W26702  15.769  17.905   4.174 -0.1506  0.0276 -0.0168
 7169W        W26703   4.726  17.033  16.684  0.2065 -0.0575  0.2620
 7170W        W26704   9.142  16.656   1.457  0.0943 -0.2658 -0.3037
 7171W        W26705  10.002  10.857   4.609  0.2352  0.3538 -0.0599
 7172W        W26706   6.466   1.372  13.319  0.2643  0.2231 -0.3837
 7173W        W26707   0.691   2.208  13.741  0.3144  0.3537  0.2020
 7174W        W26708   9.117  12.275   1.441 -0.4147 -0.1092 -0.3078
 7175W        W26709  16.446  11.159   0.154  0.3421  0.2133  0.2209
 7176W        W26710   0.796   8.859  16.295 -0.0372  0.1448  0.0789
 7177W        W26711   0.027  12.344  11.048  0.2700  0.2221 -0.2973
 7178W        W26712  13.326   5.632  15.028  0.3396 -0.0277  0.0218
 7179W        W26713  10.585   8.534  13.627  0.1107  0.0707  0.0524
 7180W        W26714  12.630  12.053   3.845  0.0650  0.1437 -0.0891
 7181W        W26715   1.559   9.260   3.947  0.1381 -0.0766  0.0310
 7182W        W26716   4.900   5.177  14.398  0.2185 -0.0008  0.1238
 7183W        W26717  15.280   1.273  13.131  0.4776 -0.0693  0.0582
 7184W        W26718  13.042  12.501  14.737 -0.0941 -0.0067 -0.0586
 7185W        W26719  12.306   0.126  14.929 -0.2313 -0.2302 -0.2655
 7186W        W26720   1.124   3.557  12.385  0.1385 -0.3025 -0.3762
 7187W        W26721   8.174   1.549  12.719 -0.2440 -0.1895 -0.1161
 7188W        W26722  13.988   6.328   1.567  0.0680 -0.0906  0.3189
 7189W        W26723   5.279   7.617  14.794  0.0748 -0.1544  0.1198
 7190W        W26724  11.366   1.219  16.107 -0.0926  0.0246 -0.0757
 7191W        W26725   3.860  10.813  16.588  0.2559 -0.3813  0.1091
 7192W        W26726   5.046   9.532   0.341 -0.1967  0.1345 -0.0170
 7193W        W26727   7.718  12.879  12.723 -0.0198  0.0646  0.1577
 7194W        W26728   5.564   0.823  13.369  0.0225 -0.0166 -0.3046
 7195W        W26729   0.784  14.315   1.235 -0.2989 -0.0457 -0.2009
 7196W        W26730   4.133  16.224   3.226  0.1147 -0.1462  0.0868
 7197W        W26731   8.910   3.299  14.776 -0.3432 -0.2412  0.0826
 7198W        W26732   8.465   2.948   0.712 -0.1006 -0.0625  0.4497
 7199W        W26733  10.815   1.874   4.523  0.1171  0.4825 -0.1217
 7200W        W26734  11.843   0.870  12.820 -0.1982  0.1004  0.0844
 7201W        W26735  15.828  13.393   0.274  0.0225  0.0296 -0.1254
 7202W        W26736  17.392   2.215   4.391  0.1406 -0.1632  0.4690
 7203W        W26737   7.341  12.118   3.551 -0.0008  0.2760  0.0457
 7204W        W26738   7.507   4.676   4.286  0.1207  0.0644 -0.2417
 7205W        W26739   9.486  11.280   3.557 -0.1318 -0.1849  0.2458
 7206W        W26740  16.082  17.495  15.933  0.0274 -0.1602 -0.1216
 7207W        W26741   8.233   6.721   4.640 -0.0341  0.0011  0.4898
 7208W        W26742   1.867   2.338   2.407 -0.4294 -0.3898 -0.1410
 7209W        W26743   8.782   5.084  12.220 -0.0261  0.1102 -0.2165
 7210W        W26744   9.892   2.755  13.254  0.0281 -0.0786  0.1491
 7211W        W26745   5.027  17.449   3.726  0.0340 -0.1612 -0.1009
 7212W        W26746   3.256   9.177   3.116  0.3965 -0.3436  0.0612
 7213W        W26747  13.458  12.036   1.430 -0.0161 -0.1487  0.0280
 7214W        W26748   8.995  11.465  13.687  0.0837 -0.2917  0.1193
 7215W        W26749   5.010   1.494   0.341  0.0027 -0.2411  0.3862
 7216W        W26750  17.304  14.007   0.092  0.3630 -0.0393  0.0875
 7217W        W26751   2.139   1.941   4.820 -0.3652 -0.0062  0.0324
 7218W        W26752   4.407   0.410   2.337  0.0020 -0.0285  0.1735
 7219W        W26753   9.473   6.592   1.428 -0.2798  0.2878 -0.1521
 7220W        W26754   0.800  11.251  15.138 -0.1379  0.0207  0.3197
 7221W        W26755  10.405   7.937   0.391 -0.2965  0.2460  0.0142
 7222W        W26756   3.571  11.052   2.790  0.1796  0.0112  0.0490
 7223W        W26757   1.095  10.461   1.098 -0.0025 -0.0439  0.3396
 7224W        W26758  17.649   4.340   2.092 -0.0058 -0.0417 -0.2592
 7225W        W26759   0.523   3.112  15.756 -0.0170 -0.2367  0.1886
 7226W        W26760  12.569   8.104   0.035 -0.1537 -0.0647  0.0549
 7227W        W26761  14.889  13.126  13.843 -0.0672 -0.2797  0.0927
 7228W        W26762  11.464   8.184   4.696 -0.1738  0.2284  0.1142
 7229W        W26763  11.083   5.239   5.032  0.2224  0.1142 -0.1329
 7230W        W26764   8.915   3.326   0.565  0.1815 -0.3066 -0.1084
 7231W        W26765   3.021  17.084   1.210 -0.1216 -0.1467 -0.0619
 7232W        W26766  13.136   2.467  12.345  0.1062 -0.0846 -0.1875
 7233W        W26767   4.135  11.392   0.457 -0.1200 -0.0571  0.1330
 7234W        W26768  16.441   8.501   3.370  0.0326 -0.4138  0.1359
 7235W        W26769   9.248  13.514   2.218 -0.0750 -0.1178  0.2581
 7236W        W26770   2.488   5.053   3.990  0.0069 -0.0257 -0.0995
 7237W        W26771   4.062   7.339  15.260 -0.2330 -0.0889  0.0030
 7238W        W26772   1.931   4.949  14.185 -0.0110 -0.1108  0.2492
 7239W        W26773   2.774   8.721  15.969 -0.1733 -0.0829  0.0262
 7240W        W26774   2.296   1.054   2.739 -0.1564  0.0369  0.0215
 7241W        W26775   7.078  11.546   2.932  0.0749 -0.1478  0.1242
 7242W        W26776   7.053  10.849   3.701 -0.0448  0.2404  0.2493
 7243W        W26777  17.854  14.518   1.322 -0.2401 -0.2484 -0.0295
 7244W        W26778  10.714   7.565   2.889 -0.2974 -0.0619 -0.0529
 7245W        W26779  15.414   2.810  15.119 -0.0901 -0.1462 -0.3448
 7246W        W26780   8.106  14.158   2.109 -0.0426  0.0739  0.1330
 7247W        W26781  16.838   2.412  14.679  0.0939  0.2838  0.0721
 7248W        W26782   5.337  12.450  12.803  0.3712 -0.2197 -0.0616
 7249W        W26783  13.226  10.527   0.361 -0.2461 -0.3389 -0.0480
 7250W        W26784   6.372   0.648  15.907  0.1344 -0.2425  0.0785
 7251W        W26785  11.135  16.414   2.004 -0.2819  0.1303  0.2817
 7252W        W26786  13.018   1.803   0.046 -0.4038 -0.0941 -0.1110
 7253W        W26787  10.282   4.891   5.872 -0.2776  0.1604  0.0543
 7254W        W26788   6.299   7.103  12.060  0.1374 -0.0567  0.1124
 7255W        W26789   1.238  17.263  16.171  0.0373  0.3054 -0.2406
 7256W        W26790   0.092   9.141  11.557 -0.0592  0.2059 -0.0914
 7257W        W26791   2.461  14.545  12.634  0.0861  0.1807  0.0561
 7258W        W26792  12.060   0.548  12.015 -0.0115  0.2087  0.4490
 7259W        W26793  15.696   8.854   3.843  0.0094  0.0395 -0.0481
 7260W        W26794   2.488   9.699   2.614  0.0830 -0.0667  0.1083
 7261W        W26795  12.589  17.617  12.631  0.0069  0.1365  0.2196
 7262W        W26796   9.387   6.123  12.847 -0.0722  0.2266  0.3056
 7263W        W26797   5.282   7.064  16.085 -0.0192 -0.0860  0.0812
 7264W        W26798  10.263   4.934  15.824 -0.1549  0.0356 -0.0166
 7265W        W26799   4.328   4.778  15.454 -0.0363 -0.1039  0.2130
 7266W        W26800   9.796  17.906  16.525 -0.0253  0.2514  0.2006
 7267W        W26801   2.966   7.710   2.926  0.1239 -0.0095 -0.0575
 7268W        W26802  12.816  16.283  16.276 -0.2417 -0.0784 -0.2773
 7269W        W26803   6.550  11.750  13.696 -0.0358  0.1243  0.2144
 7270W        W26804   9.719   2.097   1.508 -0.1254  0.2837 -0.0515
 7271W        W26805   9.270   0.624  16.009 -0.2582 -0.2504 -0.1796
 7272W        W26806  13.874   2.997  12.271  0.0364  0.0901 -0.0720
 7273W        W26807   1.435  12.316   3.035 -0.1517 -0.1981  0.3674
 7274W        W26808   3.707   5.999  12.018 -0.1671 -0.3715 -0.1474
 7275W        W26809   5.165   8.228   4.598 -0.2231 -0.1708  0.0071
 7276W        W26810   1.933   1.460   2.710  0.3496  0.2164  0.1118
 7277W        W26811   0.385  12.300  14.169  0.0031 -0.3332  0.0240
 7278W        W26812  11.404   0.602   4.388  0.0890  0.1117 -0.1088
 7279W        W26813  11.866  17.094   1.795 -0.1097 -0.0879  0.2265
 7280W        W26814  17.120   1.549  14.972  0.0675  0.1613  0.1082
 7281W        W26815   7.723  17.290   0.802 -0.0094  0.0442  0.1311
 7282W        W26816  10.796  11.307   3.526 -0.0764  0.3425 -0.1446
 7283W        W26817  15.504   1.371   3.983  0.0491  0.4753  0.0118
 7284W        W26818  13.835  13.023   0.649  0.0084  0.0412  0.0817
 7285W        W26819  11.630  11.538   4.188 -0.0075 -0.0141  0.1894
 7286W        W26820   9.625   0.104  14.694 -0.0952  0.1121 -0.1270
 7287W        W26821   3.587   9.018   1.378 -0.1590  0.1158  0.0503
 7288W        W26822   9.391   7.872   0.081  0.2333 -0.1364  0.1526
 7289W        W26823   0.909   2.541   2.257  0.1462  0.2375 -0.1421
 7290W        W26824  12.366  15.874   1.856 -0.3076  0.1238 -0.0181
 7291W        W26825   8.132   8.505  11.926  0.0114  0.0605 -0.2935
 7292W        W26826   3.505  17.875   2.626 -0.1379 -0.0014  0.1696
 7293W        W26827   2.302  14.254  14.629 -0.2902  0.3769  0.1812
 7294W        W26828   0.869  14.834   2.115  0.2272 -0.0466 -0.0612
 7295W        W26829   1.053   8.600   2.254 -0.1179 -0.0583  0.2188
 7296W        W26830  16.732  16.126  14.488  0.1888 -0.1241 -0.1766
 7297W        W26831   8.679  13.339  13.068  0.0117 -0.0440 -0.0569
 7298W        W26832   7.324  13.055  16.279 -0.0933 -0.1696  0.2484
 7299W        W26833  12.166   8.155  12.036 -0.0602  0.0453  0.2077
 7300W        W26834   9.300   5.515   1.639 -0.0313  0.0179  0.0247
 7301W        W26835   5.775   0.357   0.402  0.1811 -0.1682  0.4809
 7302W        W26836   8.310   1.690   0.052  0.0329 -0.2457 -0.1109
 7303W        W26837   1.454  17.193   2.650 -0.1226 -0.3048  0.0245
 7304W        W26838  13.550   4.067  16.333 -0.0568  0.1982 -0.0737
 7305W        W26839   5.027  11.768   4.540  0.0063 -0.1259 -0.4622
 7306W        W26840   5.385   5.193   1.170 -0.1782  0.1358  0.0566
 7307W        W26841   3.074   6.362   1.643  0.5369 -0.1199  0.0461
 7308W        W26842  11.646  14.075  14.075  0.0691 -0.0892  0.3655
 7309W        W26843  15.453   4.794   3.512 -0.1067  0.0587 -0.1253
 7310W        W26844  10.069  11.378   2.818  0.0167 -0.3148 -0.2683
 7311W        W26845  10.766   7.755   0.733  0.0634 -0.0200 -0.2253
 7312W        W26846   7.065   6.619  11.614  0.0467  0.0284  0.1323
 7313W        W26847  10.474   5.337  13.323  0.4492 -0.1067  0.2376
 7314W        W26848   9.403   6.948  13.428 -0.1048  0.1546 -0.1021
 7315W        W26849   1.843   2.993  15.970 -0.0502  0.0181 -0.1493
 7316W        W26850  13.284   3.386   3.062  0.1523 -0.2337  0.2469
 7317W        W26851  16.220   1.599   1.945 -0.0325 -0.2824  0.0606
 7318W        W26852  14.137  15.682  13.912 -0.2930  0.2825  0.0497
 7319W        W26853   1.447   9.401   0.054  0.0103 -0.1761  0.3416
 7320W        W26854   3.278  15.509   2.146 -0.2707 -0.0242 -0.0226
 7321W        W26855   4.428  12.248   1.374 -0.3556 -0.2545  0.0686
 7322W        W26856   0.866   7.530   2.898 -0.3162  0.0206  0.1200
 7323W        W26857   1.703   4.389   4.449  0.1656  0.0635 -0.1784
 7324W        W26858   7.884  12.596   1.256 -0.2365 -0.1909 -0.3001
 7325W        W26859   8.200   8.718  16.127 -0.1594 -0.1665  0.0471
 7326W        W26860   3.724   5.908  15.788 -0.0903 -0.3245 -0.4198
 7327W        W26861  16.920   5.088  13.884 -0.0552 -0.0518 -0.0257
 7328W        W26862   7.670  17.653   2.321  0.0980 -0.1201 -0.3388
 7329W        W26863   0.316   0.742   0.539  0.1679  0.0199  0.0690
 7330W        W26864  13.163  16.466  15.948  0.2276 -0.1912 -0.0874
 7331W        W26865  14.685  11.717  14.898 -0.1597  0.1865 -0.4696
 7332W        W26866  10.767  14.129   3.643  0.1836  0.1631 -0.1293
 7333W        W26867   6.679  16.342   1.906 -0.2670  0.1255 -0.0093
 7334W        W26868  16.636   8.146   2.771 -0.2999  0.2065 -0.2504
 7335W        W26869  17.868  15.195  13.358 -0.0446  0.1724 -0.3633
 7336W        W26870  16.558  17.340   0.491 -0.2495  0.0474  0.0468
 7337W        W26871   1.764   3.388   3.554 -0.2295 -0.0618  0.1624
 7338W        W26872  12.131   2.783   4.958 -0.1239 -0.0121 -0.3208
 7339W        W26873  16.798  16.028  16.724 -0.0352  0.0683 -0.3018
 7340W        W26874   6.438   0.780  13.032 -0.2745 -0.0961 -0.2927
 7341W        W26875   6.998  14.867   5.227 -0.0494  0.2132 -0.0852
 7342W        W26876   4.167   3.829  15.736  0.1505 -0.0601  0.1730
 7343W        W26877  14.870  15.380  16.556  0.1400 -0.2824 -0.3194
 7344W        W26878  17.325  17.451   5.329  0.1628 -0.0995 -0.2018
 7345W        W26879   1.669   1.735  13.770  0.1638  0.0323  0.1773
 7346W        W26880   4.611   3.058  14.734  0.0192 -0.4003 -0.1574
 7347W        W26881   7.123   9.563  14.914 -0.1773  0.1018  0.1917
 7348W        W26882  12.079  12.788   0.727 -0.0754  0.1169 -0.1746
 7349W        W26883  10.788   6.393  14.563 -0.0521 -0.3522 -0.1497
 7350W        W26884   0.377   6.351   2.738  0.2117  0.0267 -0.4262
 7351W        W26885   7.495  12.970   2.926  0.0060 -0.1866  0.1285
 7352W        W26886   4.739   3.209  12.554  0.1647 -0.0190 -0.2318
 7353W        W26887   3.761  16.444  13.181  0.2574 -0.2071  0.1861
 7354W        W26888  15.517  13.736  14.742  0.1900  0.2905  0.2360
 7355W        W26889   1.769  12.261   5.563  0.0493  0.1623 -0.0906
 7356W        W26890  16.716   1.697  16.509  0.4409  0.0072  0.0692
 7357W        W26891  13.789   8.332   4.326 -0.3337 -0.1176 -0.1716
 7358W        W26892   9.275  14.218  12.408  0.1939 -0.0221 -0.1153
 7359W        W26893  14.269   7.769   3.596  0.3279 -0.4745  0.1766
 7360W        W26894   1.239   2.132   1.538 -0.3559  0.1154  0.1236
 7361W        W26895   0.726   2.264  16.609  0.1481  0.3024  0.0284
 7362W        W26896  10.323   3.563   4.664  0.0370  0.0525  0.1762
 7363W        W26897  15.143   7.365  14.721  0.0204 -0.1194  0.0126
 7364W        W26898   0.988   8.456  12.778  0.0431  0.1145  0.1444
 7365W        W26899  15.561   2.037   3.335 -0.3536  0.0952 -0.1292
 7366W        W26900  13.427  16.722   1.395  0.1613  0.2363 -0.2655
 7367W        W26901   6.022   0.701  13.574  0.3273  0.4526 -0.1305
 7368W        W26902  12.060   4.953  12.833  0.1863 -0.1015  0.4643
 7369W        W26903   2.248   1.069  16.516 -0.1244 -0.1862  0.1465
 7370W        W26904   0.081   5.602  16.241  0.2478 -0.1342 -0.1557
 7371W        W26905   1.460  17.359   2.185 -0.0664  0.2897 -0.2660
 7372W        W26906  10.041   8.254  16.275  0.2026 -0.0181 -0.1605
 7373W        W26907   1.170   1.516   0.191  0.5664  0.3209 -0.1880
 7374W        W26908   9.935   9.546   4.572  0.2938 -0.1563 -0.0444
 7375W        W26909  13.766  15.026   0.201  0.0030  0.0022  0.2536
 7376W        W26910  17.769   7.123  15.986  0.0714  0.3733 -0.0679
 7377W        W26911   2.394   0.096  15.086 -0.2072 -0.0584  0.1724
 7378W        W26912  12.399   0.873  13.474  0.3765  0.1440  0.1958
 7379W        W26913   9.290   6.090   1.252  0.1334  0.1520 -0.0666
 7380W        W26914  11.629   0.592   1.034  0.1213 -0.1636  0.0206
 7381W        W26915  10.431   1.367   0.247 -0.0992  0.1162  0.0054
 7382W        W26916   0.345  17.405   2.545 -0.0503 -0.1445  0.3492
 7383W        W26917  11.833   2.990  14.652 -0.0421  0.1487  0.4723
 7384W        W26918   9.335   4.750  13.727  0.1406 -0.0972  0.2792
 7385W        W26919  16.794   6.199  16.230  0.0300 -0.0689 -0.0018
 7386W        W26920   8.876  12.340  11.969  0.3468  0.0760 -0.1957
 7387W        W26921   5.257   9.414   1.294 -0.0454  0.0754  0.0949
 7388W        W26922   5.753   9.459  13.561 -0.2669 -0.3395  0.3832
 7389W        W26923   8.559  15.551   4.614 -0.0872 -0.2286 -0.0780
 7390W        W26924   0.795   4.743  12.538 -0.0746  0.0694  0.0118
 7391W        W26925   6.448  13.342  15.459  0.0518 -0.0677 -0.0039
 7392W        W26926   9.874   7.690  14.924  0.1020  0.1518  0.1601
 7393W        W26927   1.358  13.762   1.448 -0.1031 -0.0410 -0.1657
 7394W        W26928   5.873  16.126  16.500  0.3274  0.4690 -0.4611
 7395W        W26929  16.657   7.414   1.543  0.0165  0.0928 -0.1189
 7396W        W26930  11.284  13.377   4.104 -0.0067  0.2832 -0.3243
 7397W        W26931   5.065  17.219  13.418 -0.0583 -0.0244 -0.1593
 7398W        W26932  14.330  10.937  16.663  0.0114  0.0820 -0.2260
 7399W        W26933   4.554   7.977   3.991 -0.0033  0.0592 -0.1142
 7400W        W26934   6.552   6.412  11.592  0.2718 -0.0316 -0.1874
 7401W        W26935   8.011   8.700  14.289 -0.0251  0.1710  0.0908
 7402W        W26936  11.664   3.039   2.340  0.1106  0.0295  0.1694
 7403W        W26937   7.294   0.658  13.376  0.4381 -0.1801  0.0885
 7404W        W26938  14.935   6.300  13.535  0.1406 -0.0689 -0.0548
 7405W        W26939   5.096   5.523   1.435  0.0781 -0.2225  0.0587
 7406W        W26940   1.536   1.235   1.307 -0.0099 -0.1399  0.1151
 7407W        W26941   4.879  12.921   2.019  0.2038 -0.2456  0.0996
 7408W        W26942   3.082   3.732  14.270  0.0508 -0.2703  0.0438
 7409W        W26943   2.784   3.444  15.895 -0.0741 -0.2234 -0.1970
 7410W        W26944  15.582  17.803   3.188  0.2145 -0.2052  0.3206
 7411W        W26945   9.966   7.440   2.829  0.0624 -0.1394  0.0722
 7412W        W26946  17.858   6.987   4.365 -0.0730  0.1886  0.0136
 7413W        W26947   1.258   7.237  15.096 -0.2123 -0.2943  0.2215
 7414W        W26948  12.664   7.187   1.823 -0.1429 -0.1833 -0.3991
 7415W        W26949  12.127  17.361  12.557  0.1934 -0.1160 -0.0266
 7416W        W26950   8.858   2.108  12.779 -0.0095 -0.1113  0.2555
 7417W        W26951   0.181  17.546  15.405  0.0723 -0.1154 -0.1986
 7418W        W26952   1.936   1.244   4.106  0.2749 -0.1484  0.1910
 7419W        W26953   8.192   0.046   1.692 -0.0467 -0.1959  0.2369
 7420W        W26954   2.960  16.036   4.516 -0.3108 -0.2042  0.0904
 7421W        W26955  15.701   5.229   2.653 -0.1614  0.0945 -0.1107
 7422W        W26956  12.591  16.617  11.978  0.1575 -0.0336 -0.0845
 7423W        W26957   7.566   7.923   4.411  0.2471 -0.1321  0.1356
 7424W        W26958   5.873  12.603   1.933  0.1120 -0.0412  0.0465
 7425W        W26959   5.565   5.122  15.210 -0.0306 -0.1278 -0.2314
 7426W        W26960  14.596  10.071  12.867 -0.0476  0.0303  0.4726
 7427W        W26961   7.117   0.615   0.288 -0.2713  0.1380 -0.3282
 7428W        W26962   6.797   5.744   3.089  0.0768  0.0730 -0.2524
 7429W        W26963  16.427   7.705  16.352  0.1275  0.3493 -0.2334
 7430W        W26964  16.653   0.903   1.448 -0.1620  0.0266  0.2042
 7431W        W26965   9.202   2.206   4.332  0.3462 -0.0571 -0.4081
 7432W        W26966   9.062  13.149  12.089 -0.0549  0.0183 -0.1484
 7433W        W26967  17.863   9.428  13.564  0.0622 -0.1460 -0.2664
 7434W        W26968  14.269  14.147  12.656  0.1237 -0.0577  0.1601
 7435W        W26969   4.189  11.426   2.927 -0.1564  0.1155  0.3676
 7436W        W26970   6.124  13.667  13.721  0.0476 -0.3648  0.0407
 7437W        W26971  14.367   4.893   1.786 -0.0276  0.0531 -0.3520
 7438W        W26972  17.866  14.486  15.524 -0.0063  0.0122  0.0495
 7439W        W26973   6.528   2.194  12.483  0.1046  0.1666 -0.0580
 7440W        W26974   7.490  17.059   0.329  0.0320  0.1449 -0.2755
 7441W        W26975   7.565   6.683  14.240 -0.0695  0.0620 -0.4228
 7442W        W26976   0.156   0.104  16.512 -0.1494 -0.1208 -0.0703
 7443W        W26977  17.552   4.281  15.969  0.0088  0.1119 -0.0740
 7444W        W26978   6.149   5.097   2.020  0.0689  0.0960  0.0165
 7445W        W26979   9.551  16.968  13.381  0.0505  0.0708  0.2207
 7446W        W26980  12.172  14.443   4.040 -0.1763  0.3647  0.2304
 7447W        W26981  16.904  13.432  16.095 -0.2030 -0.2491  0.0489
 7448W        W26982  15.202  10.256  13.923 -0.1406  0.0138 -0.1183
 7449W        W26983   6.969  12.759  14.645 -0.1009 -0.1099  0.3994
 7450W        W26984   8.007  11.662   2.475  0.0255 -0.1303  0.0900
 7451W        W26985  12.402   6.520  13.971  0.1328  0.0834  0.1007
 7452W        W26986   5.289  13.694  13.119 -0.1200 -0.3322  0.5019
 7453W        W26987   3.215  16.096  16.004  0.0836  0.1134  0.1414
 7454W        W26988   9.264  12.773   0.801 -0.0161  0.0833  0.0855
 7455W        W26989  14.101   2.248  14.113 -0.1564  0.2992 -0.0337
 7456W        W26990   3.507   1.928  13.235  0.1009  0.1541 -0.2920
 7457W        W26991  13.525   4.550  13.679  0.0778  0.1195  0.2254
 7458W        W26992   8.688  10.556   1.467  0.0958 -0.0624 -0.1060
 7459W        W26993  15.163   5.597   2.654  0.1206  0.1506 -0.1628
 7460W        W26994   8.213  15.477  15.562  0.2366  0.0607  0.1411
 7461W        W26995  12.891   4.402  12.375 -0.1991 -0.2360  0.1114
 7462W        W26996  17.084  12.955   1.521 -0.1521 -0.1480 -0.0136
 7463W        W26997  14.593  11.471   4.256  0.3646 -0.1854 -0.0276
 7464W        W26998   2.398  11.823  14.924  0.2724 -0.0451  0.1004
 7465W        W26999   9.376   3.656  16.610 -0.0529  0.0042 -0.1417
 7466W        W27000  16.874  16.279   4.860  0.2740  0.0288  0.0028
 7467W        W27001   2.096   8.564  15.390 -0.0979 -0.0735 -0.1144
 7468W        W27002   9.919   9.657   5.058 -0.0198 -0.0905  0.1482
 7469W        W27003   6.599   5.024  15.683  0.1549  0.0007  0.3522
 7470W        W27004  10.127   9.251   2.646 -0.0994  0.0078  0.0788
 7471W        W27005   7.915  12.140  12.111 -0.0282 -0.1949 -0.1309
 7472W        W27006   1.778   8.788   4.723  0.0301 -0.0335  0.2472
 7473W        W27007   1.553   7.758   2.213 -0.0013  0.1879  0.0042
 7474W        W27008   4.217   2.188  16.029 -0.3681  0.4742 -0.0141
 7475W        W27009   0.664  13.221   0.489  0.1665  0.1016  0.1376
 7476W        W27010   0.720  13.924  13.236 -0.0624 -0.0126  0.2710
 7477W        W27011  14.453  13.769   3.991  0.3512  0.1946 -0.1612
 7478W        W27012  16.039  11.606  14.493  0.2696  0.0144  0.0221
 7479W        W27013   1.215   5.156   4.573  0.1050 -0.0434  0.3135
 7480W        W27014   5.779  15.988   2.251 -0.1418  0.0735 -0.1099
 7481W        W27015  16.133  15.093   0.134 -0.0433  0.0925  0.0052
 7482W        W27016   1.839   5.129  16.053  0.0594  0.0692  0.2939
 7483W        W27017   0.936   1.302  12.623 -0.0234 -0.2687 -0.2387
 7484W        W27018  16.991  11.742   3.102  0.2065  0.2503 -0.0012
 7485W        W27019  12.810  13.796   0.310 -0.2886 -0.0472 -0.4760
 7486W        W27020  16.538   8.839  13.091  0.2619 -0.1071  0.3252
 7487W        W27021   0.323  10.915   1.896  0.3706 -0.0707  0.0933
 7488W        W27022   6.444  14.183  14.793 -0.3923 -0.0373 -0.0652
 7489W        W27023   0.042   6.827   4.878  0.1603 -0.2875 -0.1536
 7490W        W27024  12.853   6.742  11.084 -0.2807  0.0219  0.1225
 7491W        W27025   7.064  13.072  12.936 -0.0067 -0.0798 -0.1125
 7492W        W27026  16.179   4.717  15.292  0.1391  0.0807 -0.1755
 7493W        W27027   2.503   6.585  12.740  0.1114 -0.1334 -0.0820
 7494W        W27028  10.233  17.475   1.326  0.0331 -0.0646 -0.0695
 7495W        W27029  16.278   1.196   4.551 -0.0984  0.1061  0.0116
 7496W        W27030  16.910   5.172  11.804 -0.3102  0.0220 -0.0294
 7497W        W27031   5.357  16.069   1.323 -0.0394  0.2031  0.1751
 7498W        W27032   0.903   4.093   4.530  0.1365 -0.1742 -0.0347
 7499W        W27033  17.347  10.306  12.004 -0.0828 -0.2594  0.0782
 7500W        W27034   3.409  10.036   2.743 -0.0656  0.2992 -0.0605
 7501W        W27035   8.873   1.668  13.125  0.1418  0.2241 -0.3027
 7502W        W27036  12.971   8.483  11.890 -0.3003  0.0456 -0.3595
 7503W        W27037  11.292   2.005   1.708  0.2319 -0.4915 -0.0919
 7504W        W27038  13.627   7.952  12.914  0.0203  0.1371 -0.0018
 7505W        W27039   0.816   2.546   5.316  0.3020  0.1617  0.1597
 7506W        W27040   4.080   6.006  13.276 -0.0742  0.2127 -0.1959
 7507W        W27041   0.206   1.040   4.290 -0.0702  0.0023  0.2386
 7508W        W27042   8.073  13.543  13.983 -0.0687  0.0512 -0.1844
 7509W        W27043   0.657   6.809  11.675  0.0260  0.2646 -0.0079
 7510W        W27044  13.235  14.901   4.480  0.0562  0.2703 -0.0339
 7511W        W27045  17.490   9.309   1.570  0.0456 -0.0222  0.5936
 7512W        W27046  16.609  10.911   2.906 -0.2737 -0.1178 -0.0631
 7513W        W27047  14.174   8.987  12.401  0.1397  0.1030 -0.3136
 7514W        W27048  17.049   1.370   0.093  0.3990  0.0014 -0.2173
 7515W        W27049   8.739  12.903  13.837  0.0105  0.0225 -0.2238
 7516W        W27050  14.632   3.460  16.023  0.1117  0.0005 -0.0406
 7517W        W27051  16.224  10.822   2.059 -0.2893 -0.1721  0.2487
 7518W        W27052  14.682  14.285  12.367  0.3122 -0.1077  0.1726
 7519W        W27053  13.673   4.766   1.323 -0.0079  0.0493  0.0197
 7520W        W27054  17.837  16.039   4.699 -0.1154  0.3016  0.2262
 7521W        W27055   2.489  14.249   2.767  0.1019  0.2395 -0.3592
 7522W        W27056  10.596   7.211  13.835  0.0009 -0.4192  0.0522
 7523W        W27057  16.747   3.051  15.152 -0.0637  0.2220 -0.3713
 7524W        W27058   1.934   0.224   4.145  0.1863 -0.2288  0.2054
 7525W        W27059   1.746  15.990   2.049 -0.0075  0.1847 -0.1802
 7526W        W27060  16.865   2.871  12.043 -0.1513  0.2394 -0.1486
 7527W        W27061  16.339   3.807   0.548 -0.1633  0.0236  0.1065
 7528W        W27062  15.287   9.723   1.482  0.3684  0.1222  0.0905
 7529W        W27063  11.483   5.787  13.467 -0.0080 -0.2456 -0.0567
 7530W        W27064   3.815  12.288   3.141 -0.0560 -0.0429 -0.2208
 7531W        W27065  14.325   5.015   0.330  0.0705  0.2107  0.0236
 7532W        W27066  10.104  17.007  12.631 -0.0372  0.1530 -0.1833
 7533W        W27067   6.364   7.183  15.361  0.0994 -0.2767 -0.0226
 7534W        W27068  16.758   2.020  13.911  0.0729 -0.2987 -0.1355
 7535W        W27069  13.937   3.164   4.016 -0.0354 -0.1606 -0.1005
 7536W        W27070  13.338   3.868  15.876  0.2776 -0.0776 -0.1707
 7537W        W27071   1.595   9.579  14.373  0.0083  0.1741 -0.4044
 7538W        W27072  16.950   9.469   2.452  0.2634  0.0051 -0.2944
 7539W        W27073  10.276   9.189   1.088 -0.1146  0.2121 -0.0386
 7540W        W27074  10.840  11.879  12.167  0.0684 -0.2702  0.1305
 7541W        W27075   7.842  15.173   4.428  0.0746  0.0212  0.1049
 7542W        W27076   1.508  15.477   4.311  0.0618  0.0291 -0.0021
 7543W        W27077  10.866  14.232   2.046  0.2142  0.1111 -0.2079
 7544W        W27078   4.366   2.979   2.559  0.1067  0.1221  0.0123
 7545W        W27079  13.053  13.198  14.088 -0.2329  0.0594 -0.1502
 7546W        W27080   9.984  12.828  13.546  0.2337 -0.1092  0.3432
 7547W        W27081   8.732   9.348  14.603 -0.1260  0.0267  0.0172
 7548W        W27082  12.231  15.126   0.566  0.1216  0.1799  0.0442
 7549W        W27083   0.880  15.418  13.262 -0.0606 -0.0205 -0.2014
 7550W        W27084   8.716   5.115  14.468 -0.0043  0.2039 -0.0240
 7551W        W27085  15.873   3.671   3.800 -0.2198  0.1081 -0.1559
 7552W        W27086   3.213   3.914  15.967  0.0621  0.2363  0.1516
 7553W        W27087  10.578  16.171   1.621 -0.0716 -0.0536 -0.0586
 7554W        W27088   0.780   7.507  12.694 -0.1726 -0.0142 -0.0997
 7555W        W27089  17.871   5.225  14.348  0.2051 -0.0362 -0.0070
 7556W        W27090   6.841   0.794  15.452 -0.2671  0.1743  0.1423
 7557W        W27091  17.185   2.814  14.356  0.0590  0.2177 -0.2310
 7558W        W27092  10.599   2.646  12.219 -0.1816  0.0619  0.1308
 7559W        W27093   4.760   8.809  14.439 -0.2075  0.0573  0.0735
 7560W        W27094   0.958   3.606  13.555  0.2089  0.1680  0.0828
 7561W        W27095   1.588   8.400  14.339 -0.1108  0.1656 -0.0632
 7562W        W27096  16.800   8.755  13.518  0.0786 -0.0746  0.0299
 7563W        W27097  14.404  11.644   1.759  0.0067  0.0120 -0.2353
 7564W        W27098   9.700   2.024  14.971  0.2946  0.1721  0.1292
 7565W        W27099   8.309   1.996  11.892  0.2094  0.2201  0.0008
 7566W        W27100  14.963  16.079   2.382 -0.4021  0.0389 -0.1852
 7567W        W27101   2.337  13.863   3.090  0.0834 -0.0106  0.1749
 7568W        W27102   0.419  14.752  15.063  0.0568 -0.2596  0.0847
 7569W        W27103   5.049   7.508  16.211  0.0232  0.1106 -0.1251
 7570W        W27104  10.797  11.870   4.201  0.1383  0.1297 -0.0998
 7571W        W27105  16.133   3.291   2.517  0.1870 -0.1170 -0.0699
 7572W        W27106   6.217  10.242  13.397  0.0162  0.0224 -0.2152
 7573W        W27107  16.851   1.551  13.926 -0.1339  0.3336  0.0725
 7574W        W27108   1.334  17.640  13.750 -0.2084 -0.2480  0.1523
 7575W        W27109   4.605   6.385  11.964 -0.0383  0.0646  0.4426
 7576W        W27110   6.459   5.463  15.797 -0.0368  0.2002  0.1796
 7577W        W27111   5.709  13.467   2.073 -0.0998 -0.0213  0.1364
 7578W        W27112   0.964   1.264   5.812 -0.2212  0.1476  0.4530
 7579W        W27113  13.225   5.881   3.277 -0.5323  0.0767 -0.3487
 7580W        W27114   9.544  14.823  12.928 -0.0252  0.0689 -0.1575
 7581W        W27115  14.266  16.971  15.145  0.0903 -0.1049  0.0606
 7582W        W27116   8.367   3.873  15.169 -0.2763 -0.1154  0.0006
 7583W        W27117   9.765  12.092   0.397 -0.1859 -0.1772  0.3554
 7584W        W27118   8.397  11.880   4.272  0.3973  0.1839  0.1226
 7585W        W27119   0.160   1.197   2.458  0.1509  0.1445  0.2954
 7586W        W27120  12.716   8.113  12.166  0.1261 -0.1245 -0.1073
 7587W        W27121  10.555  16.105   2.571 -0.0766  0.0845 -0.1273
 7588W        W27122   1.202   9.563   4.003 -0.1620 -0.3731 -0.0097
 7589W        W27123  10.779   6.173   2.190  0.0839 -0.2170  0.2447
 7590W        W27124   0.969  16.553  15.844  0.2931  0.0308  0.3599
 7591W        W27125   8.992  13.223   0.922 -0.4492 -0.1046  0.2714
 7592W        W27126  10.513  12.322   4.420  0.2085  0.2835 -0.2040
 7593W        W27127   4.316  13.439  12.568  0.0375  0.0838  0.1774
 7594W        W27128  11.418   7.785   3.182 -0.0679 -0.3532  0.1066
 7595W        W27129   1.443  15.510   2.037  0.2370  0.1034  0.0988
 7596W        W27130   5.267  14.076  15.679  0.3193  0.1079  0.1960
 7597W        W27131  10.182  10.205   2.771 -0.2871 -0.3265 -0.4112
 7598W        W27132   8.913  15.852   4.795 -0.1134 -0.0238 -0.0463
 7599W        W27133  14.913   2.007   2.091  0.1677  0.0982  0.0838
 7600W        W27134  12.493  14.107   1.128  0.3696 -0.1146 -0.1288
 7601W        W27135   3.499   8.175  14.787 -0.0470  0.1706  0.5588
 7602W        W27136   4.599   7.366  11.856 -0.2408 -0.2434  0.2775
 7603W        W27137   4.222  13.088  13.442 -0.0047  0.2277  0.0889
 7604W        W27138  12.661   2.083   4.846  0.1490 -0.3403 -0.0501
 7605W        W27139   2.995   9.792   1.410 -0.2447 -0.0375 -0.1379
 7606W        W27140  11.503   2.504   2.410  0.0208 -0.1854  0.1125
 7607W        W27141   2.425   5.638  12.514  0.1298  0.2017  0.0247
 7608W        W27142  11.416   4.229   1.712  0.0346  0.1459  0.0114
 7609W        W27143   8.568   1.729  13.625  0.1214  0.1605 -0.0892
 7610W        W27144   5.872  14.957  15.880 -0.3090 -0.0087 -0.1240
 7611W        W27145   6.403   2.509   2.210  0.1857  0.4025  0.0495
 7612W        W27146   0.659   9.208  14.214 -0.0684 -0.0545 -0.0910
 7613W        W27147  13.898   4.287   3.823  0.3146  0.2860  0.2160
 7614W        W27148   5.010  10.923   0.920  0.1050  0.0845 -0.0245
 7615W        W27149  12.228  10.024  14.191 -0.1419  0.1683 -0.0146
 7616W        W27150   4.249   6.810  14.888  0.4116 -0.1937 -0.3323
 7617W        W27151  13.657   8.183  15.544 -0.0239  0.2085 -0.1173
 7618W        W27152   6.944  16.739   3.639 -0.1125 -0.2232 -0.0919
 7619W        W27153   4.857  10.523  13.506  0.2420  0.1569 -0.0996
 7620W        W27154   1.702  17.359   0.543  0.0819  0.5264 -0.0760
 7621W        W27155   9.650  11.204   3.072  0.3338  0.3264  0.1476
 7622W        W27156   4.877  14.828   3.011  0.0475 -0.4199 -0.1566
 7623W        W27157   6.382  11.258  16.550  0.5056 -0.3011 -0.0935
 7624W        W27158   7.373   3.313  15.904  0.0711 -0.1773 -0.0788
 7625W        W27159   9.517   0.408  15.600  0.1292 -0.0196  0.1748
 7626W        W27160   4.412   1.747  12.157  0.0243  0.0945 -0.0897
 7627W        W27161  11.224  15.947   1.849 -0.3017 -0.0191  0.0855
 7628W        W27162  10.418  13.756  16.295  0.1690 -0.1220  0.0112
 7629W        W27163  15.675   7.398  12.079  0.2840  0.0241  0.0200
 7630W        W27164   4.694  17.648  13.514 -0.3317  0.2201 -0.1611
 7631W        W27165  11.833   5.956  14.915  0.1981  0.0849 -0.5369
 7632W        W27166   8.377  17.220   0.399  0.1700 -0.1443 -0.0874
 7633W        W27167   8.723   7.694   1.983  0.0752  0.0788  0.1095
 7634W        W27168  13.313  11.502  15.719  0.1128 -0.0904 -0.1258
 7635W        W27169   9.475   7.895   0.665  0.1162 -0.0926  0.2211
 7636W        W27170   6.895  17.291   4.707 -0.1188 -0.1483 -0.1445
 7637W        W27171  14.393  15.708  14.893  0.0733 -0.0171  0.0718
 7638W        W27172   5.037   8.926   3.954 -0.2798  0.1779  0.0623
 7639W        W27173   1.394   1.513  13.391  0.1505  0.1551 -0.0432
 7640W        W27174  13.431   8.622  15.574  0.1064  0.0662  0.0069
 7641W        W27175   1.185  15.145   1.072 -0.2417  0.1164 -0.2304
 7642W        W27176   0.626  17.859  14.998 -0.1766 -0.1193  0.0750
 7643W        W27177   5.273   6.687   3.553  0.1408  0.1130 -0.2168
 7644W        W27178  16.099   1.103  14.360 -0.0469  0.1441  0.0480
 7645W        W27179  11.704   1.460  13.582 -0.0377 -0.1310 -0.3889
 7646W        W27180  16.940  15.661   3.211  0.0578 -0.1849  0.1365
 7647W        W27181   7.759   0.769  13.071 -0.1134 -0.2868  0.0228
 7648W        W27182   7.069  12.025   0.597 -0.1120 -0.0592 -0.2160
 7649W        W27183   7.830  10.463  15.554  0.0756  0.3592 -0.5861
 7650W        W27184   3.543   1.660   1.695 -0.3786  0.1025 -0.3635
 7651W        W27185   7.036  14.551   3.733 -0.0424 -0.2878  0.1465
 7652W        W27186  13.203   3.221  14.925 -0.0067 -0.2396  0.0558
 7653W        W27187   2.256  15.275  15.844  0.0621 -0.2748  0.3012
 7654W        W27188  11.241   3.556   2.156  0.2283  0.1971 -0.2755
 7655W        W27189   1.030   5.046   2.927 -0.1739  0.0441 -0.5135
 7656W        W27190   0.379  16.324   4.740  0.0118  0.1378 -0.1648
 7657W        W27191   2.211   9.957   1.817 -0.0865  0.1465  0.0181
 7658W        W27192  14.600   8.128  15.196  0.1288 -0.2380  0.2184
 7659W        W27193  16.332  15.956  15.810 -0.2610 -0.2817  0.1908
 7660W        W27194   0.489  13.814  13.997 -0.2832  0.1108  0.1597
 7661W        W27195  10.321   5.771   2.805  0.1029  0.3070 -0.1885
 7662W        W27196   3.479   3.873  13.030  0.1830  0.1312 -0.0738
 7663W        W27197   8.119  14.934  12.402  0.0556 -0.1444 -0.1181
 7664W        W27198  13.426   7.255  13.238 -0.1716  0.1954  0.1258
 7665W        W27199  17.672  11.728  12.511  0.2219  0.0698 -0.2845
 7666W        W27200   8.763  16.573   1.867  0.1694  0.0861  0.3974
 7667W        W27201   1.662   6.869  15.065  0.1455 -0.3592  0.2600
 7668W        W27202  16.207   3.157  15.070  0.2317 -0.0149 -0.0049
 7669W        W27203   2.495   3.551  16.447  0.0521  0.0712  0.3587
 7670W        W27204   9.381  10.144   0.116  0.0341  0.0549  0.2454
 7671W        W27205   3.111   2.636  14.023 -0.0301  0.0572 -0.0250
 7672W        W27206  11.773   6.136   0.619 -0.0056  0.1899  0.1221
 7673W        W27207   0.829  17.558  16.073  0.0964  0.3053  0.1530
 7674W        W27208   4.385   2.633   0.127 -0.1571  0.4067 -0.1370
 7675W        W27209   1.101  17.511   2.509 -0.1039  0.1536  0.2774
 7676W        W27210   1.523  11.002   3.794  0.4474  0.0133  0.2000
 7677W        W27211   3.676   9.893  15.395  0.1879  0.0870 -0.0226
 7678W        W27212  12.235   7.850   3.575  0.0843  0.1566  0.0941
 7679W        W27213   3.049  13.172  14.803 -0.0676  0.1885 -0.2983
 7680W        W27214  10.130   2.584   4.022  0.0981 -0.0519  0.1543
 7681W        W27215   6.204  17.839  16.252  0.3067  0.0041 -0.3029
 7682W        W27216  17.316   7.961   1.919 -0.0079 -0.3806 -0.2076
 7683W        W27217   9.792  14.593  13.898  0.0484 -0.0650 -0.0387
 7684W        W27218  12.818   4.768   4.377  0.1323 -0.2652  0.2827
 7685W        W27219   2.597   3.429   0.632 -0.0434 -0.0345 -0.2068
 7686W        W27220  16.369   0.245  14.877 -0.0832  0.0704  0.0373
 7687W        W27221  13.731   5.083   2.693  0.1516  0.0074 -0.1088
 7688W        W27222  14.651  10.564   3.556  0.3731 -0.2989  0.0517
 7689W        W27223  16.012   8.660  13.241 -0.2012 -0.1247  0.0744
 7690W        W27224   0.766   8.605  15.354  0.1772  0.2343 -0.0686
 7691W        W27225  10.449  10.070  13.492  0.1058  0.2511 -0.1100
 7692W        W27226   1.779  10.433   4.963 -0.1189  0.2402 -0.0939
 7693W        W27227   0.760   1.074   2.060  0.1897 -0.0965 -0.0400
 7694W        W27228   5.867   5.503  12.344 -0.0961  0.1476 -0.2550
 7695W        W27229  14.416   5.731   3.365  0.1922 -0.1444 -0.1630
 7696W        W27230   8.061  11.120  12.279 -0.2171  0.0070  0.3449
 7697W        W27231   8.910   6.964  12.466 -0.1331 -0.2011 -0.0303
 7698W        W27232   4.943  17.669  14.389  0.0421  0.2922 -0.1331
 7699W        W27233  14.380  14.660  16.254 -0.0023  0.2894 -0.0255
 7700W        W27234  11.944   3.448  14.504 -0.2739  0.0281 -0.2649
 7701W        W27235   9.867   2.858  15.380  0.2677  0.1321 -0.1014
 7702W        W27236  12.972   7.430  15.171 -0.1330  0.2178  0.1792
 7703W        W27237   6.027  11.565  16.410  0.2081 -0.1039 -0.3814
 7704W        W27238  13.739   9.934   3.758 -0.3490  0.0336  0.5143
 7705W        W27239   0.504  13.335  14.898  0.0835 -0.0118  0.1362
 7706W        W27240  16.638  16.894   0.235 -0.1547 -0.1034 -0.0316
 7707W        W27241  10.188   9.671   2.028  0.4138 -0.1533 -0.1098
 7708W        W27242  15.805  12.310   2.745 -0.1753  0.0722  0.0563
 7709W        W27243  11.841  10.240  13.597  0.1142 -0.0325 -0.2692
 7710W        W27244   8.074   0.575  14.358 -0.0790  0.0406 -0.1853
 7711W        W27245  11.616   2.682  16.259  0.1391  0.3169  0.0380
 7712W        W27246   6.344   6.485  14.298  0.0775 -0.2494  0.4302
 7713W        W27247   0.478  12.144  13.027 -0.3417 -0.0403  0.1961
 7714W        W27248   2.029  12.081   1.829  0.1121  0.0324 -0.0307
 7715W        W27249  10.146  10.215  14.667 -0.0934 -0.0599  0.1622
 7716W        W27250  17.779   5.687  12.919 -0.3187 -0.1419  0.1569
 7717W        W27251   3.677  14.189  12.359 -0.2062 -0.1633 -0.2390
 7718W        W27252  10.219  10.660  15.888  0.1129  0.0406  0.0892
 7719W        W27253   1.199  12.719  14.570  0.0510  0.1298 -0.0823
 7720W        W27254   4.838   6.665  12.352  0.1144  0.1408  0.2301
 7721W        W27255  15.072   7.490   4.266  0.1667  0.2019  0.1309
 7722W        W27256   1.457   1.285  13.994 -0.0613  0.0562 -0.0224
 7723W        W27257   3.040  15.956  12.197 -0.0373 -0.0919  0.2404
 7724W        W27258   4.923   7.081   0.899  0.0638 -0.1528 -0.0329
 7725W        W27259  17.050  16.248   0.629 -0.2876  0.0320  0.2148
 7726W        W27260   7.226   4.759   1.307 -0.1579 -0.3680 -0.0294
 7727W        W27261  13.672   0.417  15.336  0.3470 -0.0708  0.0657
 7728W        W27262  12.458   3.499   1.368  0.1670  0.0966 -0.2591
 7729W        W27263   4.895   4.195  13.890  0.1771 -0.0379  0.0683
 7730W        W27264  12.452   0.954   1.856  0.3664 -0.0739 -0.0768
 7731W        W27265  12.620   6.603  15.800 -0.0561 -0.2595 -0.2289
 7732W        W27266  10.837   3.354  16.564 -0.1928 -0.0137  0.1226
 7733W        W27267   3.236   3.256  13.885  0.1034  0.0595  0.3551
 7734W        W27268   5.645  13.618  13.414 -0.1749 -0.1460 -0.3039
 7735W        W27269   5.562  13.004  16.490  0.0189  0.0313  0.0927
 7736W        W27270   7.511  11.812   4.693 -0.1002 -0.1148 -0.1819
 7737W        W27271  14.201   2.766  15.291  0.1158  0.0173  0.0948
 7738W        W27272   3.264   4.628  12.210 -0.1056 -0.2644 -0.1216
 7739W        W27273   5.537   3.743  13.227 -0.2368  0.2102  0.3937
 7740W        W27274  11.056  17.117  14.626  0.1811  0.1433 -0.1422
 7741W        W27275   5.766   6.938  11.954  0.0662  0.3630 -0.3785
 7742W        W27276  17.804  14.677   2.301 -0.2434 -0.0571 -0.2869
 7743W        W27277   6.154   6.228   0.687  0.2217 -0.2390  0.0112
 7744W        W27278   9.605  17.554  14.961 -0.1512  0.2537 -0.2515
 7745W        W27279  15.378  11.611  15.397  0.2632  0.0129 -0.0685
 7746W        W27280  13.469   9.971   1.593  0.0112 -0.2538  0.1156
 7747W        W27281   4.953   8.728   2.829  0.1784  0.0303 -0.0230
 7748W        W27282  12.724   0.230  15.173  0.1218 -0.0198 -0.1360
 7749W        W27283   6.885  17.361   1.194 -0.1710 -0.1336  0.0707
 7750W        W27284  17.377   8.197  13.964  0.3409  0.1271 -0.0514
 7751W        W27285   6.861   1.204   0.505  0.1340 -0.0798 -0.0346
 7752W        W27286   9.436   2.811   2.679  0.1473 -0.2978 -0.2123
 7753W        W27287  11.781  10.879   2.396 -0.3179  0.1535  0.1138
 7754W        W27288  12.572   3.042   0.039  0.1311  0.1438 -0.0828
 7755W        W27289   8.515   3.170  11.990 -0.1635 -0.0977  0.1038
 7756W        W27290  17.423   9.477  13.754 -0.3496  0.1563 -0.0730
 7757W        W27291   4.217   6.768  15.372  0.0630 -0.2326  0.2066
 7758W        W27292  14.118   1.436  14.002 -0.2722  0.1168 -0.1948
 7759W        W27293   7.369   6.597   4.651 -0.0672 -0.0443  0.1513
 7760W        W27294   2.864   7.289   5.470  0.1923 -0.0447 -0.2242
 7761W        W27295  15.765  11.507   4.457 -0.0013 -0.2956 -0.0189
 7762W        W27296   3.754  10.967   2.105  0.3370  0.1034 -0.0782
 7763W        W27297   8.893   5.159   3.289  0.0446  0.0605 -0.2430
 7764W        W27298   4.599  14.598   2.098 -0.2131  0.0804  0.0499
 7765W        W27299   8.386   0.452   4.550  0.2444 -0.3487 -0.2259
 7766W        W27300   4.681  16.961  12.415 -0.3876  0.0310  0.0225
 7767W        W27301   3.623   7.714   2.751 -0.0602  0.3170  0.1847
 7768W        W27302   7.382   8.865   4.676  0.0747 -0.2947 -0.1056
 7769W        W27303  10.304  10.580   1.952  0.2096 -0.0603 -0.1937
 7770W        W27304  15.328   8.779   3.430 -0.3079  0.2818  0.0975
 7771W        W27305   3.630   8.398  16.452  0.1782  0.1730 -0.0673
 7772W        W27306   7.692  15.067  13.765  0.2367  0.0359 -0.2410
 7773W        W27307   9.671   2.825   4.835 -0.3162  0.1768  0.1694
 7774W        W27308   8.825  11.992  12.317 -0.0354  0.3826  0.1683
 7775W        W27309   0.601   8.678  13.247 -0.0675  0.3150  0.1393
 7776W        W27310   4.948  12.975   4.253 -0.1730  0.3203 -0.3479
 7777W        W27311   5.076  13.650   0.410  0.0125 -0.1756  0.0083
 7778W        W27312  12.003  16.103   2.580 -0.3048  0.0923 -0.1225
 7779W        W27313  14.203  11.202   2.115  0.0508  0.0175 -0.3015
 7780W        W27314  15.459  10.037  13.060 -0.1703  0.2578  0.1085
 7781W        W27315  17.513  12.531   3.079  0.0683 -0.0464  0.1405
 7782W        W27316  12.343  16.131  13.239 -0.1962 -0.1968 -0.0020
 7783W        W27317   8.660  11.342  16.574 -0.0584 -0.1431  0.3390
 7784W        W27318   0.067   7.796  12.580 -0.0799  0.0226  0.0341
 7785W        W27319   5.012  14.714  13.197 -0.0738  0.2342  0.0189
 7786W        W27320   0.739  15.800  16.534  0.0075 -0.3392 -0.2954
 7787W        W27321   0.427   3.058   4.018 -0.0612 -0.0136  0.1095
 7788W        W27322   7.263   5.113   3.877  0.2370 -0.2728 -0.0489
 7789W        W27323   9.884  11.822  14.716  0.0361  0.1490  0.1356
 7790W        W27324   7.228  14.069   3.794 -0.3540 -0.1289  0.2919
 7791W        W27325  17.360  16.740  13.093 -0.2502  0.2209  0.1496
 7792W        W27326   3.656   0.036   4.044  0.0671  0.0642 -0.0422
 7793W        W27327   5.481   1.283   2.065 -0.3602 -0.3509  0.1482
 7794W        W27328   7.053   7.554   1.518  0.0854 -0.0016 -0.1413
 7795W        W27329   7.507   9.854  14.734  0.0883 -0.0446  0.0215
 7796W        W27330  11.754   9.114  15.232  0.2683  0.0364  0.4116
 7797W        W27331   6.772   2.204  12.984  0.4479 -0.1544  0.0182
 7798W        W27332   1.753   9.285   4.858 -0.2022 -0.1782  0.1548
 7799W        W27333  15.610   8.807   1.614 -0.0054  0.1306  0.2121
 7800W        W27334   5.380   4.893   3.189 -0.0747 -0.0264  0.1418
 7801W        W27335  16.627   6.487  12.738 -0.1583  0.0759 -0.1597
 7802W        W27336   7.722   2.474  16.648 -0.1633 -0.1564  0.1279
 7803W        W27337   1.276   5.849   0.707 -0.1599  0.1041 -0.0733
 7804W        W27338  10.075  13.941  12.897  0.1769 -0.0083  0.0042
 7805W        W27339  13.312  16.478   2.974 -0.0813  0.2352 -0.0078
 7806W        W27340   2.009   1.362  16.265  0.1260  0.0791 -0.0675
 7807W        W27341   8.166  12.156   1.110  0.0032 -0.0659  0.1508
 7808W        W27342   8.759  10.833   3.087 -0.1431  0.1987 -0.1585
 7809W        W27343  10.641  15.026   4.056  0.0232  0.1829 -0.0335
 7810W        W27344  14.406  11.143   2.974 -0.0299  0.0664 -0.0549
 7811W        W27345   1.418  13.285   4.686 -0.1967 -0.0099 -0.0154
 7812W        W27346   2.863  11.883   0.188 -0.0381 -0.1267  0.1381
 7813W        W27347   0.352  12.210  15.883 -0.1251 -0.0204  0.0677
 7814W        W27348   4.925   8.952  13.074  0.0228 -0.2588  0.1178
 7815W        W27349   8.682  16.643  11.787  0.0818 -0.2596 -0.1428
 7816W        W27350  13.843  10.204   4.469 -0.0713  0.1119  0.2612
 7817W        W27351  15.872   2.753  15.379  0.2501 -0.0058  0.0062
 7818W        W27352  11.870  15.433  15.041 -0.0831  0.0040  0.1438
 7819W        W27353   1.627  15.026  16.599 -0.1202 -0.2685  0.0865
 7820W        W27354  14.828  10.420  14.751  0.1509 -0.1449 -0.2894
 7821W        W27355   4.489  16.266   5.046  0.0391 -0.0613 -0.2519
 7822W        W27356   8.695   1.422   3.501 -0.3140  0.1718 -0.2903
 7823W        W27357  17.857   3.639  12.732  0.0214  0.0420  0.1321
 7824W        W27358  14.218  15.754   1.422 -0.0785  0.4138 -0.0746
 7825W        W27359   6.133  17.510  11.276 -0.4481  0.0384 -0.1897
 7826W        W27360   8.146   4.831   3.388 -0.4007 -0.3156  0.2941
 7827W        W27361  10.948   9.112  12.030  0.0462 -0.0410  0.1726
 7828W        W27362  11.509  15.323   2.474 -0.1868 -0.0042 -0.1614
 7829W        W27363   1.480  13.758  14.347  0.0834  0.0040  0.0271
 7830W        W27364  16.510   7.354   0.997  0.2363  0.2716 -0.1085
 7831W        W27365   2.932   9.533   0.359 -0.1151  0.1868 -0.2726
 7832W        W27366   4.476  13.790   3.309 -0.1204 -0.0508  0.1928
 7833W        W27367  17.665   0.348  15.123 -0.0017  0.0659 -0.3132
 7834W        W27368   4.159  10.375   5.088 -0.2141  0.1778 -0.2954
 7835W        W27369  17.722  15.219   3.596 -0.0227 -0.0544 -0.2558
 7836W        W27370   5.299   2.291   0.460 -0.2061  0.1401  0.3275
 7837W        W27371  12.782   9.654   2.238 -0.2481  0.1320 -0.0740
 7838W        W27372   0.464   6.698  12.193 -0.2672 -0.1241  0.0658
 7839W        W27373  13.903   7.598  14.764 -0.1153 -0.1464  0.0279
 7840W        W27374   8.235  14.738   4.220  0.1005  0.0468 -0.2439
 7841W        W27375   5.326   5.350   0.286  0.2192 -0.1999 -0.0957
 7842W        W27376  12.460   7.846  11.785  0.2485 -0.0284 -0.2001
 7843W        W27377   1.415  16.849   0.809  0.0701 -0.0267 -0.1355
 7844W        W27378  17.804   7.235   3.223 -0.0510  0.0404  0.0644
 7845W        W27379   5.423   9.229   3.808  0.0780 -0.2500 -0.2169
 7846W        W27380   0.029  13.365  12.160  0.2154  0.0052  0.2295
 7847W        W27381   1.925  13.822  12.229  0.2717 -0.2433 -0.2413
 7848W        W27382   3.458  15.334   1.297  0.0672  0.0349 -0.0055
 7849W        W27383   4.317  13.819   0.377 -0.0907 -0.1653 -0.0387
 7850W        W27384   7.088  11.460  12.173  0.2989 -0.0569  0.0452
 7851W        W27385  11.663  15.516  16.336  0.0956 -0.0549 -0.1203
 7852W        W27386  14.731  12.487   1.820 -0.0290 -0.2359 -0.3383
 7853W        W27387  17.393   9.696  11.692 -0.0200 -0.1371  0.1041
 7854W        W27388   8.604   9.941  12.036 -0.1269 -0.1717 -0.3741
 7855W        W27389  14.969  16.122  16.576 -0.1093 -0.0979 -0.0344
 7856W        W27390  11.220   1.996  12.345  0.2201 -0.0692 -0.0794
 7857W        W27391   8.899  12.665   3.812  0.0893 -0.3079 -0.1403
 7858W        W27392  16.779   2.391   0.622  0.1430 -0.2178 -0.0869
 7859W        W27393  16.023   4.261  13.778  0.0109 -0.0632 -0.1906
 7860W        W27394   2.537   2.126   4.468  0.2671  0.1974  0.2545
 7861W        W27395   2.497  14.501  14.185  0.2519 -0.3485 -0.1338
 7862W        W27396   2.186  12.933  16.458 -0.4589 -0.0162 -0.0546
 7863W        W27397  15.138  12.109  14.155  0.3220 -0.1825 -0.1770
 7864W        W27398   2.624   6.863  15.460  0.0956 -0.0859 -0.1759
 7865W        W27399  10.149   8.943  11.918 -0.0861  0.1446 -0.0467
 7866W        W27400   1.779  10.198  15.663  0.0708  0.3242  0.1041
 7867W        W27401   2.122  12.803  11.340 -0.3376 -0.0840  0.0857
 7868W        W27402  17.382  14.979   4.833  0.1154 -0.2039  0.1410
 7869W        W27403   7.953  16.355   6.244 -0.0155 -0.1109 -0.3027
 7870W        W27404   1.857   6.841  14.411  0.1079 -0.0767  0.3365
 7871W        W27405   6.698   9.354   0.955 -0.0375  0.0907 -0.2781
 7872W        W27406   2.488  16.810   4.235 -0.1060 -0.3379 -0.2481
 7873W        W27407   0.196  14.803  13.176 -0.2033 -0.0856  0.0036
 7874W        W27408  15.014  15.801  15.008 -0.4189 -0.3946 -0.2416
 7875W        W27409   6.067   5.688   3.273  0.1048 -0.0783 -0.0994
 7876W        W27410  11.801  12.994  14.799  0.1925  0.1733 -0.0137
 7877W        W27411   4.412  15.113  12.834  0.1312  0.0564 -0.1688
 7878W        W27412   3.436   1.936   1.015 -0.0721 -0.4664 -0.1031
 7879W        W27413   7.569   9.370   2.483  0.2083 -0.1790 -0.0872
 7880W        W27414   5.545  10.789  12.929 -0.0443  0.0409  0.0247
 7881W        W27415  11.933  16.981   0.406 -0.3924  0.3004  0.0879
 7882W        W27416   8.542   2.608   1.079 -0.1198 -0.0041  0.1357
 7883W        W27417   9.569   1.610  11.876 -0.2881 -0.2188 -0.0967
 7884W        W27418  11.891   2.205   0.552  0.0765 -0.0300 -0.0433
 7885W        W27419   4.955   5.521   4.059  0.2968 -0.1307 -0.0377
 7886W        W27420  13.262   3.591   1.175 -0.0043  0.1978  0.0758
 7887W        W27421  13.794   5.778  15.851 -0.0159 -0.0234  0.2327
 7888W        W27422   6.491  10.455  16.113  0.0104  0.1321 -0.0723
 7889W        W27423  12.725  16.679   0.899  0.1278 -0.2332 -0.1968
 7890W        W27424  14.018   5.580  11.915  0.0583 -0.0987 -0.0343
 7891W        W27425  12.429   8.641  13.662  0.0680  0.0157 -0.0805
 7892W        W27426   9.390  16.688   4.357 -0.0339 -0.0042  0.0659
 7893W        W27427  12.895  17.314  16.597 -0.2449  0.0915  0.1146
 7894W        W27428  11.167   6.222  16.049  0.1495  0.0093  0.1171
 7895W        W27429   4.134   0.416  14.488 -0.0206 -0.0949 -0.1085
 7896W        W27430  14.333  17.398   4.695 -0.0019  0.0629 -0.0334
 7897W        W27431   7.961   3.945  13.430 -0.1545 -0.0429 -0.5029
 7898W        W27432   5.141  10.439  12.988 -0.1586 -0.0294  0.0880
 7899W        W27433  15.827  10.357  16.473 -0.0845  0.3908  0.0036
 7900W        W27434  14.769   2.482  11.868  0.3868 -0.2626 -0.0884
 7901W        W27435  12.911   5.053   3.463 -0.1241  0.3445 -0.1923
 7902W        W27436   9.027   3.814  16.067  0.1499  0.0325 -0.2295
 7903W        W27437   6.602  16.888   0.300 -0.0370  0.2581 -0.0058
 7904W        W27438  10.974  11.516   2.169  0.0232  0.0228  0.0034
 7905W        W27439   5.857   4.941   2.346  0.0905 -0.0341 -0.4402
 7906W        W27440   6.276  14.458   1.276  0.2314  0.0719 -0.0791
 7907W        W27441   6.868   4.791  13.057  0.1283  0.0536  0.0368
 7908W        W27442  17.416   0.846   3.737  0.2778  0.2225  0.4914
 7909W        W27443   4.758  10.670  16.321 -0.0973 -0.1632  0.2053
 7910W        W27444  10.535  10.963  13.431  0.1749  0.0569 -0.1919
 7911W        W27445  15.030   8.867  11.665  0.4645 -0.2952 -0.1716
 7912W        W27446  12.497  12.137  13.870 -0.2886  0.0451 -0.0897
 7913W        W27447  16.659   4.732  12.359  0.2005  0.2188  0.0160
 7914W        W27448   3.707   6.852   3.859 -0.0444  0.2670 -0.2278
 7915W        W27449  13.877   4.779   3.693 -0.2185  0.1808  0.0842
 7916W        W27450  12.234  15.293   4.562 -0.1070 -0.2793  0.1563
 7917W        W27451   7.832   2.634   4.653 -0.1009 -0.3319  0.0044
 7918W        W27452  11.839   9.872  13.092 -0.3349 -0.2486 -0.0565
 7919W        W27453  17.795   4.449  15.263  0.1163  0.0664 -0.1839
 7920W        W27454   9.144  15.990  12.670  0.2180  0.1052 -0.1242
 7921W        W27455   1.558  15.993   0.824 -0.5039  0.0719  0.2028
 7922W        W27456   3.670  12.702  12.801 -0.3098 -0.1509  0.1952
 7923W        W27457   1.360  16.363  12.517 -0.0498 -0.2034  0.0687
 7924W        W27458   7.644   0.111   3.253 -0.0562 -0.0142 -0.0589
 7925W        W27459  12.785   1.636  14.814 -0.0526  0.2261 -0.0511
 7926W        W27460   5.118   6.751   0.142 -0.0103 -0.0219 -0.2703
 7927W        W27461   1.013   7.739   2.307 -0.1745  0.1743  0.0999
 7928W        W27462   3.224   8.707   3.850  0.1810  0.1681 -0.2653
 7929W        W27463  13.166  12.464   1.404 -0.1643 -0.2532  0.4720
 7930W        W27464   2.650   9.644  14.543  0.0961 -0.1504  0.2785
 7931W        W27465  15.440   0.102   0.148  0.1604 -0.1167  0.2077
 7932W        W27466   1.610   0.640  16.746  0.2060  0.3057  0.2089
 7933W        W27467  12.552   8.635  16.415  0.3301  0.1809 -0.1495
 7934W        W27468   9.956   6.759   1.584  0.0997 -0.0362  0.1854
 7935W        W27469  14.425   5.488   4.155  0.1594  0.2514  0.1966
 7936W        W27470   7.423   7.612  12.913 -0.1109  0.0772 -0.2171
 7937W        W27471   6.105   6.484   1.146 -0.4314  0.0138  0.0980
 7938W        W27472  17.435   1.602   0.454 -0.0822 -0.0361 -0.0726
 7939W        W27473  17.108  11.720  12.906 -0.1611 -0.1859  0.1202
 7940W        W27474  16.581  14.186  14.189  0.1111 -0.2031  0.1225
 7941W        W27475   9.622  12.351   1.591  0.0576 -0.1463  0.0532
 7942W        W27476  12.738   6.557  13.144  0.1142  0.2399  0.0526
 7943W        W27477  16.774   1.971  14.406 -0.1068  0.2236  0.0710
 7944W        W27478   3.662  11.206   0.512 -0.0029 -0.1411 -0.0681
 7945W        W27479  11.581  12.450   0.866  0.6352  0.1704  0.1439
 7946W        W27480  17.278  14.237   4.629 -0.1945 -0.0833 -0.3214
 7947W        W27481   7.845  17.303  15.099  0.1806 -0.2227 -0.1177
 7948W        W27482   0.154   0.164   4.243 -0.1431 -0.0327 -0.3571
 7949W        W27483   4.141   9.066  15.713  0.0377  0.0295  0.1932
 7950W        W27484  17.742  14.044  12.699 -0.0307 -0.0525  0.2313
 7951W        W27485   7.828   4.219   1.508 -0.1451 -0.0396  0.1927
 7952W        W27486   6.221  13.105   1.226 -0.3289  0.1361  0.0094
 7953W        W27487   2.744  10.660   2.659  0.1973 -0.5544  0.0505
 7954W        W27488  13.422   2.818  14.635 -0.1242 -0.0804  0.2683
 7955W        W27489   0.048   4.906  15.546  0.2337 -0.0061  0.2190
 7956W        W27490  14.618   8.318   0.769 -0.1871  0.0290 -0.1246
 7957W        W27491   2.163   7.125   2.705 -0.2845  0.0322  0.2507
 7958W        W27492   6.340   6.210   5.724  0.1792 -0.0537  0.2484
 7959W        W27493   7.425  17.417   4.936  0.1583 -0.1501 -0.0143
 7960W        W27494   2.429   4.397  11.776 -0.0947 -0.1977 -0.0744
 7961W        W27495  10.827   1.577   1.538  0.3209  0.2931  0.3056
 7962W        W27496  15.109   0.687  15.459 -0.1370  0.0273 -0.0562
 7963W        W27497   8.732  14.428  16.663  0.0351 -0.2617 -0.0853
 7964W        W27498  11.606   3.216  15.980 -0.1735  0.1185 -0.3094
 7965W        W27499  14.548  16.544  14.892 -0.1646  0.0825  0.4829
 7966W        W27500  13.206  13.915  12.755  0.1864  0.1430 -0.0484
 7967W        W27501  12.135   5.162  13.270  0.0380 -0.2311  0.1533
 7968W        W27502  16.447   4.544   1.618  0.0817  0.0185  0.0183
 7969W        W27503  14.121  11.067  14.723  0.0765 -0.2831  0.1901
 7970W        W27504   3.104   4.016  14.806  0.0517  0.0437 -0.0928
 7971W        W27505   4.547   4.307  11.807 -0.0891 -0.1201  0.1676
 7972W        W27506  16.333  10.097   2.483 -0.1885  0.0129  0.1107
 7973W        W27507  16.108  11.347   3.450 -0.1410  0.2447 -0.2831
 7974W        W27508   2.734   7.021   4.392  0.1559  0.1110 -0.0557
 7975W        W27509   7.255  10.717   4.598 -0.2863  0.1615 -0.2446
 7976W        W27510   8.803   0.701   0.818 -0.1220 -0.1107  0.1664
 7977W        W27511  17.428  15.408   0.541 -0.3084 -0.0533 -0.0630
 7978W        W27512  13.900  17.230   4.086  0.3503  0.0138 -0.0658
 7979W        W27513   8.623  17.884  13.726 -0.2279 -0.0737  0.1602
 7980W        W27514  17.077   4.843  16.535  0.0321  0.0005  0.3049
 7981W        W27515   2.775  17.365   2.043 -0.2811  0.1542 -0.2268
 7982W        W27516   9.882  14.070  14.292  0.0898 -0.1725  0.0418
 7983W        W27517  16.671  13.239   0.369 -0.0802  0.2870  0.1457
 7984W        W27518   0.630   2.089   2.364  0.1126  0.1563  0.0295
 7985W        W27519   9.937   3.475   4.389 -0.0797 -0.0608  0.2161
 7986W        W27520  10.468  11.446   2.468  0.2220  0.0853 -0.0754
 7987W        W27521  17.456   7.534   4.347  0.0334  0.0334  0.0650
 7988W        W27522   3.422   8.598   3.286 -0.0223  0.2712 -0.1469
 7989W        W27523   9.982  13.935  12.054  0.0724  0.0712  0.0270
 7990W        W27524  15.536   9.300   1.455  0.1170 -0.3750 -0.4081
 7991W        W27525   8.730   1.040  13.860 -0.0336  0.4277  0.0674
 7992W        W27526   8.470  10.017   0.864 -0.0570  0.0151  0.0413
 7993W        W27527   3.430   9.978   1.274 -0.0882  0.3362  0.2991
 7994W        W27528  13.902   3.852  14.041 -0.0330 -0.2273  0.0912
 7995W        W27529  11.374   2.876   2.978 -0.3949  0.2654 -0.1799
 7996W        W27530   5.756  10.157   0.697 -0.2590  0.1080 -0.0130
 7997W        W27531  13.642   9.107  16.384 -0.3135 -0.2408  0.2364
 7998W        W27532   7.503   7.827   1.305 -0.2133  0.0897 -0.0910
 7999W        W27533   2.020   5.435  11.864  0.0006 -0.1663  0.0540
 8000W        W27534   9.559   2.113  15.980  0.0552  0.1648 -0.1595
 8001W        W27535   9.432  12.878   4.654  0.0583 -0.0074  0.2734
 8002W        W27536   4.873  16.224  16.510 -0.1582 -0.1152  0.0281
 8003W        W27537   5.304   5.928  11.094  0.1798 -0.0139  0.0249
 8004W        W27538   4.905  15.070   2.147  0.0330 -0.2238 -0.2146
 8005W        W27539   1.200  10.979  16.675  0.2662 -0.1780 -0.2155
 8006W        W27540  15.526  12.080   0.592  0.0531 -0.0472  0.2592
 8007W        W27541   4.263  14.719   1.750  0.0227  0.3247  0.1877
 8008W        W27542   4.232   1.647   4.117  0.0363  0.2452  0.1560
 8009W        W27543  14.850   4.136  16.329  0.1131  0.2261  0.2345
 8010W        W27544   0.095   3.334  14.630 -0.0435  0.3696  0.0984
 8011W        W27545  15.432   6.844   4.137  0.1487  0.1745  0.0733
 8012W        W27546   3.448  13.024   3.573  0.1177 -0.3161 -0.0769
 8013W        W27547  11.704   0.508  14.792 -0.2630 -0.1648 -0.1107
 8014W        W27548  14.195   4.141  11.807  0.0219 -0.2188 -0.0989
 8015W        W27549   3.065   5.156   0.565  0.1392 -0.1201 -0.1693
 8016W        W27550  13.616   6.952   4.499 -0.2733  0.1211 -0.0229
 8017W        W27551   7.332  15.582   4.184 -0.2179 -0.1449 -0.2660
 8018W        W27552   6.600   8.252   0.712  0.0242  0.2093 -0.0097
 8019W        W27553   4.261  11.906   2.335  0.1994  0.1720  0.2820
 8020W        W27554  14.888  14.264   0.794  0.3550  0.2141 -0.2506
 8021W        W27555  12.144   1.714   3.388  0.0392 -0.1950  0.2484
 8022W        W27556  11.580  16.009  16.137 -0.5162  0.1097  0.0427
 8023W        W27557   3.267   2.239  13.671  0.0788  0.0829  0.4384
 8024W        W27558  12.003   3.645   1.196  0.0209 -0.2072 -0.3591
 8025W        W27559  16.028  12.125  13.073 -0.1964 -0.2103  0.1222
 8026W        W27560   8.127  15.798  12.743 -0.0816  0.1515 -0.1229
 8027W        W27561  12.048   4.678   3.399  0.0630 -0.0884  0.3178
 8028W        W27562   3.314   6.701  14.914 -0.4400  0.2042  0.1970
 8029W        W27563  13.763  14.649   3.247  0.0237 -0.0043 -0.3000
 8030W        W27564   1.335   8.068   3.064  0.1072  0.2539 -0.0575
 8031W        W27565  15.693   7.893   3.496  0.1924 -0.2008  0.1430
 8032W        W27566   3.885  13.238   4.899  0.1189 -0.0352  0.1850
 8033W        W27567   3.651  11.880  15.562 -0.1668 -0.0694  0.1168
 8034W        W27568   4.726   5.831   5.005 -0.0466 -0.2869 -0.5985
 8035W        W27569   1.580  14.677  12.560 -0.2504 -0.0196 -0.0496
 8036W        W27570   8.033   2.835  15.584  0.0601 -0.0605 -0.1685
 8037W        W27571   4.751   7.739   4.924 -0.0170 -0.1584 -0.0650
 8038W        W27572   7.931  11.905   2.049 -0.0669  0.0579 -0.1621
 8039W        W27573   5.948   6.994   3.557  0.0436 -0.2637 -0.3699
 8040W        W27574  15.915  10.058   1.665 -0.0147 -0.2018  0.0866
 8041W        W27575   5.543  15.249  15.605 -0.2040 -0.3849  0.3306
 8042W        W27576   9.865  17.177  13.056 -0.2269 -0.0544 -0.4246
 8043W        W27577   2.765  16.802  13.312 -0.0918 -0.0795 -0.0133
 8044W        W27578   1.878  16.428  14.806 -0.0911 -0.1039 -0.3872
 8045W        W27579   4.497   0.906   0.011 -0.0996 -0.1126  0.1700
 8046W        W27580   0.409   9.661   3.505 -0.0860 -0.0805 -0.1071
 8047W        W27581  14.347   2.709  12.609 -0.1281  0.0201 -0.0722
 8048W        W27582   3.355   3.727   0.140 -0.2855  0.2386 -0.0700
 8049W        W27583  15.367   8.421   0.021 -0.1048  0.1926 -0.1928
 8050W        W27584   8.558  16.008  14.715  0.1853 -0.1770  0.0547
 8051W        W27585  10.417   2.518   0.912 -0.0117 -0.0053  0.2412
 8052W        W27586   8.782   0.031  12.287  0.0531 -0.0504 -0.2024
 8053W        W27587   6.669   5.695   4.497  0.1007 -0.0472  0.0053
 8054W        W27588  13.765   4.295  14.329 -0.0578  0.0797 -0.0569
 8055W        W27589  15.996  10.563   4.640  0.2772  0.2907  0.0821
 8056W        W27590   6.827   5.381  15.481  0.1291 -0.1548  0.5085
 8057W        W27591   8.811   6.318  13.004  0.1095  0.3654 -0.1141
 8058W        W27592   3.499   4.466   4.446 -0.1482  0.2117  0.0235
 8059W        W27593  14.947   3.154  16.176  0.0622  0.0348  0.0582
 8060W        W27594   8.247   5.922  16.032 -0.0381  0.0046 -0.0963
 8061W        W27595  15.585  10.419  12.726  0.1236  0.0011 -0.2131
 8062W        W27596  14.084   1.186  13.034 -0.1051  0.5372  0.0951
 8063W        W27597   4.094   4.524  12.645  0.4651 -0.1825 -0.1508
 8064W        W27598   6.571   1.971   2.018 -0.3404  0.0293 -0.0737
 8065W        W27599  16.848   9.055   2.110 -0.0779 -0.0575  0.0501
 8066W        W27600  11.869  13.230  15.297 -0.0372  0.0546 -0.0064
 8067W        W27601   3.550   8.076   4.676  0.1281  0.1144 -0.1807
 8068W        W27602   3.182  17.653  13.047 -0.0328 -0.3174 -0.0528
 8069W        W27603   7.277   9.760   4.422 -0.0317 -0.1124  0.1021
 8070W        W27604   8.120   5.780  15.119 -0.3240 -0.0348  0.0553
 8071W        W27605  12.240  12.265  13.438 -0.0002  0.2415  0.1487
 8072W        W27606  16.836  11.525   0.013  0.2081  0.0733 -0.1018
 8073W        W27607  12.799  15.596   2.023 -0.3094 -0.0900 -0.2909
 8074W        W27608  17.691  12.604   4.243  0.1347 -0.2105  0.0014
 8075W        W27609   8.072   4.031  16.212 -0.1962  0.0502  0.2586
 8076W        W27610   3.383  17.556   2.272  0.0193 -0.3545 -0.3974
 8077W        W27611   4.532  12.617   2.284 -0.0290 -0.0140  0.1203
 8078W        W27612  16.088  12.584  12.208  0.2869 -0.2565  0.2024
 8079W        W27613  11.046  14.191   0.883 -0.2293 -0.0235  0.2185
 8080W        W27614   6.724   4.259   5.347  0.2334 -0.1954  0.0309
 8081W        W27615   8.092   4.940  13.589 -0.0238  0.2121 -0.0257
 8082W        W27616  17.463   9.624   3.215 -0.0765  0.2729 -0.0261
 8083W        W27617   9.985   0.038   3.301 -0.0333 -0.3838 -0.2369
 8084W        W27618  11.883   7.898   1.078  0.1591  0.1147 -0.4815
 8085W        W27619  15.462   2.912   3.011  0.0032 -0.1199  0.1534
 8086W        W27620  12.692   3.215   0.493 -0.0635  0.1371 -0.1933
 8087W        W27621  17.525   4.233   5.092  0.0557 -0.0928  0.1277
 8088W        W27622  12.964  17.538   3.749 -0.3356  0.4959 -0.0801
 8089W        W27623   2.991   8.257   4.038  0.0763 -0.1241 -0.1085
 8090W        W27624   3.171   9.981  12.618  0.2208  0.1650  0.0136
 8091W        W27625  11.116   4.973  16.443  0.1120  0.2740 -0.0230
 8092W        W27626   1.479  15.653  13.716  0.0119  0.1768  0.1782
 8093W        W27627  17.221   2.353  12.036 -0.0926 -0.4524  0.0546
 8094W        W27628   9.128  15.356  15.069  0.1751  0.0908  0.1817
 8095W        W27629   7.487   1.786   1.182  0.0550 -0.0707 -0.1974
 8096W        W27630   7.828  16.059   4.985  0.0857 -0.0263  0.0354
 8097W        W27631   0.818  13.916   1.515  0.1752 -0.1646 -0.1847
 8098W        W27632   4.112   6.442   1.772  0.1071  0.0071  0.1024
 8099W        W27633  10.521  15.293  16.223  0.1370 -0.1055  0.2533
 8100W        W27634  15.023   4.261  13.350 -0.0333  0.0658 -0.0061
 8101W        W27635  17.645  14.130  15.980 -0.2577 -0.1299  0.2142
 8102W        W27636   7.901   5.957   2.825  0.1588 -0.0572 -0.1506
 8103W        W27637  10.229   1.832   0.225 -0.2037  0.0978  0.0330
 8104W        W27638   1.067  13.541  11.894 -0.1672  0.1571 -0.2526
 8105W        W27639   2.838   1.174   6.225  0.0878 -0.1483  0.0548
 8106W        W27640   9.270  17.661   4.701  0.0366 -0.1284 -0.1970
 8107W        W27641  10.781   4.030   0.148  0.1189  0.1463  0.1281
 8108W        W27642   0.651  14.438   4.863 -0.0486  0.2523 -0.1601
 8109W        W27643  10.764   1.337   0.625 -0.1281 -0.0714  0.1993
 8110W        W27644   8.551  12.218   4.574 -0.1186  0.3650 -0.0411
 8111W        W27645  13.254  14.473  12.975 -0.3246  0.0671 -0.0763
 8112W        W27646  12.272   3.605  15.107 -0.1221  0.2397 -0.0026
 8113W        W27647   1.844   0.861  14.614  0.0427  0.1167  0.1247
 8114W        W27648  12.916   2.520   2.640 -0.1302 -0.1787 -0.2152
 8115W        W27649   4.139  10.617   2.894  0.0480  0.0059 -0.1664
 8116W        W27650  14.540   5.618   1.083  0.0647  0.3836 -0.0729
 8117W        W27651   4.905  14.851   1.597  0.0647 -0.2978  0.0016
 8118W        W27652   5.301   0.217   4.076  0.0860 -0.1465 -0.2919
 8119W        W27653   5.741   3.643  15.662  0.1551 -0.1207 -0.1094
 8120W        W27654  17.325  12.810  14.920 -0.1760  0.0419 -0.0745
 8121W        W27655  13.626  13.973  12.273 -0.1082  0.1096 -0.0490
 8122W        W27656   4.643  10.298  13.154 -0.0006  0.2655  0.2852
 8123W        W27657   7.177  13.777  12.081  0.0064  0.0202 -0.3811
 8124W        W27658   3.580  16.240   2.413 -0.1433 -0.1065 -0.6403
 8125W        W27659  14.378   6.877   0.937 -0.0250 -0.3493  0.0275
 8126W        W27660   9.225   8.354   4.409  0.1615 -0.0730 -0.1698
 8127W        W27661  15.652  10.970  13.006 -0.1010 -0.3413  0.2609
 8128W        W27662  16.681   4.710  15.204  0.2913 -0.0478 -0.0766
 8129W        W27663   8.137   6.933   5.106 -0.1790  0.2454 -0.1451
 8130W        W27664   9.975   0.615   0.401 -0.2152  0.0130  0.0699
 8131W        W27665  13.194   7.026   3.147  0.0207 -0.3627 -0.2330
 8132W        W27666   7.461  17.096   1.183 -0.0163  0.0757  0.1969
 8133W        W27667  16.300   2.021  14.343 -0.3345  0.2569  0.0413
 8134W        W27668  10.570   1.078   4.170 -0.0658  0.2126  0.2966
 8135W        W27669   8.989  10.510   0.220 -0.2311 -0.0341 -0.0004
 8136W        W27670   7.821  12.557  13.127  0.3525  0.2989  0.0636
 8137W        W27671  13.584  17.549   1.984 -0.3318  0.1614 -0.0230
 8138W        W27672   0.109   2.686   2.808  0.0088 -0.1514  0.0245
 8139W        W27673   7.241  16.996  12.995  0.0789  0.3009  0.4162
 8140W        W27674  10.570   7.570   5.691 -0.0213  0.1131 -0.0658
 8141W        W27675  14.283  10.013   0.243 -0.0373  0.1050 -0.0097
 8142W        W27676   9.870  15.748   2.503  0.1623 -0.2898 -0.3801
 8143W        W27677   2.803   4.666   3.557  0.1683 -0.3379  0.0814
 8144W        W27678  12.134  10.409   3.071 -0.1955 -0.0117  0.1903
 8145W        W27679   2.322   2.416   4.854 -0.0056  0.0676 -0.2761
 8146W        W27680  17.689   2.152  14.284 -0.0207  0.1729  0.3702
 8147W        W27681  14.214   5.084  12.618 -0.1605 -0.0303  0.1690
 8148W        W27682   7.406   8.720  15.635  0.0036 -0.3450  0.0175
 8149W        W27683  15.727  13.311  14.009  0.1550  0.2670  0.2614
 8150W        W27684   8.164   9.156   2.745  0.4444  0.0814 -0.1093
 8151W        W27685  12.747   7.898  15.804  0.2820  0.1020 -0.0983
 8152W        W27686   6.598   5.251  12.049  0.0183  0.0845  0.1996
 8153W        W27687   7.069   8.704   4.182  0.2270  0.2255  0.3275
 8154W        W27688   4.838   2.344  14.247  0.0638 -0.0716 -0.0064
 8155W        W27689   7.803   6.031   3.654  0.2020  0.1809 -0.1648
 8156W        W27690   6.360   1.719  14.630 -0.1107  0.0015  0.2782
 8157W        W27691   4.635  11.334  13.820 -0.1069  0.2451  0.0684
 8158W        W27692   5.743   9.864  15.050  0.1280 -0.1860 -0.0309
 8159W        W27693  13.723   2.683  13.332 -0.2566 -0.1755 -0.1387
 8160W        W27694  12.279  12.994   0.048 -0.0307  0.5740 -0.1051
 8161W        W27695   8.923   0.255  14.916  0.1736 -0.4802  0.1223
 8162W        W27696   7.485  16.797  16.729 -0.1663 -0.3281 -0.0076
 8163W        W27697   3.620  16.837   3.606  0.1926  0.2576 -0.4058
 8164W        W27698   1.464  14.050   3.333  0.1398  0.1103 -0.1088
 8165W        W27699   7.777   0.837   1.887  0.1781  0.3370  0.1521
 8166W        W27700   8.070   7.769   3.668  0.0099 -0.0495 -0.2209
 8167W        W27701   6.235   7.221   4.373  0.1989  0.2080  0.0836
 8168W        W27702   1.215  11.357  14.241  0.3003 -0.0004 -0.2788
 8169W        W27703  15.883   7.697  16.411 -0.2456  0.1382  0.1228
 8170W        W27704   9.224   9.371  13.248 -0.0506  0.5239  0.0482
 8171W        W27705   9.679  12.976   1.062 -0.3293 -0.0477 -0.0808
 8172W        W27706   6.839   0.359  14.802 -0.2505 -0.0609  0.1340
 8173W        W27707  14.518   3.924   3.095 -0.1932  0.2296  0.0206
 8174W        W27708   1.491  11.815   4.941  0.0368  0.0067 -0.0451
 8175W        W27709   4.782   2.540   3.384  0.0141  0.2175 -0.3223
 8176W        W27710   2.162   3.940   5.254 -0.0140  0.5587 -0.0733
 8177W        W27711  15.312  11.516   4.751  0.1903 -0.3082  0.2620
 8178W        W27712   0.118  16.151  14.879  0.2843 -0.3178  0.3805
 8179W        W27713   4.740   2.748   5.211  0.1623  0.0110 -0.0207
 8180W        W27714   0.278  16.314   0.231  0.0190  0.2862 -0.0551
 8181W        W27715  15.313  13.283   3.521  0.1045 -0.0878  0.1020
 8182W        W27716  16.267   0.349  13.853 -0.1860  0.1280 -0.1375
 8183W        W27717   5.386   4.647  16.019  0.0085  0.2599  0.0507
 8184W        W27718   0.310   7.107  12.750  0.0211 -0.1041  0.0535
 8185W        W27719   9.217   0.553   3.544 -0.0597  0.2233  0.2990
 8186W        W27720  14.806  13.135  11.933 -0.1702  0.0296  0.4569
 8187W        W27721   6.431  16.804  14.031  0.4311 -0.2587 -0.1161
 8188W        W27722  12.641   5.703   1.020 -0.3351 -0.2010  0.2433
 8189W        W27723   0.022  10.120   1.027 -0.3640 -0.3170 -0.0692
 8190W        W27724   4.252   8.492   0.189  0.1313  0.0835 -0.1803
 8191W        W27725  13.437   6.122  11.368 -0.0011 -0.0008 -0.0292
 8192W        W27726   1.343   2.925   3.437  0.0249 -0.1160  0.0781
 8193W        W27727  10.669   4.557  15.937  0.0616 -0.1141 -0.0812
 8194W        W27728   3.457   7.815   2.279  0.5283 -0.0934 -0.1242
 8195W        W27729  14.913   4.893   2.036 -0.2992  0.0268 -0.1261
 8196W        W27730   8.336   3.328  12.499 -0.2437 -0.1289  0.0769
 8197W        W27731  13.342   8.303  15.190  0.1962 -0.0925  0.2642
 8198W        W27732   2.385  11.960  15.675 -0.2039  0.2449 -0.1106
 8199W        W27733   5.699  15.681  16.370 -0.0578 -0.3305  0.0160
 8200W        W27734  14.741  12.490  14.151  0.1022  0.0655  0.1270
 8201W        W27735   1.803   0.935   1.664 -0.3017  0.3904  0.4446
 8202W        W27736  11.901   9.935  12.609  0.3183  0.0460 -0.0948
 8203W        W27737  14.658   7.274   2.053 -0.0162  0.2170  0.0756
 8204W        W27738   1.584   1.600  16.600  0.0091  0.0705  0.2182
 8205W        W27739  12.814   4.210   4.282  0.4010  0.3708 -0.0526
 8206W        W27740   3.574   9.849  13.410  0.2262 -0.1076  0.0836
 8207W        W27741   7.344  15.132   4.366  0.1231 -0.0481  0.2431
 8208W        W27742  16.182  10.000   0.777  0.2280 -0.1449  0.4220
 8209W        W27743   6.250   6.867   3.164 -0.3649 -0.2463 -0.0777
 8210W        W27744   0.966   6.205  11.804  0.1751  0.2486 -0.0894
 8211W        W27745  12.963  12.914  14.498  0.3297  0.0158  0.1348
 8212W        W27746   7.050  17.243   3.399  0.0773  0.3282  0.0789
 8213W        W27747  12.548  11.253  12.823  0.0568 -0.1763 -0.0813
 8214W        W27748  14.214   4.777   1.221  0.4321  0.0544  0.3084
 8215W        W27749  11.831   4.710   4.501  0.2371 -0.2267 -0.0055
 8216W        W27750  12.157   4.763   2.000 -0.1412 -0.1616 -0.3480
 8217W        W27751   7.113  14.260  16.110  0.1057  0.1290  0.0735
 8218W        W27752  15.624  13.852  16.504  0.1465  0.0278  0.2530
 8219W        W27753   0.708   1.053   2.594 -0.0749  0.2370  0.1939
 8220W        W27754   3.293   8.595  16.121  0.0864  0.1782  0.2881
 8221W        W27755  13.849  17.303  14.043  0.3287 -0.1178 -0.2967
 8222W        W27756  12.115   7.885  12.924 -0.1616  0.0952  0.2550
 8223W        W27757  17.234  10.360   5.587  0.1836 -0.2782  0.0314
 8224W        W27758   0.597  11.672   4.513  0.0623  0.1250  0.0737
 8225W        W27759   3.944  14.354   4.087  0.3251  0.1664 -0.0299
 8226W        W27760   1.920   8.075   3.125  0.2860  0.1335 -0.2328
 8227W        W27761   1.386   0.731  14.831  0.1556 -0.0398 -0.0974
 8228W        W27762  11.288   9.160   2.081 -0.2669  0.2488  0.3319
 8229W        W27763  16.294   3.793   3.982 -0.1593  0.2035  0.1738
 8230W        W27764  14.271   6.817  14.422  0.4275 -0.2366  0.0847
 8231W        W27765   9.176   9.691   0.491 -0.1682 -0.0384  0.0023
 8232W        W27766  11.215   0.179  14.256 -0.1226 -0.3664  0.0490
 8233W        W27767   8.593  16.835  15.371  0.1504  0.1012  0.2427
 8234W        W27768  11.037   0.756   3.173  0.0723 -0.0540  0.6918
 8235W        W27769  13.955  13.351   3.640 -0.0979 -0.1999  0.1537
 8236W        W27770  15.511  14.166   3.050 -0.1790 -0.1466  0.0348
 8237W        W27771  14.005  12.923  14.895  0.3083  0.2202  0.2938
 8238W        W27772   9.756  17.712  12.300 -0.0704 -0.1135 -0.4181
 8239W        W27773  16.776   5.494   2.822  0.2194  0.3570  0.3089
 8240W        W27774   7.327  12.807   0.146  0.0104 -0.2614  0.2940
 8241W        W27775   1.025  14.159  16.293  0.0614  0.0184  0.1273
 8242W        W27776  17.003  17.773  15.369  0.1540 -0.1008 -0.3487
 8243W        W27777   5.819  10.398  12.618 -0.1243  0.1531 -0.1686
 8244W        W27778   5.771   5.518  13.390 -0.1314  0.1795  0.0915
 8245W        W27779   3.247   9.369  16.496 -0.0068  0.0347  0.0992
 8246W        W27780  11.978  16.844   0.890 -0.2719  0.4641 -0.1181
 8247W        W27781   5.219   9.123  14.679 -0.1237 -0.0233 -0.1407
 8248W        W27782  14.867   2.874   4.554 -0.0248  0.1200  0.1407
 8249W        W27783  14.916   3.040  13.056 -0.0189  0.0878 -0.0429
 8250W        W27784  17.484   1.667   1.313  0.2607  0.2611 -0.0792
 8251W        W27785   3.548  11.127   4.007 -0.3660  0.2012  0.1021
 8252W        W27786   5.916   4.941   4.191  0.0945 -0.2092 -0.1177
 8253W        W27787   3.593   2.022   5.059 -0.0914 -0.0541  0.1298
 8254W        W27788   4.701  11.531   3.934 -0.0009  0.0929  0.1432
 8255W        W27789  12.185   1.807   2.564  0.2087  0.0791  0.0311
 8256W        W27790   0.264  15.394   3.485 -0.0306 -0.0724  0.0838
 8257W        W27791   6.946   0.993   2.460 -0.0357 -0.0689  0.1282
 8258W        W27792  13.494   9.251   2.045 -0.0515  0.1376  0.1393
 8259W        W27793   0.779   7.598   1.562 -0.0038 -0.0686 -0.1375
 8260W        W27794   3.699   9.321  15.420  0.2043 -0.2089  0.1804
 8261W        W27795  15.153   1.987   4.604  0.2788 -0.1765 -0.1411
 8262W        W27796   6.952   1.586  14.500 -0.0335  0.0463 -0.0384
 8263W        W27797   6.963   6.877  12.635 -0.3131  0.1528  0.2631
 8264W        W27798   8.646   5.175  14.954  0.2042 -0.0281 -0.1520
 8265W        W27799  11.469   4.895  14.157  0.0039  0.1647  0.0588
 8266W        W27800  12.079  12.389  12.447  0.0194 -0.1718 -0.1551
 8267W        W27801   3.394  10.648   2.111 -0.1078  0.1315 -0.1997
 8268W        W27802   4.407   4.995   3.700 -0.0435  0.1155  0.1058
 8269W        W27803   1.918  12.136   5.037 -0.1345  0.1897 -0.2005
 8270W        W27804   2.383   9.082  16.150  0.3467 -0.0219  0.0391
 8271W        W27805   7.419   0.748   0.900  0.1436 -0.0908 -0.1322
 8272W        W27806  13.325   9.746  14.813  0.0431 -0.2255 -0.1937
 8273W        W27807   4.362   5.668   2.703  0.0182  0.1370  0.1088
 8274W        W27808   1.423   5.181   4.064 -0.0512 -0.0356  0.4337
 8275W        W27809  13.692  12.628   1.692  0.2804 -0.0142  0.0492
 8276W        W27810  14.266  14.336  15.514  0.0870 -0.3135 -0.0071
 8277W        W27811  12.796  13.228   0.142 -0.2968 -0.1968 -0.0012
 8278W        W27812   5.315   2.362  14.749  0.0633 -0.1926 -0.2486
 8279W        W27813   3.747  16.697  16.728  0.0624 -0.1821  0.0812
 8280W        W27814   6.030  15.391  15.528 -0.1895 -0.0232  0.1401
 8281W        W27815   9.496  17.180  14.449  0.0411 -0.1212 -0.2569
 8282W        W27816  10.085   8.639  12.556 -0.1215  0.0383 -0.0936
 8283W        W27817  17.071   4.710   2.838 -0.2901  0.0045  0.1874
 8284W        W27818   3.178   1.653  12.915  0.0918 -0.0617  0.1065
 8285W        W27819   0.658   5.003  12.166 -0.1356 -0.1587 -0.0831
 8286W        W27820   4.568   8.921   4.178 -0.0815 -0.0419 -0.0827
 8287W        W27821   6.902  13.535  14.123  0.0612 -0.0111  0.0182
 8288W        W27822  11.808   2.249  16.416 -0.1584 -0.0501  0.0366
 8289W        W27823  16.533   7.906   3.227  0.1274 -0.1292  0.0311
 8290W        W27824  12.463   2.761  15.851 -0.1172 -0.2322 -0.2721
 8291W        W27825  16.048   3.486  15.890 -0.2274  0.5236  0.0656
 8292W        W27826  16.679   3.411  14.242  0.2534 -0.0478  0.0986
 8293W        W27827   8.341  17.343   3.998  0.1924  0.0066  0.0240
 8294W        W27828   1.746  12.264  12.332  0.2988 -0.0842 -0.2067
 8295W        W27829  13.398   4.939  13.947  0.2190  0.3088 -0.3116
 8296W        W27830  12.863  11.067  12.440  0.0710 -0.0558  0.0335
 8297W        W27831  14.652  11.866  13.059 -0.2118 -0.1046  0.0048
 8298W        W27832  16.510   4.152   2.289 -0.1280  0.0895 -0.1093
 8299W        W27833   2.074  12.353  15.529 -0.0007 -0.1250 -0.2143
 8300W        W27834  10.360   1.267  15.330 -0.1012  0.1480 -0.3580
 8301W        W27835   2.379   0.247   1.250  0.4509 -0.0868  0.0139
 8302W        W27836   9.207  14.288   1.213 -0.1299 -0.2170  0.0174
 8303W        W27837   8.843  13.943   4.142 -0.1377  0.1778  0.1102
 8304W        W27838  15.704   3.386  13.983 -0.0269 -0.2305  0.1378
 8305W        W27839  11.898  10.107  12.137 -0.2944  0.1295  0.0590
 8306W        W27840  17.814  15.078   0.541 -0.2823  0.0626  0.0502
 8307W        W27841  10.096   6.627  10.503 -0.2439 -0.1445 -0.3851
 8308W        W27842   3.212   8.887   1.054  0.0018  0.3793 -0.4262
 8309W        W27843   8.653   7.053   3.837 -0.0098 -0.2069 -0.0313
 8310W        W27844   9.848   8.096  13.156  0.0732  0.0447  0.0773
 8311W        W27845  11.431   7.794  14.839 -0.2935 -0.4442 -0.0178
 8312W        W27846   5.094  12.800   4.700  0.0410 -0.1531  0.2848
 8313W        W27847  14.543   2.747   1.497  0.0822 -0.1673  0.2851
 8314W        W27848  11.708  14.441   0.633 -0.2024  0.2527  0.2085
 8315W        W27849   8.292  10.913   1.285  0.0276  0.1260 -0.0931
 8316W        W27850  17.102  16.406  15.064  0.0665  0.1301 -0.0271
 8317W        W27851  14.755   7.193  12.040 -0.2082 -0.3078 -0.0600
 8318W        W27852   5.087   6.954  13.931  0.0003 -0.0454 -0.3131
 8319W        W27853   4.046   9.092  13.357  0.0494  0.0466 -0.1803
 8320W        W27854   4.035   4.006  12.536  0.2086  0.0764  0.0016
 8321W        W27855  17.904   1.798  14.617 -0.0294  0.2664 -0.1012
 8322W        W27856  13.747  17.000  12.606  0.1989  0.1149  0.1399
 8323W        W27857   6.415   0.421   3.035 -0.1295  0.0956 -0.5221
 8324W        W27858   2.711   7.091  14.219 -0.0254  0.1757  0.0595
 8325W        W27859  11.960   9.598   0.459  0.2902  0.2116 -0.1814
 8326W        W27860   8.817  17.291  15.873 -0.1580  0.1699 -0.1009
 8327W        W27861  13.849   6.855   1.762 -0.0113 -0.0552  0.0696
 8328W        W27862   6.436   0.849  14.176  0.1419 -0.0180 -0.0431
 8329W        W27863   9.971   0.773  12.714 -0.2147 -0.5991 -0.0387
 8330W        W27864  15.558   7.224   4.483 -0.0529  0.2073 -0.0364
 8331W        W27865  13.008   5.394   1.612 -0.0589 -0.3582  0.0387
 8332W        W27866   5.551   2.355   5.011  0.1427  0.1096  0.0702
 8333W        W27867   9.120   9.592   0.029  0.4160 -0.3199  0.2029
 8334W        W27868  14.879  16.741  13.970  0.1449 -0.1992  0.0730
 8335W        W27869   4.303  12.949  13.935 -0.0653 -0.0301  0.0187
 8336W        W27870   5.152   6.206  13.481 -0.0800 -0.1162 -0.0713
 8337W        W27871  10.548   2.521   0.361  0.3492  0.2000  0.1997
 8338W        W27872  13.866  10.074  15.735  0.1428 -0.1384 -0.1579
 8339W        W27873   3.407   5.197  14.031 -0.1833  0.2493  0.0091
 8340W        W27874   3.231   6.591   3.182 -0.2159  0.3572 -0.0555
 8341W        W27875  16.100  16.475  12.603 -0.0254 -0.0674 -0.1247
 8342W        W27876  11.316   2.978  12.141 -0.4118 -0.2200  0.1117
 8343W        W27877   4.090  11.309  15.153 -0.3933  0.3596  0.1095
 8344W        W27878  15.277  14.834   1.573  0.1034 -0.0937 -0.1091
 8345W        W27879  17.301  12.480  14.437  0.0402  0.1168  0.1042
 8346W        W27880  10.948  10.024  14.931  0.0220  0.1521 -0.0094
 8347W        W27881  12.254   6.229   0.131  0.0159 -0.3877 -0.1524
 8348W        W27882   5.436   8.577   3.217 -0.0761 -0.1196 -0.1580
 8349W        W27883   6.843   9.225  12.310  0.1580 -0.0612 -0.0720
 8350W        W27884   8.548  17.384  15.326  0.2555 -0.2317 -0.0234
 8351W        W27885  17.041   7.460  13.983  0.0760  0.1834  0.0207
 8352W        W27886  16.285   4.423  12.113  0.4048  0.0007  0.0153
 8353W        W27887   1.007   9.630   0.121 -0.0503  0.0872  0.0163
 8354W        W27888  11.988   6.613   4.490 -0.0277  0.1604 -0.3100
 8355W        W27889   3.966   2.593  16.562 -0.0637  0.1396 -0.0424
 8356W        W27890   7.071   3.029   1.879 -0.3566  0.1208 -0.1330
 8357W        W27891   9.605  16.423   1.539 -0.0864  0.2495  0.1664
 8358W        W27892   6.009  11.878   4.755 -0.3494  0.0652  0.0028
 8359W        W27893   9.066  14.953  16.714 -0.1500 -0.1416 -0.0396
 8360W        W27894   2.555   9.953  15.361  0.0589  0.3070 -0.0734
 8361W        W27895  14.065   0.640  13.317 -0.0834  0.1435 -0.1099
 8362W        W27896   6.371  11.208  12.234  0.1108 -0.1622  0.1834
 8363W        W27897  17.476   1.762   4.355  0.0229 -0.0181  0.0531
 8364W        W27898  14.568   0.772  12.443 -0.1593  0.1122 -0.0274
 8365W        W27899   6.237  16.365  15.259 -0.1381  0.1549 -0.0906
 8366W        W27900   9.565  11.875   2.097  0.4082  0.2313  0.1521
 8367W        W27901  14.552  10.040   1.513  0.0330  0.2844  0.1441
 8368W        W27902   4.719   3.186   4.290 -0.0771  0.3052  0.1971
 8369W        W27903   0.950   4.337   1.053  0.2064 -0.0362 -0.0423
 8370W        W27904   9.180   7.181   2.366  0.1099  0.1392 -0.1051
 8371W        W27905  11.461  15.388   4.912 -0.3925  0.0241  0.2167
 8372W        W27906  17.597   5.615  14.107  0.0378 -0.0832 -0.1888
 8373W        W27907   1.299   9.049   1.838  0.3416  0.0361 -0.1675
 8374W        W27908   0.815  14.645   4.411  0.1061 -0.3142  0.2843
 8375W        W27909   1.980   7.445  11.550 -0.0309 -0.0140 -0.0848
 8376W        W27910  11.345  12.532  14.648  0.0136 -0.2639 -0.3080
 8377W        W27911   8.442   8.388   1.924  0.1326 -0.1499  0.0835
 8378W        W27912   0.180   6.370  10.955 -0.2337  0.1545  0.0488
 8379W        W27913   4.586  11.616   3.211 -0.3608 -0.0126 -0.0639
 8380W        W27914  11.866  12.587  16.200 -0.0586  0.0533  0.4023
 8381W        W27915  13.957   7.923  14.266 -0.0464 -0.0446 -0.0651
 8382W        W27916  17.188   2.705   2.563  0.0501  0.1644 -0.1775
 8383W        W27917   1.406  12.723   2.772  0.1001  0.2281 -0.0586
 8384W        W27918   4.041   6.348  15.019 -0.1461  0.2920  0.1032
 8385W        W27919   7.127  10.163   3.401  0.2326  0.1642  0.0178
 8386W        W27920   7.488  14.274   4.224 -0.2851  0.1381 -0.3114
 8387W        W27921  15.865   4.078   4.096 -0.0341 -0.1598 -0.1070
 8388W        W27922   4.807   6.589   4.306 -0.3735  0.1996  0.4095
 8389W        W27923   6.525   3.267   4.979  0.0507  0.0424  0.0421
 8390W        W27924   1.549   4.305  12.189 -0.0312 -0.1011  0.0440
 8391W        W27925   2.708   2.889  15.181  0.0289 -0.0365 -0.0695
 8392W        W27926  12.278   2.265   2.386  0.0005 -0.3316 -0.1206
 8393W        W27927   4.527  11.604   4.514  0.2312 -0.0522 -0.0946
 8394W        W27928   6.816   1.875   3.101  0.0688 -0.1807 -0.2044
 8395W        W27929   3.417   0.937  15.568 -0.5677 -0.0905  0.3308
 8396W        W27930  10.699   5.902   4.304  0.1281  0.0500  0.1272
 8397W        W27931  14.936  10.036   2.368  0.0895  0.1692  0.2547
 8398W        W27932  14.747   3.942   1.610 -0.0337  0.0733  0.2601
 8399W        W27933   1.705   1.441   1.771 -0.0534  0.1327  0.1554
 8400W        W27934   1.901  17.802  14.845 -0.2080  0.2245 -0.1411
 8401W        W27935  12.334  10.362  13.399  0.0622  0.1367  0.3617
 8402W        W27936   2.010  11.930  15.209 -0.3128  0.3020 -0.0794
 8403W        W27937   2.300  10.326  12.383 -0.0664  0.1616 -0.2786
 8404W        W27938  15.722   9.645   4.901 -0.0263  0.0687 -0.2064
 8405W        W27939   7.269  15.645   2.988  0.0194 -0.2222 -0.0406
 8406W        W27940   5.286  14.857  14.607 -0.0848  0.1913  0.0441
 8407W        W27941   3.511   5.692  16.649  0.1267  0.0893 -0.4347
 8408W        W27942   7.844  12.639  12.300  0.2215 -0.0594  0.1022
 8409W        W27943   1.755  13.349  13.050 -0.2331 -0.0281 -0.0246
 8410W        W27944   7.817  16.812   2.115 -0.2424  0.2669  0.0878
 8411W        W27945   2.437   0.895   2.235 -0.3762  0.0397  0.1649
 8412W        W27946   3.092   3.434   1.861 -0.0293  0.1391 -0.0469
 8413W        W27947  11.149   7.437   0.956  0.0575  0.2434  0.0023
 8414W        W27948   6.797  17.622   4.250 -0.2269  0.1758 -0.0652
 8415W        W27949   1.561   1.191  14.881  0.4137  0.0770 -0.0897
 8416W        W27950   2.464   0.279   6.125  0.1871 -0.2988 -0.0483
 8417W        W27951  14.688  15.988  11.993 -0.0439 -0.1919 -0.2987
 8418W        W27952   5.411   6.922  13.149  0.2129  0.2123  0.0599
 8419W        W27953  14.959   4.332   0.709 -0.3109 -0.1216  0.4168
 8420W        W27954  14.370   4.667  13.899  0.0181 -0.0313 -0.2207
 8421W        W27955  17.289   9.875   3.643  0.3011 -0.0967 -0.1612
 8422W        W27956   5.705  10.902   2.565 -0.0175  0.1707 -0.1628
 8423W        W27957   7.167   5.983  12.377 -0.2348  0.1596 -0.1383
 8424W        W27958  16.307   5.966   1.719  0.0141 -0.0586 -0.2188
 8425W        W27959   8.463   4.874   5.149  0.3571 -0.1705 -0.2592
 8426W        W27960  12.901   3.534   0.011  0.0043  0.0814 -0.0831
 8427W        W27961   5.659   6.199   2.624  0.0554 -0.1368  0.1604
 8428W        W27962   5.735   2.116   2.333  0.2215  0.0334 -0.0462
 8429W        W27963   8.405  12.523   0.198  0.0940 -0.0662  0.1260
 8430W        W27964  10.108   6.102  15.548  0.0343  0.4041 -0.1448
 8431W        W27965  11.825   8.061   2.511  0.0104 -0.2898  0.4223
 8432W        W27966  15.096  13.717   2.328  0.1479  0.1263  0.2711
 8433W        W27967   8.320   9.482   0.665  0.1453 -0.0317 -0.0822
 8434W        W27968   9.870  16.597   3.142 -0.2077  0.1822  0.1303
 8435W        W27969   0.791  16.196   3.719 -0.0048 -0.2929 -0.0710
 8436W        W27970   8.195   2.444   6.321 -0.0429  0.0324 -0.0945
 8437W        W27971  17.527   3.720  13.649  0.1098  0.1425 -0.0872
 8438W        W27972  12.803  17.210  16.091 -0.3408  0.1657 -0.2983
 8439W        W27973  12.188  17.826   1.613  0.3046 -0.1028  0.0913
 8440W        W27974   9.831   5.409   2.877 -0.0637  0.1612 -0.2339
 8441W        W27975   2.701   5.639   0.339 -0.0115 -0.0284 -0.0329
 8442W        W27976   6.924   0.492   2.830 -0.0167  0.1952 -0.1388
 8443W        W27977   0.123  17.435  14.948 -0.1131  0.1293  0.2393
 8444W        W27978  12.082   2.520   0.136 -0.1202  0.1568 -0.0002
 8445W        W27979   1.959  16.313  14.320  0.1979  0.3857 -0.2453
 8446W        W27980  17.078  14.209  14.210 -0.3580 -0.0496  0.3206
 8447W        W27981   3.125  14.157  14.258 -0.2416 -0.0188  0.1112
 8448W        W27982   7.554   4.680  15.693 -0.0481 -0.2190 -0.3753
 8449W        W27983  17.181   8.821  13.144  0.3164  0.3317  0.0870
 8450W        W27984   5.267   0.875   0.810 -0.2064  0.2451  0.4331
 8451W        W27985  10.903  10.473  15.182 -0.2877  0.0560 -0.0102
 8452W        W27986  10.382  14.295   2.692  0.3810 -0.1704 -0.1294
 8453W        W27987  10.452  14.644  14.868 -0.1001  0.1475  0.1434
 8454W        W27988   3.808  15.360   0.393 -0.1934  0.0889  0.1064
 8455W        W27989   5.978  15.717  12.979  0.2203 -0.0623 -0.0530
 8456W        W27990   1.180   2.004  14.645 -0.1421  0.1414 -0.0009
 8457W        W27991  16.414  13.235  15.890 -0.1047 -0.0889  0.2459
 8458W        W27992  14.836   4.386  15.429  0.2641 -0.2376 -0.0513
 8459W        W27993  13.437  11.694   4.367 -0.0159  0.0679  0.4100
 8460W        W27994  12.365  11.260  15.854  0.1023  0.2039  0.2296
 8461W        W27995   3.113   9.768  14.719 -0.1658 -0.0798  0.0707
 8462W        W27996  10.908   1.875   2.518  0.0936 -0.0588 -0.1966
 8463W        W27997   3.396  15.616  16.204  0.2898  0.2104 -0.1355
 8464W        W27998   1.108   5.597   2.823  0.2146 -0.0331  0.3567
 8465W        W27999   3.656  11.292  13.770 -0.0427 -0.0840  0.2463
 8466W        W28000   0.774   4.497  15.054 -0.0718  0.0062 -0.2622
 8467W        W28001   4.063  16.801   3.292 -0.2623 -0.3482 -0.0923
 8468W        W28002  16.375  10.523  13.712 -0.0232 -0.1172  0.0542
 8469W        W28003   5.456  13.905   3.286  0.1822 -0.0736  0.3140
 8470W        W28004  15.990  12.733  13.058  0.5120  0.1215  0.1217
 8471W        W28005  13.607   0.797  16.644  0.5649  0.1737  0.1707
 8472W        W28006   8.536   2.124   0.859  0.2903 -0.0678  0.4455
 8473W        W28007   6.403   1.533   0.543 -0.1944 -0.3316  0.1875
 8474W        W28008  11.852  13.688  14.969 -0.2109 -0.1017  0.1962
 8475W        W28009   2.274  17.106   1.913  0.0195  0.2272 -0.0302
 8476W        W28010  10.756   9.351   3.190 -0.0916  0.3930  0.0937
 8477W        W28011   0.700   4.007   1.854 -0.2805  0.2631 -0.0360
 8478W        W28012   3.249   1.208   2.509  0.0433  0.1455  0.1358
 8479W        W28013   2.458   7.868   0.355 -0.0728  0.0920  0.1394
 8480W        W28014   6.486   0.856   1.645 -0.2118  0.2525 -0.1596
 8481W        W28015   9.040  13.535  13.975 -0.1692 -0.0787  0.0527
 8482W        W28016  11.106   8.356  12.793  0.0854 -0.0696  0.2743
 8483W        W28017   3.186   8.269   3.563 -0.1327  0.0757 -0.0467
 8484W        W28018   4.076  12.553   1.368  0.1922  0.1714  0.2710
 8485W        W28019   9.127   8.327  16.578 -0.2336 -0.0167  0.2827
 8486W        W28020   5.938   1.271   3.736  0.1573 -0.3588  0.0958
 8487W        W28021   1.000   2.069   2.017 -0.1007 -0.2725 -0.3491
 8488W        W28022  14.541   2.635   0.105  0.0546 -0.0143  0.2686
 8489W        W28023  17.105  16.167   1.232 -0.1727 -0.0045  0.1620
 8490W        W28024  12.783   7.291   3.190 -0.0200  0.1848  0.0469
 8491W        W28025   9.075   1.131   4.179  0.0399  0.2893  0.1183
 8492W        W28026  15.432   4.388  11.845 -0.0639 -0.3141  0.0056
 8493W        W28027   1.329  12.678   2.220  0.2456  0.0212 -0.0716
 8494W        W28028   9.238   7.407  14.343 -0.0005 -0.3001 -0.1648
 8495W        W28029  14.651   5.632   5.008 -0.0526  0.2948 -0.1575
 8496W        W28030  12.666   2.527  14.438  0.1632 -0.0593 -0.4327
 8497W        W28031  17.285  17.683   3.802 -0.0556  0.4108  0.0774
 8498W        W28032   9.045   4.237  12.491 -0.2018 -0.3619 -0.0038
 8499W        W28033  15.540   4.267  12.997 -0.1620 -0.0238 -0.1377
 8500W        W28034  15.129   2.925   2.334  0.0890 -0.1504  0.1764
 8501W        W28035  13.044   3.399   3.923  0.0550  0.1237  0.0268
 8502W        W28036  16.940  13.164   1.023  0.3191  0.1897 -0.1162
 8503W        W28037   9.892  13.938  15.556 -0.1823  0.1817  0.3230
 8504W        W28038  10.420   6.266   4.466  0.0207 -0.1099 -0.0740
 8505W        W28039  12.943  16.963   4.246  0.0567  0.0310 -0.4373
 8506W        W28040   7.229   4.263  10.669 -0.2506  0.0682 -0.1938
 8507W        W28041  11.726   8.893   4.136  0.0091 -0.1308  0.2658
 8508W        W28042   0.673  11.178  12.410 -0.0789 -0.0112  0.0505
 8509W        W28043   6.138  11.034  13.858 -0.5008 -0.0337 -0.2226
 8510W        W28044   5.319   1.674  13.173 -0.1959  0.0776 -0.0312
 8511W        W28045  11.703  17.158   3.873  0.1101 -0.3978 -0.1341
 8512W        W28046   3.831   7.091  15.630 -0.3106 -0.2521  0.2214
 8513W        W28047  12.040   2.680  14.080  0.1563  0.1069  0.2234
 8514W        W28048  17.188   9.824   1.549  0.1342 -0.3146  0.1765
 8515W        W28049  12.331  17.819  14.407  0.3355  0.0441  0.0395
 8516W        W28050   5.330   3.289   2.544  0.2515  0.0882 -0.3280
 8517W        W28051   6.913   8.853  15.551 -0.0142  0.0065  0.2700
 8518W        W28052  13.501   1.797  13.051  0.2015 -0.1568  0.1941
 8519W        W28053  17.394   8.884  15.003 -0.1404  0.1163 -0.1645
 8520W        W28054   9.276  16.563  13.567  0.3801  0.1204 -0.0355
 8521W        W28055   1.121   7.407   0.052 -0.3871 -0.1790  0.0681
 8522W        W28056  16.388  15.230   3.855  0.2415  0.0833  0.0761
 8523W        W28057   4.237   6.909   2.886 -0.3242 -0.0356 -0.1099
 8524W        W28058  11.659   2.771  10.290  0.1564  0.1680 -0.3628
 8525W        W28059   8.644   4.872   1.225 -0.1174 -0.0368 -0.1208
 8526W        W28060  10.260  16.215  14.653 -0.0852 -0.3728 -0.1569
 8527W        W28061  11.667   5.300  15.790 -0.1979 -0.0596 -0.1541
 8528W        W28062   4.205   8.898   0.908  0.0231 -0.3494  0.0789
 8529W        W28063  12.405   0.881   2.740 -0.2033  0.2345  0.2823
 8530W        W28064   5.833   8.892   2.445 -0.2579  0.0069 -0.2199
 8531W        W28065   4.034  17.565  16.364 -0.0817 -0.1790 -0.1335
 8532W        W28066   5.284   4.062   4.190  0.1066  0.1656  0.1680
 8533W        W28067   5.268   1.959   4.238  0.0395  0.0304  0.0518
 8534W        W28068   7.371   1.111  13.281 -0.0616 -0.1052 -0.0864
 8535W        W28069   1.347   1.694   1.963 -0.0782  0.0225  0.1222
 8536W        W28070   7.221   5.068  15.554 -0.0396  0.1270  0.2235
 8537W        W28071  17.499  16.337   0.840 -0.1013  0.3594  0.0781
 8538W        W28072  12.533  14.439  13.566 -0.3786  0.1276  0.1260
 8539W        W28073   3.566   2.445   2.704  0.1165  0.1291  0.1732
 8540W        W28074   4.599  12.527  15.634  0.0136 -0.0363 -0.0798
 8541W        W28075   5.330   3.539  14.889 -0.2180  0.1584  0.3090
 8542W        W28076   3.605  13.818  15.921 -0.0794  0.2033  0.0493
 8543W        W28077  13.365   0.363   2.671  0.3147  0.0103 -0.1669
 8544W        W28078   6.139   3.307   2.812 -0.0310 -0.0382  0.0423
 8545W        W28079   9.765   6.261   1.270  0.3712 -0.1921 -0.0136
 8546W        W28080   9.063   9.359   5.066 -0.2190 -0.2183 -0.1661
 8547W        W28081   7.592  17.216   2.529  0.0004  0.0070  0.1363
 8548W        W28082  14.318   6.074  11.781 -0.3797  0.2410  0.1456
 8549W        W28083   4.866  15.913   3.943 -0.1150  0.0712 -0.0027
 8550W        W28084  11.858   0.438   3.586  0.4257  0.0321  0.0320
 8551W        W28085  14.368   3.766   1.202  0.0826  0.0570 -0.3812
 8552W        W28086  17.670  16.656  11.622  0.1108  0.1300 -0.1188
 8553W        W28087  16.094  16.689   4.881  0.2056 -0.1137  0.0856
 8554W        W28088   4.344  11.259   4.126 -0.0934  0.1025  0.2632
 8555W        W28089  13.166   1.333   1.462  0.0178  0.1899 -0.1496
 8556W        W28090   9.971  11.440  12.781  0.1196  0.3205 -0.2255
 8557W        W28091  11.463  17.574   1.128  0.1639 -0.1901  0.0905
 8558W        W28092  12.898   9.492   0.224  0.2570 -0.0376  0.1061
 8559W        W28093  15.200   2.174  15.953  0.3985 -0.1784  0.0715
 8560W        W28094   7.895  14.771  14.990 -0.1948 -0.1298 -0.0525
 8561W        W28095  15.364   1.740   2.268  0.1911 -0.2323  0.1535
 8562W        W28096   4.141   3.288  14.655  0.0860 -0.0746  0.2073
 8563W        W28097   1.171  15.366  16.494 -0.2423  0.1050  0.0586
 8564W        W28098  11.215  11.657  12.943 -0.0870 -0.0882 -0.4043
 8565W        W28099   8.358  16.169   0.126  0.0902 -0.0664 -0.3605
 8566W        W28100  14.980   7.526   0.365 -0.0374  0.0220 -0.4020
 8567W        W28101  13.637  11.366  16.046  0.0301  0.3172  0.0732
 8568W        W28102   0.869  16.902  12.265 -0.1632  0.0592  0.0243
 8569W        W28103   8.151  14.812   1.496 -0.0020 -0.2697  0.2431
 8570W        W28104   6.631   6.015  14.735 -0.1206 -0.2359 -0.2271
 8571W        W28105   8.224  12.385  12.813 -0.1166  0.0576  0.0808
 8572W        W28106   7.322   5.031  12.527  0.1298  0.0407 -0.3229
 8573W        W28107   8.806  17.725   3.911 -0.0593  0.2435  0.2209
 8574W        W28108   0.144   2.467  13.876 -0.0362  0.1722 -0.3460
 8575W        W28109   2.398  14.577   0.773 -0.2183  0.0672  0.0178
 8576W        W28110   6.080   4.431  12.088 -0.1880 -0.1302  0.0602
 8577W        W28111   3.184  17.720   3.966 -0.2462  0.4312  0.2944
 8578W        W28112   0.892   6.966  16.717 -0.1182 -0.0900 -0.0110
 8579W        W28113  12.904  14.737  13.159 -0.3497  0.0583  0.2539
 8580W        W28114  17.640  14.066  14.959 -0.1243  0.0037  0.0620
 8581W        W28115  16.507   5.458  13.932 -0.4251  0.0172 -0.3514
 8582W        W28116  10.517  10.193   4.197 -0.2339 -0.1299  0.0387
 8583W        W28117  14.953  12.398   3.789 -0.2857 -0.1255  0.1032
 8584W        W28118   9.758   2.465   2.760  0.1480  0.1914  0.2585
 8585W        W28119  10.710  14.523   1.122  0.3356 -0.0838 -0.1810
 8586W        W28120   7.427  14.878   3.582  0.0250  0.0063 -0.0263
 8587W        W28121  11.951   8.063  14.587 -0.0794  0.1421 -0.0155
 8588W        W28122   5.579  17.881  12.349 -0.2347  0.0564 -0.2921
 8589W        W28123  15.871  13.782  14.024 -0.1166  0.0544  0.0251
 8590W        W28124   3.202   2.173  12.878 -0.0784 -0.1694 -0.0176
 8591W        W28125  12.245   5.904   1.413  0.1395  0.0544 -0.0252
 8592W        W28126  10.668   1.608  15.159  0.0152  0.0470 -0.2197
 8593W        W28127  13.558   9.860  15.281  0.1063  0.0424 -0.3250
 8594W        W28128   0.109  11.590   2.485 -0.0049 -0.0241 -0.1220
 8595W        W28129  17.159   3.285  16.160  0.3769 -0.1311 -0.0903
 8596W        W28130   5.741   3.077  15.462 -0.0581 -0.0586 -0.1112
 8597W        W28131  17.170  12.529   1.848  0.1014 -0.2560 -0.0721
 8598W        W28132   5.153  15.463  15.256  0.2629  0.3634  0.0425
 8599W        W28133  13.820  15.548   0.135  0.2776 -0.0193  0.1513
 8600W        W28134   6.439   0.361   1.200  0.0471 -0.2192  0.0816
 8601W        W28135   4.871  15.072  13.612  0.0702 -0.1733  0.4869
 8602W        W28136   9.007   8.773  13.973  0.1885  0.2582 -0.1052
 8603W        W28137  15.513   9.368  11.849 -0.0699 -0.0564  0.2782
 8604W        W28138   2.583  16.397   2.600  0.0914  0.1422  0.0532
 8605W        W28139  11.962   9.008   4.674  0.1159 -0.0153  0.0931
 8606W        W28140  13.827  17.574   4.803 -0.1407 -0.0102 -0.0851
 8607W        W28141  11.396  13.490   3.564  0.1496  0.1306  0.0167
 8608W        W28142   0.343   3.738   5.222  0.0658  0.0557  0.1364
 8609W        W28143   1.176  12.940  12.848  0.0217 -0.0935  0.0330
 8610W        W28144   3.054  11.389  14.465 -0.2609 -0.0491  0.0259
 8611W        W28145  14.715  12.334  15.851  0.1384 -0.1119  0.1202
 8612W        W28146   4.471   6.881  14.444 -0.0068  0.2478  0.0508
 8613W        W28147   2.330   7.344  16.091  0.2273 -0.0022  0.2213
 8614W        W28148   6.430   4.154  15.980  0.0991  0.0662  0.1151
 8615W        W28149  10.938  10.950   1.353 -0.1127  0.1282 -0.1646
 8616W        W28150  15.477  11.858  13.054 -0.0209  0.1005 -0.1847
 8617W        W28151   4.494  11.879   0.511  0.2265 -0.2414 -0.0600
 8618W        W28152   9.000   9.175  14.959  0.1514 -0.0535  0.2629
 8619W        W28153   5.192   6.007   4.997  0.1810  0.2340 -0.0195
 8620W        W28154  15.057   5.070   3.317  0.1542  0.1809  0.3906
 8621W        W28155  15.253  14.398  14.383 -0.0916  0.1820  0.1735
 8622W        W28156  17.020  10.329  15.224  0.1727  0.2317  0.4336
 8623W        W28157   3.026   3.677   0.499 -0.1224  0.0644  0.0452
 8624W        W28158   4.502  11.218  14.923 -0.2113 -0.2870 -0.0124
 8625W        W28159   0.837  10.928   0.441  0.0808 -0.1582 -0.1476
 8626W        W28160  10.264  16.965   4.154  0.0703  0.0638 -0.3127
 8627W        W28161   6.952   4.803   4.145 -0.1239  0.2482  0.2087
 8628W        W28162   3.021  15.424   0.355  0.2900 -0.0471 -0.0980
 8629W        W28163   1.259  10.057   1.331  0.1669  0.2703  0.0213
 8630W        W28164   2.407   4.570  12.288  0.3643 -0.0207 -0.0488
 8631W        W28165   5.320   7.827   3.119  0.1483 -0.0381  0.0192
 8632W        W28166  15.306  17.452   2.861 -0.0328  0.0334 -0.1649
 8633W        W28167   3.383   2.078   4.245 -0.0513  0.1795 -0.0245
 8634W        W28168  14.006   0.019   1.201  0.2667  0.2488 -0.0825
 8635W        W28169   3.940  17.280   0.832  0.2427  0.1161  0.5354
 8636W        W28170   0.655   9.436  15.990 -0.2925 -0.1587 -0.0348
 8637W        W28171   3.804   2.391  12.262  0.3381  0.2943  0.1492
 8638W        W28172  14.025  16.627  14.291  0.0283  0.2141 -0.0313
 8639W        W28173   9.533   3.501   1.880 -0.1781 -0.3691 -0.1526
 8640W        W28174   7.069   2.658   2.744 -0.1161 -0.3263  0.1591
 8641W        W28175   8.233  12.021  14.591  0.2294 -0.1841 -0.0232
 8642W        W28176  13.990  14.794  15.364  0.0234  0.1857  0.1277
 8643W        W28177  15.524   3.734   4.212 -0.2175 -0.0683  0.2606
 8644W        W28178  10.743  15.199   0.640 -0.2383 -0.1239  0.1744
 8645W        W28179   5.682  13.914   5.036 -0.0168  0.1592  0.0459
 8646W        W28180   8.820   2.288  15.151  0.0673  0.0589 -0.0669
 8647W        W28181   1.771   4.425   2.606 -0.2234  0.0775 -0.0078
 8648W        W28182   4.046  11.029  12.208 -0.3357  0.3399 -0.0192
 8649W        W28183  16.293  15.477   1.464  0.0778  0.0741  0.2169
 8650W        W28184   2.171   3.887   0.788  0.0541  0.0507  0.0295
 8651W        W28185   5.303   2.679   3.201 -0.1843  0.0137 -0.0420
 8652W        W28186  14.864   5.834   1.412 -0.1346 -0.2405 -0.3377
 8653W        W28187   7.083  14.322  14.642  0.0065 -0.1038 -0.1356
 8654W        W28188   8.908  14.712   0.987 -0.0695  0.0582 -0.1639
 8655W        W28189   2.243  10.277  15.664 -0.1206 -0.1538 -0.0450
 8656W        W28190   2.001   8.015   2.218  0.0647  0.2905 -0.1429
 8657W        W28191  16.550   8.258  10.528  0.1701  0.0557 -0.8001
 8658W        W28192  17.393   6.141   4.177 -0.1225  0.0957  0.0832
 8659W        W28193  12.371   0.598  14.031  0.2667  0.0266 -0.0967
 8660W        W28194  12.485  17.646   4.197 -0.0248 -0.1925 -0.2558
 8661W        W28195   5.103   0.328   2.474  0.0990 -0.1954 -0.1530
 8662W        W28196   6.243  17.190  15.363 -0.2658 -0.0643  0.1235
 8663W        W28197  12.281  16.183  11.982  0.1143  0.0611  0.0060
 8664W        W28198  14.281  14.025   3.586 -0.0988 -0.1926 -0.2007
 8665W        W28199   9.943   6.544   4.469  0.0655  0.1501  0.1211
 8666W        W28200  16.193   0.809  13.764 -0.2219 -0.0981  0.1449
 8667W        W28201   1.300  11.944  12.228 -0.2062 -0.2966 -0.2249
 8668W        W28202   5.520   6.846  15.111 -0.0182  0.1895  0.1383
 8669W        W28203  14.063  15.227   2.711  0.4293 -0.0280  0.1104
 8670W        W28204  13.780  12.045  13.729 -0.0742 -0.0284  0.0209
 8671W        W28205   1.206   7.216  13.436  0.1615  0.0584  0.0433
 8672W        W28206   1.433   6.832  14.096  0.0979  0.2588  0.1154
 8673W        W28207   2.913   1.599  16.484  0.1257  0.1806  0.1396
 8674W        W28208   6.649   3.829  11.936 -0.0259  0.3606  0.0027
 8675W        W28209  16.100   0.311  11.811 -0.0548  0.4306  0.2963
 8676W        W28210  17.106   0.642   0.630 -0.0775 -0.1017  0.1594
 8677W        W28211  10.058  13.479  15.066  0.1038 -0.0071 -0.1277
 8678W        W28212  12.132   6.054   3.188  0.0445 -0.3200 -0.1454
 8679W        W28213  12.017  17.380   3.274 -0.1594  0.0382  0.0314
 8680W        W28214  16.848  17.218  15.308  0.1355  0.1838 -0.0402
 8681W        W28215   1.089  16.092   4.147  0.0153  0.1375 -0.1139
 8682W        W28216  10.704   7.254   0.579  0.1342 -0.1001 -0.3919
 8683W        W28217  15.425   6.912  13.937  0.1476 -0.1413 -0.0469
 8684W        W28218  14.336  12.304  15.508 -0.0908  0.1872  0.1367
 8685W        W28219   3.509  11.872   1.660 -0.1655 -0.1245 -0.1898
 8686W        W28220  16.165  17.560  14.309  0.0307 -0.4134 -0.0833
 8687W        W28221  10.067   2.854  14.201  0.1565 -0.1092  0.1289
 8688W        W28222   7.354   3.028   0.605  0.0472  0.2795 -0.1494
 8689W        W28223   3.947   6.110   3.359  0.2113 -0.2279 -0.0547
 8690W        W28224   8.175  12.134   2.497 -0.3070  0.1454 -0.1183
 8691W        W28225   9.351  15.675  12.316 -0.0162  0.2361 -0.0550
 8692W        W28226   6.449   7.687   0.856 -0.0148  0.2457 -0.6815
 8693W        W28227  13.662  16.839  14.002 -0.0165 -0.0518 -0.2045
 8694W        W28228  16.227  11.860   3.539  0.0746  0.1478  0.0015
 8695W        W28229  10.829  14.993   1.114 -0.3028  0.3332  0.3085
 8696W        W28230   5.277  17.432  15.045 -0.0380 -0.1783  0.0474
 8697W        W28231   9.205   1.167   1.484 -0.0192  0.1089 -0.0258
 8698W        W28232   0.442   3.342   3.467  0.5164  0.2371 -0.0188
 8699W        W28233   4.715  15.813  13.841  0.1061 -0.2412 -0.0827
 8700W        W28234  13.094  10.320   4.216  0.2081  0.2975  0.5173
 8701W        W28235   5.716  17.713   0.355  0.1227  0.1033 -0.1260
 8702W        W28236   9.760   7.100  16.036  0.2794 -0.1721  0.2814
 8703W        W28237  12.102   3.642  11.818  0.1786  0.0141 -0.1284
 8704W        W28238   9.219   7.130   0.661 -0.0490  0.1020  0.3294
 8705W        W28239   2.229   3.383  13.692 -0.1611  0.1333  0.1269
 8706W        W28240  13.761  15.944   3.719  0.0373  0.0854 -0.0275
 8707W        W28241   9.837   2.227  16.505 -0.0381 -0.0352  0.1942
 8708W        W28242  10.949  15.924   1.371  0.2338 -0.2291  0.1191
 8709W        W28243   8.731   7.347   4.450  0.0713 -0.2219 -0.2933
 8710W        W28244   0.686   3.030   2.245 -0.1697  0.2414  0.2192
 8711W        W28245   8.744  10.042  16.243 -0.2533  0.1628  0.1709
 8712W        W28246  16.030   7.098   2.038  0.3070  0.0710  0.1659
 8713W        W28247   7.002  16.432   3.187 -0.0341 -0.0624  0.0474
 8714W        W28248   3.008   8.197  16.260  0.0324 -0.4843 -0.2166
 8715W        W28249  10.509   1.252   3.706  0.1551 -0.0455 -0.1533
 8716W        W28250   4.670  13.389  12.067  0.2039 -0.1852  0.0485
 8717W        W28251  14.256   6.499   2.339 -0.4060  0.0548  0.1454
 8718W        W28252  12.087  17.799   0.446 -0.2116  0.0891 -0.0849
 8719W        W28253   3.673  15.520  16.675 -0.3462 -0.0593 -0.2182
 8720W        W28254  13.233   3.452   4.716  0.0764  0.1433  0.0454
 8721W        W28255   8.412   7.518   1.182 -0.0911 -0.1290 -0.0780
 8722W        W28256   7.363   4.310  11.745  0.0854 -0.2074 -0.0311
 8723W        W28257   1.612   5.045  12.684 -0.0818 -0.0486  0.1704
 8724W        W28258  13.449  17.735   2.795 -0.0278  0.0020  0.0705
 8725W        W28259  10.793   5.299   2.868 -0.2624  0.1432  0.1376
 8726W        W28260  11.246  11.779  15.899  0.0629 -0.0926 -0.2566
 8727W        W28261   9.828   7.472  16.727  0.2986  0.1028  0.2705
 8728W        W28262  14.091  17.806   0.151  0.0761  0.0378 -0.0451
 8729W        W28263   7.255   1.972  16.206 -0.2510 -0.1285  0.0945
 8730W        W28264   1.803  13.531  14.041 -0.2386  0.4092 -0.3617
 8731W        W28265   6.384   0.816  16.386 -0.2045 -0.1597  0.0490
 8732W        W28266   0.430   2.970   3.093 -0.0298 -0.1134  0.3061
 8733W        W28267   2.392   4.939  11.884  0.1249 -0.1026  0.0050
 8734W        W28268   1.551   6.787   2.348  0.3037 -0.1195  0.0340
 8735W        W28269   7.599  15.208   2.659  0.5139 -0.0616 -0.0630
 8736W        W28270  11.492   7.108  11.800  0.1312 -0.0705 -0.0968
 8737W        W28271   7.575  16.992   4.500  0.2552  0.2393 -0.1683
 8738W        W28272   7.805   1.283   5.209  0.1805 -0.1048  0.2361
 8739W        W28273   9.663   4.604  16.399  0.1322  0.1437 -0.1659
 8740W        W28274   7.389   1.274   3.399 -0.0141  0.2163 -0.1469
 8741W        W28275   3.471  10.469  12.376 -0.1353 -0.0774 -0.0716
 8742W        W28276  16.174   6.924   0.645 -0.4149  0.0805 -0.1229
 8743W        W28277  10.804  13.934  12.381 -0.1388 -0.2162  0.1666
 8744W        W28278  15.385  13.781   3.578 -0.0182 -0.0503  0.0711
 8745W        W28279  10.715   6.045  15.711 -0.0568  0.1173 -0.1875
 8746W        W28280  17.791   8.031  12.968 -0.1953  0.2696 -0.1656
 8747W        W28281   3.794   9.517  12.665  0.0579 -0.1890  0.1000
 8748W        W28282   1.677  16.724   4.854 -0.3591  0.1549 -0.0045
 8749W        W28283   8.422   7.014   0.846  0.0853 -0.3079  0.1498
 8750W        W28284   8.287  11.224   1.661  0.2454 -0.0851 -0.0282
 8751W        W28285   8.034  16.437  15.921  0.2784 -0.1472 -0.1326
 8752W        W28286   3.090  14.209  12.604 -0.0598  0.0028 -0.1482
 8753W        W28287   8.770   8.594  15.353  0.0331  0.0165  0.1010
 8754W        W28288   8.550  10.052  15.153 -0.1468  0.0366 -0.2107
 8755W        W28289   6.927  14.039   2.229 -0.0384 -0.0327  0.1137
 8756W        W28290   1.751  13.394  12.506 -0.0093 -0.0577 -0.0885
 8757W        W28291  17.424   7.753   4.825  0.0593 -0.1351  0.1297
 8758W        W28292   9.151  11.599  16.576  0.2378  0.3309 -0.0113
 8759W        W28293   2.518  13.128   0.626 -0.0405 -0.2975 -0.1636
 8760W        W28294   9.620  10.014  13.541 -0.0708 -0.2047 -0.3194
 8761W        W28295   1.096   8.061   0.465  0.1355  0.0544 -0.2276
 8762W        W28296   3.353   6.316  12.795  0.1596 -0.1503  0.1695
 8763W        W28297  13.115   2.642   2.142  0.3390 -0.2032 -0.0565
 8764W        W28298  16.824  14.763  15.753 -0.0390  0.1043 -0.2387
 8765W        W28299  17.650   2.789  13.657  0.1701  0.1593 -0.0577
 8766W        W28300  11.091   9.670   2.617  0.0754 -0.2909 -0.0466
 8767W        W28301  10.391   7.965  15.688  0.3239 -0.0633 -0.0325
 8768W        W28302  10.903   1.934  12.731 -0.1880 -0.1664 -0.1771
 8769W        W28303  14.638   8.099  13.732 -0.1865  0.0398 -0.1067
 8770W        W28304   2.265   2.914  13.884  0.1958 -0.3042  0.1345
 8771W        W28305   9.210   2.053  14.765  0.0883  0.1099 -0.1135
 8772W        W28306   4.545   8.920   0.500 -0.1695  0.3132  0.3224
 8773W        W28307   8.100  14.006  13.778  0.2926  0.1609  0.0665
 8774W        W28308   7.539   2.465   2.633  0.0527  0.0624  0.0330
 8775W        W28309  14.244   3.581  12.601  0.0285 -0.1957 -0.0547
 8776W        W28310   2.224   0.960  15.026 -0.4160  0.2107 -0.1989
 8777W        W28311  15.789  10.358  15.945  0.0041  0.2861 -0.1828
 8778W        W28312  11.341  13.021  14.205  0.1030 -0.2518 -0.0012
 8779W        W28313  12.724   9.058  16.733 -0.1824  0.2238 -0.0254
 8780W        W28314  12.578  14.707   1.806 -0.1461 -0.1135 -0.1187
 8781W        W28315   3.516  17.294   4.059  0.1191 -0.1255 -0.0460
 8782W        W28316   4.884   7.042   3.918  0.1230 -0.0161  0.2853
 8783W        W28317   2.880   8.559  13.001  0.0589 -0.2335 -0.0169
 8784W        W28318  13.675  14.934   1.747  0.2543  0.0270  0.0222
 8785W        W28319   3.715   7.203   4.340 -0.0072  0.0147  0.1076
 8786W        W28320   4.202   1.876   1.138  0.2493 -0.2343 -0.4054
 8787W        W28321  11.579   5.350   3.511  0.1633 -0.0221 -0.1285
 8788W        W28322   4.251  14.005  14.791  0.2491  0.0482 -0.0966
 8789W        W28323   7.372   8.559  16.187 -0.2186 -0.2320 -0.2092
 8790W        W28324  11.136   7.633  14.393  0.3300 -0.0314  0.0001
 8791W        W28325  16.802  12.250  15.653  0.0310 -0.1233 -0.0899
 8792W        W28326  14.857  14.891  14.377  0.2232  0.1235  0.4283
 8793W        W28327   7.941   7.500   3.266 -0.0214  0.2305 -0.1096
 8794W        W28328  16.693   0.797   3.027 -0.3241 -0.3166  0.1769
 8795W        W28329   0.013   6.293   3.178  0.1135  0.1333  0.1494
 8796W        W28330   7.015   3.308   5.820  0.2045  0.2435 -0.1528
 8797W        W28331   8.329  17.478  14.899 -0.0124  0.0320  0.0898
 8798W        W28332   7.338   9.710   4.923  0.0360  0.0722  0.0072
 8799W        W28333   9.786   9.104   4.390 -0.1322 -0.0487 -0.2620
 8800W        W28334   3.060  10.512   0.023 -0.1262 -0.0242  0.1773
 8801W        W28335  16.978  14.920   4.489  0.2566 -0.0273  0.0184
 8802W        W28336   5.272   0.975  12.988 -0.0500  0.0106  0.1870
 8803W        W28337   7.319  11.007  13.469  0.0589 -0.1115 -0.0106
 8804W        W28338   7.335   5.013  14.053 -0.3759  0.0734  0.0182
 8805W        W28339  11.149   8.056   2.160  0.2428 -0.1712 -0.2066
 8806W        W28340   6.028   0.711  15.020 -0.0026 -0.1206  0.0571
 8807W        W28341   8.543   8.653   2.743  0.0944  0.2499  0.0986
 8808W        W28342   8.726   0.710   0.313  0.4992 -0.4187 -0.3985
 8809W        W28343   5.489   3.674   0.087 -0.0073 -0.2576 -0.3110
 8810W        W28344   8.885   3.148  13.694 -0.1698 -0.2378  0.1118
 8811W        W28345   9.351  12.398   0.303 -0.1563  0.2898  0.2984
 8812W        W28346   8.449   3.098   5.114 -0.0720  0.2449 -0.1425
 8813W        W28347  12.525   7.798   0.689  0.1878 -0.1112 -0.0758
 8814W        W28348  15.031   8.217   2.018  0.4821  0.4377  0.3815
 8815W        W28349   4.563  12.556   4.639 -0.1613  0.3863  0.0985
 8816W        W28350   4.693  14.562   5.089  0.1634 -0.0233 -0.2527
 8817W        W28351   6.050  17.013  13.305 -0.2543  0.1593 -0.3232
 8818W        W28352   9.873  11.983  16.287  0.1732 -0.1174 -0.0264
 8819W        W28353   1.416   5.206  13.225  0.0866 -0.2114  0.0974
 8820W        W28354   0.375   9.139  16.185 -0.0557  0.1475 -0.1040
 8821W        W28355  11.891   4.932  15.031  0.3275 -0.2212  0.1893
 8822W        W28356   9.675   9.617   4.141  0.1156  0.0718 -0.4931
 8823W        W28357   5.954   9.188  12.034 -0.0415 -0.0006 -0.2784
 8824W        W28358   9.926   3.262  14.593  0.0037  0.0456  0.1380
 8825W        W28359  11.794  14.581  14.320 -0.3340 -0.0199 -0.1125
 8826W        W28360   8.341   2.138   0.348 -0.1652 -0.1546  0.2885
 8827W        W28361   2.008  17.058   2.750  0.1422 -0.0620  0.1571
 8828W        W28362   7.338   5.734   5.334  0.1641  0.3748 -0.2971
 8829W        W28363   3.210   8.642   2.195 -0.0809  0.0751  0.0717
 8830W        W28364  15.556   3.811  12.619 -0.2894  0.2658 -0.1232
 8831W        W28365  10.795  16.098   4.046 -0.1633  0.0646 -0.2396
 8832W        W28366  11.816   5.217  12.362  0.3187 -0.0947 -0.2115
 8833W        W28367   6.891  14.491   4.902  0.2803  0.0664 -0.4448
 8834W        W28368  13.666  12.713   0.147  0.1599  0.1821  0.3341
 8835W        W28369  11.439   9.705   4.765  0.1847 -0.3553  0.1988
 8836W        W28370  16.187   1.335  14.929  0.0467  0.2402  0.0418
 8837W        W28371   0.109   4.421  12.327 -0.0667  0.1939  0.1660
 8838W        W28372   3.182   7.909  13.694  0.1300 -0.1263  0.1022
 8839W        W28373  10.052   5.129  13.497 -0.3264  0.2591  0.1863
 8840W        W28374  10.276   6.466  14.738 -0.1953  0.0086 -0.0251
 8841W        W28375   1.181   3.182  13.591 -0.1607  0.2003  0.0645
 8842W        W28376   6.780   1.553   2.236 -0.1244 -0.0492  0.2699
 8843W        W28377   9.807   4.738  13.154 -0.1885  0.2665 -0.3998
 8844W        W28378   8.611  15.992   0.999  0.1788  0.2289  0.3110
 8845W        W28379   3.688   4.809   2.352  0.0714  0.1642  0.0257
 8846W        W28380  17.899   0.194   3.327  0.0032 -0.0808  0.1540
 8847W        W28381   5.475  17.362   5.138 -0.1938  0.1307 -0.0429
 8848W        W28382  13.823  14.405  13.033 -0.2073 -0.1085  0.1858
 8849W        W28383   5.457  16.236  15.918  0.2151 -0.0385 -0.1344
 8850W        W28384   9.372   5.096  12.797 -0.2741  0.2206 -0.1041
 8851W        W28385   1.738   2.357   2.877 -0.0345  0.0451  0.0039
 8852W        W28386   3.124  17.509  12.206 -0.2513 -0.1642 -0.2627
 8853W        W28387  16.091  14.288  11.987  0.0973  0.0831  0.1180
 8854W        W28388   9.203  10.300  15.474 -0.2015  0.1921 -0.0389
 8855W        W28389   3.953   9.871  16.285 -0.0259  0.0688  0.3303
 8856W        W28390  12.641   2.313   4.385 -0.3321  0.3386 -0.0075
 8857W        W28391   6.986  17.316   0.295 -0.4036  0.0638  0.0465
 8858W        W28392  10.434   8.915  13.951 -0.3763  0.1288  0.0559
 8859W        W28393   4.440  17.398   2.126 -0.0256 -0.0136 -0.0146
 8860W        W28394  12.223  17.761   2.490 -0.2189 -0.0095  0.3950
 8861W        W28395  14.614   9.780   2.683  0.0833  0.1082  0.1888
 8862W        W28396   5.116  16.435  13.887 -0.1644 -0.2457 -0.0627
 8863W        W28397  14.489  13.038  14.921  0.2049 -0.0564 -0.1956
 8864W        W28398   2.999  14.218   4.695  0.3625  0.0123 -0.0732
 8865W        W28399   2.021   0.392  13.137 -0.1045 -0.2924  0.1163
 8866W        W28400  14.331   1.850   3.768  0.1254 -0.1061 -0.1117
 8867W        W28401  17.559  14.418   3.386 -0.1340 -0.0352  0.1358
 8868W        W28402  14.907  10.523  14.213  0.2629  0.1313  0.0870
 8869W        W28403  15.765  16.809   4.493 -0.0229  0.0679  0.1857
 8870W        W28404  12.005  11.112   2.859  0.0779 -0.1003  0.1825
 8871W        W28405  13.952  16.228   4.531  0.2334  0.3100 -0.0007
 8872W        W28406  12.618  13.320  14.563 -0.0678 -0.0163  0.1260
 8873W        W28407  15.530  11.920   3.000 -0.3352  0.1842 -0.2140
 8874W        W28408  12.618  12.126  15.491  0.0004  0.2530 -0.0013
 8875W        W28409  12.281   5.292   0.170 -0.0031 -0.3433 -0.1181
 8876W        W28410   2.713  15.256   2.077  0.2674  0.0076 -0.0296
 8877W        W28411   3.100   7.413   3.520  0.3284  0.2211  0.2655
 8878W        W28412  17.309  12.951   2.132 -0.1528  0.0680  0.1815
 8879W        W28413   7.712  13.719   4.792  0.3407 -0.2559  0.0017
 8880W        W28414  17.065   0.985  14.379  0.0089  0.2114 -0.0088
 8881W        W28415   4.127  12.672   1.953 -0.2270  0.0231 -0.2174
 8882W        W28416  13.127   1.416  12.875  0.0406  0.2058  0.1332
 8883W        W28417  12.081   4.897   4.989  0.1378  0.3985  0.2595
 8884W        W28418   8.334  14.327  14.564 -0.1324  0.1830 -0.0428
 8885W        W28419  10.639  16.481   2.903  0.1728  0.1381  0.0350
 8886W        W28420   4.842   4.484   2.617  0.0788  0.0642  0.1900
 8887W        W28421  16.758   0.667  15.270  0.0585  0.2807  0.1016
 8888W        W28422   0.004   9.983  16.653  0.0684  0.0780  0.3642
 8889W        W28423   4.410   5.175   0.140 -0.2774 -0.2428  0.1425
 8890W        W28424   9.683   7.014   0.170 -0.3055  0.3162  0.1817
 8891W        W28425  10.285  11.808   1.135 -0.2197  0.0237 -0.0969
 8892W        W28426  16.857  14.418  11.570 -0.0509  0.0407  0.1764
 8893W        W28427  16.614  16.604   4.098  0.1754  0.1187  0.1179
 8894W        W28428  15.293   3.670   4.727  0.3781 -0.2262 -0.1104
 8895W        W28429  15.371  14.179   2.340  0.0793 -0.0995 -0.1626
 8896W        W28430  15.795  15.037  13.361 -0.0672  0.1280  0.0896
 8897W        W28431  10.271   6.448  15.888 -0.2974  0.2467 -0.2452
 8898W        W28432   9.680   7.993   1.907 -0.1432  0.0565 -0.3357
 8899W        W28433  13.472   5.349  12.824  0.1211  0.1045 -0.0097
 8900W        W28434   3.788  14.125  15.440 -0.1694  0.0868 -0.2550
 8901W        W28435   4.367  13.250   3.580 -0.0390  0.0238  0.0136
 8902W        W28436   6.270  17.267  12.675  0.1675 -0.1897 -0.0024
 8903W        W28437   7.009  17.245   2.058  0.2070  0.0004  0.1135
 8904W        W28438  17.873   9.593  11.789 -0.0733 -0.0799 -0.0901
 8905W        W28439   0.753   0.904   3.050  0.2608 -0.0444 -0.2449
 8906W        W28440   6.039   3.884   2.788 -0.4794 -0.2328 -0.0742
 8907W        W28441  10.387   4.740   1.288  0.4241  0.4844  0.0142
 8908W        W28442  17.176   8.323   3.964 -0.1572  0.1234 -0.0314
 8909W        W28443  16.314   2.891  13.389 -0.2219 -0.0764  0.1078
 8910W        W28444  17.591  15.575  16.599  0.1525 -0.1242  0.0939
 8911W        W28445  16.884   5.931   4.161  0.2862  0.0785 -0.0941
 8912W        W28446   5.189  12.550  14.742 -0.1330  0.0282 -0.1025
 8913W        W28447   2.594   8.126  14.407  0.0607  0.1641 -0.2207
 8914W        W28448   2.334  17.116   3.117  0.0248 -0.0718 -0.2145
 8915W        W28449   6.897   0.664  16.453  0.2715  0.0748  0.0821
 8916W        W28450   2.253   3.692   4.380  0.0523 -0.2080 -0.1907
 8917W        W28451  16.559   9.647   5.501 -0.0303  0.0884  0.3954
 8918W        W28452   9.491  16.137   4.337  0.1251 -0.1800  0.0730
 8919W        W28453  13.408  10.863   5.064  0.0949 -0.0747 -0.0900
 8920W        W28454  12.021   0.651  14.405 -0.0764  0.0724  0.3665
 8921W        W28455  17.577   3.938  13.154  0.1047 -0.0385 -0.1668
 8922W        W28456   7.148   1.437  13.927  0.0471  0.2802 -0.0074
 8923W        W28457   5.794   1.830   4.121  0.0444 -0.1737 -0.1047
 8924W        W28458  13.471  10.434  15.715  0.1237 -0.1840 -0.0227
 8925W        W28459  16.564   0.402   1.392  0.0730  0.0396  0.3615
 8926W        W28460  16.234   5.186   2.295  0.2139 -0.0550 -0.1560
 8927W        W28461   9.822   9.736   2.767 -0.2262 -0.1899 -0.0401
 8928W        W28462   2.722   4.822  16.448 -0.1392 -0.3095  0.3799
 8929W        W28463   7.802   3.126  16.059 -0.1444  0.1244  0.1393
 8930W        W28464  17.584   9.129  12.828  0.1533  0.3626 -0.2782
 8931W        W28465   2.831  10.901  11.822  0.1819  0.0408 -0.0651
 8932W        W28466   0.258   1.825   4.866  0.3373 -0.0142 -0.2969
 8933W        W28467   7.432  11.357   3.778 -0.2359  0.2567  0.2365
 8934W        W28468   4.553  17.800   5.005  0.2355 -0.0282 -0.1106
 8935W        W28469   8.540  17.532   3.550  0.1300 -0.2879  0.3999
 8936W        W28470  14.926   1.458   0.305  0.2610  0.3307  0.2478
 8937W        W28471  12.063   3.490  15.558 -0.3035  0.0387 -0.2417
 8938W        W28472   7.728   1.234  13.875  0.0835  0.1636 -0.1094
 8939W        W28473   0.207  14.422   2.605  0.1390 -0.4509 -0.4201
 8940W        W28474   4.704   1.738   2.804 -0.0293 -0.0069 -0.0747
 8941W        W28475   1.387   2.510  14.221  0.0405  0.2357 -0.2524
 8942W        W28476   8.452   2.859  14.520  0.0671  0.0144  0.2357
 8943W        W28477   5.465  10.859   1.212 -0.0590 -0.1237  0.0969
 8944W        W28478  14.692  15.546   3.578  0.0894  0.0370 -0.4658
 8945W        W28479   8.925  12.302   2.481 -0.2943 -0.1908  0.3160
 8946W        W28480   9.492  12.876  12.559 -0.1732  0.0121 -0.1568
 8947W        W28481   9.067   8.565  16.101  0.1700  0.1550 -0.0843
 8948W        W28482  14.732  10.763   3.082  0.1028 -0.2376  0.0791
 8949W        W28483  15.393   2.594  13.873  0.0047  0.2508  0.2489
 8950W        W28484  16.365  15.754   4.161  0.0712 -0.1846  0.2523
 8951W        W28485   9.059   7.811  14.727  0.0876 -0.0682 -0.1032
 8952W        W28486  12.317   0.303  13.541 -0.1074  0.0526 -0.2376
 8953W        W28487  10.970   8.787   1.078  0.1129 -0.1139 -0.0008
 8954W        W28488  14.776   4.039   1.083  0.0713 -0.0163  0.2316
 8955W        W28489   8.402  10.312  13.812 -0.2781  0.1619 -0.0135
 8956W        W28490   1.435   9.906  11.820  0.2345  0.0796 -0.1760
 8957W        W28491  12.343   6.626   1.886 -0.0458 -0.2222 -0.0451
 8958W        W28492  14.552   5.341  15.789  0.2880 -0.0540 -0.0422
 8959W        W28493   1.161  17.213  15.159 -0.0028  0.0454  0.2048
 8960W        W28494   7.213  14.765  16.219 -0.1455 -0.3962 -0.0415
 8961W        W28495   1.091   0.599   4.721 -0.0159 -0.1452  0.0299
 8962W        W28496   7.593  12.945   0.528  0.0584  0.2049  0.2218
 8963W        W28497   0.507   4.671   3.894 -0.0214 -0.1784  0.2697
 8964W        W28498  10.389  11.550  13.012 -0.1005  0.2243  0.1159
 8965W        W28499   0.094   0.454   1.432  0.0577 -0.2053  0.3108
 8966W        W28500  17.213  11.901   3.544 -0.1100 -0.0136  0.1976
 8967W        W28501   3.719   4.496  14.649  0.0875 -0.2849 -0.4510
 8968W        W28502   8.407   3.960   2.232 -0.1877  0.0509 -0.2727
 8969W        W28503   7.575   6.232  14.592  0.1125 -0.0909 -0.1747
 8970W        W28504  16.354  12.850   4.117  0.3122 -0.3745 -0.2987
 8971W        W28505   7.505   0.546   4.915  0.0395  0.3057  0.0292
 8972W        W28506  17.531   1.277  13.252 -0.1902 -0.0636  0.6068
 8973W        W28507   5.913   3.397   0.188  0.0019 -0.0905 -0.4542
 8974W        W28508  16.575  14.278  14.708 -0.0049 -0.1616  0.3366
 8975W        W28509   1.327  14.737  15.748 -0.1197  0.0630 -0.1323
 8976W        W28510  12.718   3.499   2.799  0.1444 -0.3933  0.1031
 8977W        W28511   0.023   5.411  13.765  0.2000  0.0458 -0.0134
 8978W        W28512   9.353   7.357  14.795 -0.0735  0.1328  0.1143
 8979W        W28513   5.577   7.462  16.390 -0.1088  0.0912 -0.2946
 8980W        W28514  11.765  13.412   5.559  0.1897  0.1054 -0.2903
 8981W        W28515   7.708   6.319  13.903 -0.3827  0.0186  0.0829
 8982W        W28516   8.435   1.051   0.667 -0.2091 -0.1783 -0.0632
 8983W        W28517   1.119  12.763  15.985  0.2994 -0.0369  0.3017
 8984W        W28518  12.010  13.856   2.819  0.1063 -0.1870  0.2682
 8985W        W28519  10.053  14.757   3.248  0.0798 -0.1271  0.0549
 8986W        W28520  10.266  15.722   2.922 -0.0877 -0.2547 -0.4404
 8987W        W28521  15.239   1.255  14.330 -0.0419  0.1188  0.3341
 8988W        W28522  10.919   4.870   4.143  0.2621  0.0631  0.0077
 8989W        W28523   0.576  14.152  16.613 -0.1670 -0.2764 -0.0886
 8990W        W28524   8.837   4.269  14.431 -0.0604 -0.1121  0.1919
 8991W        W28525   4.587   9.137  15.878 -0.1038  0.0468 -0.0814
 8992W        W28526  15.260   1.241   4.492  0.1925  0.2375  0.0769
 8993W        W28527  10.643   9.512  16.581  0.0975 -0.1604 -0.3825
 8994W        W28528  11.353   0.082  16.577 -0.1504  0.2012 -0.2255
 8995W        W28529  16.273   4.228   4.393 -0.1303  0.0463 -0.0993
 8996W        W28530  17.611   9.763   4.015 -0.0918  0.0095  0.0779
 8997W        W28531   2.221  14.294  12.113 -0.0136 -0.0837  0.1822
 8998W        W28532   0.881   7.897  14.861  0.0639 -0.0190  0.1050
 8999W        W28533   7.767   1.253  15.104  0.5522 -0.0448 -0.0943
 9000W        W28534   3.981  13.570  15.762 -0.0796  0.0763 -0.1435
 9001W        W28535   3.696   3.834   1.064  0.1242 -0.1939 -0.0558
 9002W        W28536  10.709  12.523   2.289  0.0361 -0.3703  0.1977
 9003W        W28537  16.916  15.235   4.037  0.5338 -0.1313 -0.2092
 9004W        W28538   4.585  14.616   0.831 -0.2462 -0.1035  0.2824
 9005W        W28539  11.388  12.777   4.818  0.1023 -0.3555 -0.0551
 9006W        W28540  11.410   0.904   1.842  0.1257  0.0378 -0.2069
 9007W        W28541   0.049  10.491  14.389 -0.1146  0.2483 -0.3458
 9008W        W28542  13.461   1.195   1.932 -0.1467  0.0359  0.0812
 9009W        W28543  11.880   4.624   1.171 -0.3946  0.1087  0.1441
 9010W        W28544   3.186  15.711   1.542 -0.0940  0.2825  0.0145
 9011W        W28545   5.865   4.094   1.766 -0.0707  0.1203  0.0379
 9012W        W28546   5.098   8.213  15.880 -0.0569 -0.0421  0.0357
 9013W        W28547   3.725  17.181  12.340  0.0667 -0.0785  0.0155
 9014W        W28548   3.197   5.613  16.234 -0.2810  0.0698  0.1835
 9015W        W28549  12.695  12.101  14.529 -0.2845  0.0180 -0.0619
 9016W        W28550  11.583  12.894  13.790  0.0685 -0.3412 -0.1298
 9017W        W28551   2.485  14.805  12.066  0.0702 -0.2611 -0.1057
 9018W        W28552   3.537  12.478   4.406  0.2327 -0.0028  0.3040
 9019W        W28553  14.931   0.526   0.988 -0.0235  0.0054  0.2173
 9020W        W28554   2.234  15.612  13.764 -0.0474  0.0182 -0.1146
 9021W        W28555   6.577  14.517   3.955 -0.0700 -0.2452  0.3643
 9022W        W28556   4.555   2.404  13.806  0.0973 -0.0968 -0.2419
 9023W        W28557   8.637  14.934   2.251  0.3685  0.1420 -0.2028
 9024W        W28558  11.687  17.547   4.800 -0.0925  0.0823 -0.2300
 9025W        W28559  17.392   3.143   0.701  0.2203 -0.1400  0.1416
 9026W        W28560   4.580   0.559  14.427  0.2683  0.0857  0.2286
 9027W        W28561   4.719   1.445  15.097 -0.1571 -0.1168  0.1356
 9028W        W28562  17.472   6.740   0.281  0.0057 -0.6776  0.2622
 9029W        W28563  17.039   9.086   0.658  0.0778  0.2753  0.0352
 9030W        W28564  15.588  17.551  15.313  0.0814 -0.2325 -0.1057
 9031W        W28565   1.047   6.601  16.213  0.1190 -0.1028 -0.2229
 9032W        W28566   5.079  11.104   3.917 -0.1241  0.1279 -0.2149
 9033W        W28567   8.590   8.661  11.979 -0.2404 -0.1004 -0.1426
 9034W        W28568   6.453   1.718  15.122 -0.0789 -0.0404  0.0429
 9035W        W28569  16.504  17.752   0.760 -0.1785  0.0641 -0.0671
 9036W        W28570   7.224   0.028   4.112 -0.2466  0.0755  0.3227
 9037W        W28571  17.891  14.172  13.761 -0.2295 -0.2385 -0.0449
 9038W        W28572  14.855  16.534   0.083 -0.1071  0.3325 -0.1132
 9039W        W28573   4.159   2.039  13.106  0.1811 -0.1119  0.2785
 9040W        W28574  12.490   0.368  12.231  0.2599 -0.1709 -0.1422
 9041W        W28575   8.567  17.458  16.314  0.1991 -0.3285  0.2437
 9042W        W28576   9.140   1.083   3.685  0.4190 -0.0622  0.2015
 9043W        W28577   6.197  15.250  16.721 -0.3261 -0.3214 -0.0851
 9044W        W28578  10.928   5.466  15.826 -0.1781 -0.0113  0.2182
 9045W        W28579   9.704  11.276   0.987  0.1503 -0.0360  0.3289
 9046W        W28580  12.993  15.403   4.637  0.2572 -0.0128 -0.3613
 9047W        W28581   4.891   1.055  15.857 -0.0493  0.0192  0.0333
 9048W        W28582  17.679  16.485  15.633  0.3820 -0.1090 -0.0087
 9049W        W28583   9.363   0.097  15.113  0.3084 -0.1406  0.0374
 9050W        W28584   3.406   7.662   0.075  0.0217 -0.3210  0.0107
 9051W        W28585  17.670   4.035   3.929  0.3431 -0.0460  0.0241
 9052W        W28586  13.902  16.879  16.652 -0.3949  0.2430  0.1916
 9053W        W28587  14.096   7.359   0.662  0.1256 -0.0064 -0.2318
 9054W        W28588   8.197   8.221  16.121 -0.0985  0.0591  0.2317
 9055W        W28589  11.971   1.452   0.719  0.1564 -0.0869 -0.1511
 9056W        W28590  16.274   2.944  14.095  0.0710 -0.0094  0.0165
 9057W        W28591  17.517  15.926  14.789  0.2458 -0.1988  0.1336
 9058W        W28592   3.830  17.311   4.646  0.2623 -0.0744  0.0242
 9059W        W28593   3.511   0.240  14.184  0.0240  0.0839  0.0030
 9060W        W28594   8.865   4.514   3.084 -0.0026 -0.0136  0.1014
 9061W        W28595  10.204   5.940  14.133 -0.1433  0.2457 -0.1696
 9062W        W28596   5.093   8.688   2.308  0.1057 -0.2568  0.0550
 9063W        W28597  15.451   7.765   5.490 -0.1782  0.2123  0.2141
 9064W        W28598   5.306   3.277  14.461 -0.0706  0.0242 -0.0034
 9065W        W28599   5.044  15.713   1.325  0.2162  0.0437 -0.3245
 9066W        W28600   8.031   7.522  14.889  0.0124  0.2937 -0.3905
 9067W        W28601   3.310  10.935  15.458 -0.0884  0.0162  0.1354
 9068W        W28602   9.013  14.816  14.932 -0.0686  0.2495 -0.0373
 9069W        W28603   0.983  11.185  16.249  0.1133 -0.0336 -0.0254
 9070W        W28604   5.706  13.357   5.211  0.1197  0.1522  0.1333
 9071W        W28605   1.269   8.373  13.971 -0.1019 -0.1097  0.2618
 9072W        W28606   2.363  16.645  15.123  0.1381 -0.0438  0.1200
 9073W        W28607   2.648   2.693  16.094  0.4461 -0.0786  0.1489
 9074W        W28608  13.690  15.594   2.834  0.0285  0.0514 -0.0992
 9075W        W28609   9.690   6.052  16.583  0.0520  0.0548 -0.1421
 9076W        W28610   5.845  17.141  14.503  0.1167 -0.1138 -0.2489
 9077W        W28611  13.080   5.172  12.155 -0.1173 -0.1615  0.1985
 9078W        W28612  16.131   9.046   3.386  0.1865  0.0755 -0.2199
 9079W        W28613   5.225  12.708  13.810  0.3511 -0.0206 -0.1319
 9080W        W28614   9.313   8.028  12.120 -0.0698  0.0529  0.0535
 9081W        W28615   5.657   2.970  13.416 -0.2533 -0.0242  0.1494
 9082W        W28616   1.732   1.423  12.053  0.0279 -0.0118 -0.0975
 9083W        W28617   0.497  11.658   3.017  0.0877 -0.1298 -0.3282
 9084W        W28618   6.789  15.869  13.687 -0.1081 -0.1671  0.1217
 9085W        W28619   5.164  17.234   4.282 -0.1940 -0.0799  0.0356
 9086W        W28620  11.730   7.379   4.588  0.0037  0.0656  0.3801
 9087W        W28621  14.559   2.078   2.412 -0.0001 -0.1071 -0.2571
 9088W        W28622   9.239  10.076  14.474  0.2112 -0.1012 -0.2074
 9089W        W28623  11.452   4.406  12.234  0.0932  0.1960  0.0816
 9090W        W28624   8.696   5.366   5.244  0.0074  0.0566 -0.3262
 9091W        W28625   7.012  11.760   1.377  0.0983 -0.3903  0.0036
 9092W        W28626   3.964   5.666   0.494 -0.3295 -0.0043  0.3840
 9093W        W28627  14.443   3.908  16.172  0.0891  0.2409 -0.0161
 9094W        W28628   7.365   8.182  15.759  0.2451  0.0734  0.1437
 9095W        W28629   1.049   5.731   1.239  0.0438  0.0871  0.3254
 9096W        W28630   1.311   4.782  16.357 -0.0173 -0.2436 -0.1445
 9097W        W28631   6.526  15.113  15.960 -0.2646 -0.2146 -0.0283
 9098W        W28632  13.485   3.011  13.719 -0.0724  0.3840  0.2373
 9099W        W28633   8.132  16.686  14.541 -0.0056 -0.1553 -0.3115
 9100W        W28634  13.837  11.104  12.710 -0.0641  0.0394 -0.1753
 9101W        W28635  17.125   2.030  12.415  0.1968 -0.0962  0.0256
 9102W        W28636   5.824  12.136  14.718 -0.3925  0.0668 -0.1697
 9103W        W28637   2.672  10.758   3.831  0.2234 -0.3188 -0.1426
 9104W        W28638  14.812   7.548   1.193 -0.1251 -0.0290  0.1172
 9105W        W28639   9.800  13.541  13.339 -0.1905  0.0549  0.2364
 9106W        W28640   7.669  17.759   4.277 -0.2158 -0.0303 -0.2849
 9107W        W28641  17.783   9.043   2.482  0.1798 -0.0034  0.0635
 9108W        W28642  12.882  13.997   2.385 -0.2328  0.0921  0.1208
 9109W        W28643   9.547  10.316   4.213  0.0663  0.1669  0.0350
 9110W        W28644   2.452  15.114   2.953  0.0888 -0.0639  0.1132
 9111W        W28645  12.539  16.050  15.327 -0.2455 -0.1899  0.0351
 9112W        W28646   6.312  12.097  12.539  0.4066 -0.0660 -0.0998
 9113W        W28647   2.571  17.579   0.550  0.0203 -0.3940 -0.0859
 9114W        W28648   4.773  14.208  16.446  0.1047 -0.1859  0.1172
 9115W        W28649   1.081  17.136   1.021 -0.1244  0.3366 -0.0333
 9116W        W28650   8.727   0.814   3.923  0.1240 -0.1678 -0.3531
 9117W        W28651   5.215  12.035  13.145 -0.0354 -0.2298 -0.0562
 9118W        W28652  15.206  15.747  16.313 -0.0079 -0.0754  0.2555
 9119W        W28653  12.565   7.136   3.768 -0.3425  0.0759  0.0065
 9120W        W28654   5.448   2.503  14.186  0.6544  0.1328  0.2679
 9121W        W28655   2.952   8.192  12.108 -0.0141  0.2300 -0.1091
 9122W        W28656   1.883  11.035   3.141 -0.2114  0.2077  0.0969
 9123W        W28657   0.796   5.564   4.662 -0.0891 -0.4376 -0.0099
 9124W        W28658   1.718   7.907  14.273 -0.0070  0.3271 -0.1329
 9125W        W28659   1.658   1.764  13.017  0.0566  0.0232 -0.2879
 9126W        W28660  10.841   4.440  16.409 -0.3162 -0.0636 -0.1256
 9127W        W28661  12.711  14.333   4.093  0.0183  0.0959 -0.3330
 9128W        W28662   3.659   9.637   5.014 -0.1831  0.1599  0.1091
 9129W        W28663   1.527  10.112   4.688  0.2458 -0.1699 -0.1031
 9130W        W28664   2.334  15.095  13.548  0.2157  0.0189  0.3153
 9131W        W28665   0.197   3.796   0.789 -0.0918  0.1791  0.0353
 9132W        W28666   3.899  15.731   1.409  0.0884 -0.0503  0.1109
 9133W        W28667  17.354  17.695   4.638  0.1924  0.1462  0.2002
 9134W        W28668  13.883   1.550  14.992  0.1337 -0.3103  0.0559
 9135W        W28669  15.847   9.855   1.213  0.1795 -0.0896  0.0788
 9136W        W28670  12.840  15.800  16.464 -0.2892 -0.2044  0.0301
 9137W        W28671   0.910   3.516  14.985  0.2210  0.2755 -0.1364
 9138W        W28672  12.585   7.702  13.357 -0.4384 -0.3131  0.0179
 9139W        W28673   1.931   9.469  12.750 -0.0728  0.2316 -0.0419
 9140W        W28674   1.485  14.168  14.086  0.1035 -0.1956  0.0766
 9141W        W28675   5.878  12.041  13.079 -0.1511 -0.1154 -0.0793
 9142W        W28676  10.149   4.795  15.011 -0.1807  0.0202 -0.2111
 9143W        W28677   4.751   9.517  12.279  0.0850  0.2402  0.0036
 9144W        W28678  12.656   4.753  12.114  0.1563 -0.2285 -0.0519
 9145W        W28679   3.537   2.885   4.771 -0.0215 -0.0191  0.1354
 9146W        W28680   3.097   1.385  15.393  0.1133  0.0449  0.4047
 9147W        W28681  17.094   5.982   1.086  0.1570 -0.1120  0.1273
 9148W        W28682   2.562  17.841   2.200 -0.3763  0.0342 -0.2137
 9149W        W28683  11.244   2.971   4.896 -0.1809  0.3721  0.1932
 9150W        W28684   0.160   5.296   0.903  0.0242  0.1172 -0.3135
 9151W        W28685   2.493  10.183   3.716  0.3157  0.1773  0.1985
 9152W        W28686   4.163  12.790  16.547  0.2855  0.0903 -0.0537
 9153W        W28687  10.029  16.224  15.399 -0.0093 -0.0031 -0.0982
 9154W        W28688   8.637   3.542  13.394 -0.2892  0.3071  0.1988
 9155W        W28689  14.515   0.017  15.990  0.0228 -0.0789 -0.0076
 9156W        W28690   2.110   0.745   3.938  0.1023 -0.1355  0.1737
 9157W        W28691  14.946  17.748   0.546 -0.4255 -0.1819  0.2755
 9158W        W28692  10.696   2.441   4.195 -0.1324 -0.0826 -0.2257
 9159W        W28693   6.234   9.326  12.525  0.2332  0.1277 -0.1459
 9160W        W28694  15.565   1.131  16.375 -0.1796 -0.1615  0.2131
 9161W        W28695   1.094   2.770   4.682 -0.0537  0.4520 -0.0787
 9162W        W28696  11.694  11.207  13.384 -0.2053  0.1271 -0.1563
 9163W        W28697   7.513   6.777   1.245  0.1650 -0.1830 -0.3083
 9164W        W28698   2.832   4.490  13.147  0.0395 -0.0698  0.0450
 9165W        W28699   4.935  15.681  14.850 -0.1519 -0.0504  0.1845
 9166W        W28700  14.074  13.830   4.403 -0.1993 -0.2076  0.0195
 9167W        W28701  16.317  11.977   4.041 -0.0171 -0.0285  0.0451
 9168W        W28702   8.343   2.053   4.186 -0.0077  0.1408  0.4604
 9169W        W28703   0.236   4.653  14.930 -0.1081 -0.2166 -0.4347
 9170W        W28704   0.456   6.678   1.179 -0.0275 -0.2564 -0.0919
 9171W        W28705   5.983  15.462  12.449 -0.0247  0.0813 -0.0300
 9172W        W28706  15.511  15.934  15.946 -0.1561  0.0937 -0.2595
 9173W        W28707  11.320   8.201  13.261 -0.1485  0.3305  0.0546
 9174W        W28708  17.206   1.367   4.698  0.0336 -0.2272  0.0235
 9175W        W28709   6.787   1.839  13.872  0.2167 -0.1756 -0.0731
 9176W        W28710   4.542   6.265  15.817  0.3821 -0.3344  0.2255
 9177W        W28711   6.916   7.894   1.050  0.3462  0.0948 -0.1568
 9178W        W28712  17.900   2.649  12.512 -0.1589  0.1478  0.1341
 9179W        W28713  10.498   4.576   3.549 -0.1445  0.1325  0.2717
 9180W        W28714   4.612   5.495  11.992  0.1828 -0.2117 -0.1470
 9181W        W28715  13.503  10.279   0.746  0.0004 -0.4152  0.1934
 9182W        W28716  16.484  13.255   2.209 -0.0347  0.0234 -0.1534
 9183W        W28717  14.593   5.673  16.505 -0.0269  0.0689  0.0195
 9184W        W28718  17.342   0.890   4.803 -0.1000  0.1424 -0.2044
 9185W        W28719  16.761  15.804   0.462  0.2094  0.1964  0.1222
 9186W        W28720  13.804  11.264  12.235  0.0857 -0.1537 -0.0362
 9187W        W28721   5.172  17.877  13.271 -0.0770  0.4398  0.0179
 9188W        W28722   4.478   0.748   4.229 -0.0297  0.0624  0.2103
 9189W        W28723   7.002   4.913   5.022  0.2991 -0.0615 -0.3285
 9190W        W28724  13.646   1.694  15.593  0.0083  0.0661 -0.0062
 9191W        W28725   3.289   9.354   4.714 -0.0444  0.0503 -0.1722
 9192W        W28726   1.678   8.545  13.025  0.0446 -0.0308  0.0448
 9193W        W28727  13.764  13.192   4.379 -0.2379  0.1005  0.0167
 9194W        W28728  14.004  16.121  12.203  0.2469 -0.3247 -0.0939
 9195W        W28729  12.127  13.873  15.678 -0.0601  0.0746  0.1297
 9196W        W28730  15.300   0.536   2.539  0.2108 -0.1564  0.0334
 9197W        W28731   4.341   6.311   1.170  0.1287 -0.1668  0.1040
 9198W        W28732   2.342  13.953   3.577  0.2556 -0.1569 -0.0638
 9199W        W28733   1.965  15.664   0.319  0.0874  0.0033  0.0352
 9200W        W28734   3.881   2.665  14.422 -0.1382  0.0322  0.2892
 9201W        W28735   5.405   0.319   5.477 -0.1036 -0.0947 -0.1000
 9202W        W28736  12.078  12.996   2.659 -0.2402 -0.1796 -0.0248
 9203W        W28737   9.011  16.377   2.792  0.0078 -0.1110 -0.0455
 9204W        W28738   0.124  12.996  15.218  0.0167  0.0846 -0.1046
 9205W        W28739   2.057  16.801  16.239  0.1407  0.0187 -0.0969
 9206W        W28740   6.099   7.357  16.298 -0.0668 -0.0414  0.0912
 9207W        W28741   6.939  15.282   1.821 -0.1040  0.1815  0.0124
 9208W        W28742   0.016  14.646   4.168 -0.0529 -0.1632 -0.1686
 9209W        W28743   0.339  15.414   0.100 -0.0138 -0.0588  0.2083
 9210W        W28744   9.216  11.881  16.187  0.4290 -0.0607  0.0906
 9211W        W28745   6.973   7.721  13.871 -0.0510  0.2373  0.1029
 9212W        W28746  16.763   7.972  12.066  0.0566 -0.1813  0.1807
 9213W        W28747   2.382   3.487  14.294  0.1977 -0.2519  0.2989
 9214W        W28748   5.027   1.857  14.225 -0.1500 -0.3246  0.0475
 9215W        W28749   9.518   8.936   1.791  0.3566  0.0164 -0.0569
 9216W        W28750   9.169  13.975  13.741  0.0672 -0.1033  0.1078
 9217W        W28751  15.219   9.566  13.135  0.0740 -0.3730 -0.3762
 9218W        W28752  15.582   5.750  13.869  0.0598  0.0695 -0.0120
 9219W        W28753  16.310  16.994  16.344  0.1089 -0.0040 -0.0775
 9220W        W28754   5.885  12.442  13.344  0.0159 -0.0322 -0.1189
 9221W        W28755   6.080  10.705  12.280 -0.1105 -0.3304 -0.0025
 9222W        W28756   4.581   9.422  15.426  0.0144 -0.2540 -0.1846
 9223W        W28757   0.299   7.488  16.114  0.0628 -0.0936  0.1283
 9224W        W28758  10.788   8.520   1.530 -0.1852  0.1996  0.3294
 9225W        W28759  16.100   4.570  14.174  0.0407 -0.0055 -0.0720
 9226W        W28760  10.317   3.246   1.962  0.2558  0.3061  0.0422
 9227W        W28761  15.483   8.804   2.521 -0.0773  0.0143  0.0667
 9228W        W28762  14.031  17.376  14.903 -0.1719  0.1374 -0.0151
 9229W        W28763  15.035  16.475  11.423  0.1312  0.0489  0.0942
 9230W        W28764  12.232   4.104  15.227 -0.0908  0.2866  0.0407
 9231W        W28765   3.432   5.917  14.479  0.2050 -0.3256 -0.1519
 9232W        W28766  12.664  16.669  15.966 -0.2806  0.2397  0.0708
 9233W        W28767  14.207  10.338  11.549  0.1454 -0.5395 -0.1448
 9234W        W28768  11.068   6.963   4.142  0.2555  0.1834  0.0958
 9235W        W28769   6.454  16.808  12.388 -0.1304  0.3672  0.1266
 9236W        W28770  12.036   7.111   2.607  0.0983  0.1808 -0.1280
 9237W        W28771   1.469  16.512  15.644  0.2242 -0.3398  0.3037
 9238W        W28772   1.454   0.355   3.947 -0.3678  0.1583 -0.3304
 9239W        W28773  11.214   0.380   0.804  0.3534 -0.0200  0.0661
 9240W        W28774  12.614   2.162   1.182  0.0855  0.3174 -0.0766
 9241W        W28775  15.764  17.566   2.797 -0.1149 -0.2711 -0.0682
 9242W        W28776  17.229   4.441  12.441 -0.3739  0.0304  0.2414
 9243W        W28777  16.480  17.772  11.915 -0.2284  0.2449 -0.1456
 9244W        W28778   2.790   6.311  13.744 -0.4946 -0.0616  0.0623
 9245W        W28779  12.894   0.226   3.342  0.2734  0.1908 -0.2383
 9246W        W28780  10.365  14.941  12.995  0.0621 -0.1266 -0.2228
 9247W        W28781   4.277   3.785  14.547  0.1620 -0.1763  0.0831
 9248W        W28782   4.156   7.963  13.443 -0.1645  0.0106  0.4160
 9249W        W28783   2.008  13.128   0.791 -0.1511  0.1537  0.1330
 9250W        W28784  16.616   5.214   3.811  0.2783  0.1216  0.2991
 9251W        W28785   0.401  15.826  16.082  0.2674  0.1450  0.0066
 9252W        W28786   9.659   5.150   4.884  0.0463  0.0789  0.2200
 9253W        W28787  10.387   0.942   3.327 -0.0757  0.0003  0.0168
 9254W        W28788   2.325   9.138  16.627 -0.1317  0.0790 -0.3035
 9255W        W28789  15.922  11.491  13.829 -0.0016  0.1201 -0.1640
 9256W        W28790  14.818  14.965   1.214 -0.0549 -0.0296 -0.1024
 9257W        W28791  13.926  12.529  15.388 -0.0836 -0.0116  0.3070
 9258W        W28792   5.405   0.487  13.989 -0.0939 -0.0975 -0.2097
 9259W        W28793  17.271   0.832   2.553  0.3504 -0.2598  0.1449
 9260W        W28794   5.083  15.410  15.794 -0.1531 -0.1780 -0.1835
 9261W        W28795   1.579   4.205   3.161 -0.0125 -0.1687 -0.2276
 9262W        W28796  17.569   8.072  14.972  0.1604  0.0132 -0.2161
 9263W        W28797  13.751   3.693   0.462 -0.1556 -0.0961  0.2652
 9264W        W28798   0.527   1.548   2.400 -0.2410 -0.0368 -0.1481
 9265W        W28799  16.574  15.061  14.404  0.2872  0.2420  0.4316
 9266W        W28800  16.162   7.297  16.237 -0.0300  0.0583  0.5528
 9267W        W28801   4.973  17.214  12.932 -0.0623  0.0726 -0.1476
 9268W        W28802   9.741   7.668   3.253  0.0392 -0.2506  0.1261
 9269W        W28803   3.918  17.597   2.869  0.2013 -0.3446  0.2910
 9270W        W28804   2.822  12.912   2.403  0.1133 -0.1810 -0.0015
 9271W        W28805  14.687   4.321   3.387 -0.1658 -0.0482  0.0658
 9272W        W28806   8.961   8.699  14.807 -0.0623 -0.2007  0.0861
 9273W        W28807  10.732   0.349  12.433 -0.4188 -0.3201 -0.2217
 9274W        W28808  13.850   3.738   1.958  0.0752 -0.0699 -0.1718
 9275W        W28809   4.095   5.745  12.861 -0.0647  0.1081  0.1117
 9276W        W28810   1.081   0.594  16.346 -0.1149 -0.1027 -0.0325
 9277W        W28811  17.870   3.821  14.597 -0.0852 -0.0042  0.0830
 9278W        W28812   6.386  14.107   2.178 -0.1073 -0.0293  0.0049
 9279W        W28813  16.749   3.351  13.274 -0.2572  0.0241 -0.0696
 9280W        W28814   1.899  12.293  12.787  0.2635 -0.0046 -0.0381
 9281W        W28815   5.486   9.135   2.843 -0.0689 -0.1124  0.3752
 9282W        W28816  11.901   3.399  13.689 -0.0601 -0.0376 -0.1454
 9283W        W28817   4.836   1.887  11.219  0.0250  0.0677  0.0534
 9284W        W28818   2.917   3.223   3.171  0.0809 -0.1372  0.1670
 9285W        W28819   3.004   1.929   3.205 -0.0387  0.1826 -0.4455
 9286W        W28820   3.371  17.049   2.153  0.1384 -0.0303 -0.4034
 9287W        W28821  12.528   9.009  14.567  0.3433  0.0326  0.3030
 9288W        W28822  14.483  10.132  13.423 -0.1333 -0.3917 -0.1684
 9289W        W28823   7.404  11.276  15.690 -0.0227  0.1209 -0.1299
 9290W        W28824   6.990  11.482  15.388  0.2445 -0.1795  0.2255
 9291W        W28825   6.852   8.083  14.831  0.2592  0.1256 -0.1019
 9292W        W28826  13.123   5.211  14.783  0.1744 -0.0595  0.0214
 9293W        W28827  10.407   6.361  14.243 -0.1558  0.0984  0.1041
 9294W        W28828   9.559   7.376  13.742 -0.0417 -0.1550  0.1331
 9295W        W28829  13.343  10.127   5.773 -0.1841 -0.2251 -0.1387
 9296W        W28830   1.266   7.467  12.862 -0.3150  0.1712 -0.0377
 9297W        W28831  12.086   1.509   1.956  0.0298  0.0224 -0.0426
 9298W        W28832   7.240   9.189  12.719 -0.0716 -0.0619  0.0125
 9299W        W28833   3.752   3.461  14.197  0.0166 -0.0435 -0.0751
 9300W        W28834   9.531   5.941   5.282 -0.2242 -0.1652 -0.0260
 9301W        W28835   0.097   9.524  15.910 -0.3205 -0.2102  0.2679
 9302W        W28836  11.601  13.903  12.756 -0.0453  0.0920 -0.1508
 9303W        W28837   8.486   8.325  15.055  0.0829  0.0110 -0.0606
 9304W        W28838  15.383  14.863  15.713  0.2821 -0.3009  0.1656
 9305W        W28839  17.476  13.254   1.740  0.1968  0.2998  0.0263
 9306W        W28840  11.907   9.681   2.440 -0.0437 -0.0003  0.4338
 9307W        W28841  14.437  12.393  12.991 -0.1898 -0.1408  0.0899
 9308W        W28842  15.917  15.678  15.683  0.0142  0.1544  0.3983
 9309W        W28843   9.216  17.226   1.670  0.0651  0.1178  0.1213
 9310W        W28844   6.669  12.351   0.763 -0.2225 -0.1012  0.1798
 9311W        W28845   2.732  11.641   2.810 -0.1919 -0.0377  0.2327
 9312W        W28846  10.471   5.343   1.944 -0.1793  0.2240  0.1985
 9313W        W28847   0.197   2.570   4.035  0.2339 -0.0303  0.1636
 9314W        W28848  11.288  12.778   1.625 -0.0510  0.0857 -0.1413
 9315W        W28849  11.018   7.003  12.833  0.0368  0.1621  0.2092
 9316W        W28850   6.745  12.811  14.194  0.3160  0.0539  0.3041
 9317W        W28851  16.465  15.013  16.051  0.2011 -0.0470  0.3277
 9318W        W28852   3.973  11.370   4.843  0.2360 -0.3598  0.2804
 9319W        W28853   0.527   1.288   1.459 -0.0452  0.1734 -0.0152
 9320W        W28854  11.243   9.282   2.873 -0.0134  0.0698 -0.2477
 9321W        W28855  14.937   2.435   3.677 -0.1781  0.2293 -0.2761
 9322W        W28856   9.511  17.180  15.289 -0.4709  0.1514  0.0826
 9323W        W28857  10.957   5.410  13.517  0.1661 -0.0331  0.0880
 9324W        W28858   2.702   6.139   2.980 -0.2514 -0.1895 -0.1243
 9325W        W28859  16.869   7.994  16.209  0.1906  0.2110 -0.0393
 9326W        W28860  13.742   6.491   1.153 -0.1069 -0.2265 -0.1304
 9327W        W28861   7.801  17.091   3.020 -0.0914 -0.2468 -0.1874
 9328W        W28862  10.321  17.158   1.780 -0.0137 -0.2893 -0.0327
 9329W        W28863  16.789  11.530  12.552 -0.2429 -0.1468  0.1385
 9330W        W28864  16.400   7.933   0.708 -0.1616  0.4053 -0.0457
 9331W        W28865   1.425  10.918  14.231 -0.0188  0.0235 -0.1352
 9332W        W28866  16.279   5.880  11.596 -0.0483  0.1343  0.2114
 9333W        W28867  12.332  15.351  14.081 -0.1469 -0.1612 -0.3186
 9334W        W28868  16.184  14.496   3.092 -0.0786 -0.1512  0.0365
 9335W        W28869   9.900   7.195  14.683 -0.0363  0.1460  0.0868
 9336W        W28870   5.853   2.821  11.689 -0.1377 -0.1825  0.0327
 9337W        W28871  10.565  14.193   0.499 -0.0301 -0.0471  0.0334
 9338W        W28872   4.197  12.914   4.509  0.0902 -0.0986 -0.2411
 9339W        W28873  14.994   6.148   3.816 -0.2096  0.0061  0.0227
 9340W        W28874  17.141   5.053   4.609 -0.0360  0.0621 -0.0512
 9341W        W28875   6.434   0.423   4.703 -0.0058 -0.1475 -0.0722
 9342W        W28876   5.321   1.725   3.249 -0.0749 -0.0978 -0.2401
 9343W        W28877   2.102  12.034  13.232 -0.0578  0.0241  0.2215
 9344W        W28878   9.261  17.526  14.176 -0.0794 -0.6557 -0.2405
 9345W        W28879  16.365  13.525  12.701 -0.1318 -0.1420 -0.0498
 9346W        W28880   4.864   4.707  15.334 -0.1614  0.1249  0.1467
 9347W        W28881   4.755   8.307   2.547 -0.0701 -0.1054  0.3281
 9348W        W28882  15.009  16.456   3.804  0.1239  0.3387  0.1446
 9349W        W28883  11.157  11.445   1.429 -0.0574 -0.3505  0.3791
 9350W        W28884  17.907  15.099  13.856 -0.1243  0.2636 -0.0416
 9351W        W28885  10.300  15.419  13.388 -0.1790 -0.1014 -0.0047
 9352W        W28886   9.800  14.804   1.609 -0.2819 -0.0221  0.1288
 9353W        W28887  13.293   0.749  13.980  0.0654  0.2406  0.0513
 9354W        W28888  16.044   9.609   3.995  0.5036  0.0517 -0.1575
 9355W        W28889  16.049   1.213   3.295  0.1574  0.1893 -0.1045
 9356W        W28890  10.613   6.717   0.204  0.2512  0.3595  0.3608
 9357W        W28891  16.364   7.778  13.283 -0.2001  0.1447  0.0276
 9358W        W28892   4.325  11.959  16.447 -0.1908  0.0328  0.0763
 9359W        W28893   7.082   5.710   0.770  0.0470  0.1890  0.1457
 9360W        W28894   4.938   6.774  14.365  0.0478 -0.0290 -0.2020
 9361W        W28895  11.939  10.735  11.381  0.0042 -0.0287 -0.1155
 9362W        W28896   3.665  13.404   0.308  0.0080  0.5093 -0.0188
 9363W        W28897   6.155  10.666  10.923  0.2818 -0.1894  0.1111
 9364W        W28898   8.015   1.698   4.294  0.3379  0.3218  0.0117
 9365W        W28899  10.956  11.436  15.417 -0.1255 -0.0220  0.1240
 9366W        W28900   0.131  11.379   3.987  0.2734  0.1205  0.1178
 9367W        W28901   7.216   5.247   1.027 -0.1705  0.2719  0.0477
 9368W        W28902   1.717  10.945  14.784  0.0035  0.0814 -0.0630
 9369W        W28903   5.706   3.737  15.136  0.0675 -0.0122  0.1106
 9370W        W28904  17.628  17.888   0.077 -0.1015 -0.0353 -0.1103
 9371W        W28905   2.449  16.865   5.477 -0.4656  0.2301  0.0531
 9372W        W28906  13.381  11.099  11.962  0.1831 -0.2286 -0.2565
 9373W        W28907   9.092   2.276  13.626  0.1040 -0.1080  0.0470
 9374W        W28908  14.770  12.792   4.348  0.0759 -0.0528 -0.0453
 9375W        W28909  12.660  14.241  16.345 -0.0317 -0.0606 -0.0311
 9376W        W28910   0.047   7.095   1.200 -0.0322 -0.2478 -0.0460
 9377W        W28911   3.890   8.747  15.462  0.2913 -0.0760 -0.2217
 9378W        W28912   3.702   4.525   0.293  0.0607  0.1264  0.3071
 9379W        W28913  16.900   3.817  14.542 -0.1305  0.0055  0.0526
 9380W        W28914   6.214  14.969  13.738 -0.1172  0.0473 -0.0871
 9381W        W28915   5.577  11.368   2.346 -0.2638 -0.1623  0.1609
 9382W        W28916   4.283  12.755   3.688  0.0808  0.0970  0.1530
 9383W        W28917   1.880   1.282  14.360  0.1208 -0.3511 -0.1187
 9384W        W28918  12.816  13.785   1.478  0.0428 -0.1559  0.1129
 9385W        W28919   5.594   9.554  15.409  0.4331 -0.1575 -0.1983
 9386W        W28920   7.766  13.094  12.249 -0.2026 -0.1829  0.0071
 9387W        W28921   0.399   3.202   0.692  0.2158 -0.0681  0.0249
 9388W        W28922  12.780   5.499  16.472  0.0346 -0.0091  0.1657
 9389W        W28923  15.613   3.940  13.750  0.1799 -0.4780  0.0917
 9390W        W28924   8.331   5.559   4.117 -0.2263  0.2714 -0.1493
 9391W        W28925  16.651   5.601   1.043  0.0456  0.0846 -0.2189
 9392W        W28926  12.496  16.389   3.486 -0.1087  0.1220 -0.2317
 9393W        W28927  11.794  17.623  15.309  0.0265 -0.0781 -0.0828
 9394W        W28928  13.806  14.195   3.509 -0.0217  0.0566 -0.1082
 9395W        W28929  14.516   2.325  15.119  0.0419 -0.2538  0.2404
 9396W        W28930  11.362  17.078  14.219  0.1613  0.0786  0.2685
 9397W        W28931  11.718  13.111   2.293 -0.0595 -0.1382 -0.0833
 9398W        W28932  13.819  14.776   1.288 -0.3908  0.1000  0.1471
 9399W        W28933   6.521  15.465   4.575 -0.0758 -0.0073  0.0980
 9400W        W28934   0.129  13.675  15.157  0.1446  0.0832  0.2055
 9401W        W28935  17.723   0.864   1.101  0.0743  0.1174  0.1220
 9402W        W28936  17.390  17.469  13.493  0.1226 -0.1487 -0.0594
 9403W        W28937   1.834   0.104  12.219  0.2068 -0.1705 -0.1464
 9404W        W28938   1.551  17.843   4.331  0.0518  0.1617  0.0786
 9405W        W28939  12.624   9.436  15.445  0.0550  0.2117  0.1922
 9406W        W28940   9.993  16.047   1.573  0.1632 -0.1138  0.0897
 9407W        W28941  16.427   3.387  16.552 -0.0723 -0.1667 -0.0543
 9408W        W28942   2.969  14.264   4.207 -0.0548 -0.0487  0.1230
 9409W        W28943  14.656  13.008  15.772 -0.4005  0.0668 -0.1714
 9410W        W28944   4.511   3.888   2.014 -0.5670 -0.1979  0.2254
 9411W        W28945   3.243   8.941  14.363 -0.0152 -0.2311 -0.0825
 9412W        W28946   2.657  15.575   1.561 -0.0441 -0.1879 -0.1465
 9413W        W28947  10.777   0.841   3.592 -0.3748  0.0779 -0.1126
 9414W        W28948   3.738   7.602  12.898 -0.0181 -0.2036  0.0754
 9415W        W28949  17.486  11.814   0.890 -0.1202  0.2690  0.1578
 9416W        W28950  11.732  15.068  14.587  0.0488  0.0944  0.1659
 9417W        W28951  17.020   1.934   3.993 -0.1674 -0.2874  0.3081
 9418W        W28952   8.453   5.342   3.501 -0.3394  0.1212  0.2448
 9419W        W28953   2.484  17.011   4.710 -0.0638 -0.0034 -0.1146
 9420W        W28954   4.795   3.647   5.099  0.0205 -0.0764  0.0172
 9421W        W28955   6.893   4.107  15.866 -0.1008  0.2662 -0.0656
 9422W        W28956  12.518  11.834   2.903 -0.1219 -0.0181  0.1034
 9423W        W28957  13.341  17.680   4.803  0.1494 -0.0150 -0.0301
 9424W        W28958   4.558   4.175   4.923 -0.3131  0.1578 -0.4230
 9425W        W28959  11.048  12.116  16.685 -0.0121 -0.2749  0.0796
 9426W        W28960   5.445  15.559   2.071 -0.0843 -0.3365 -0.0141
 9427W        W28961   1.624  14.621   2.768  0.0796 -0.0336 -0.1439
 9428W        W28962  11.323   9.036  15.578  0.1065  0.2107 -0.0425
 9429W        W28963  10.613  13.025  13.851  0.2187  0.1253  0.3001
 9430W        W28964  17.445   0.317   0.888 -0.2637 -0.3174  0.0178
 9431W        W28965   2.627   0.709   1.832 -0.1571  0.2729  0.0958
 9432W        W28966   7.506   1.797   4.415  0.1634  0.0333 -0.2182
 9433W        W28967  17.121   5.057   2.439  0.0313  0.0110  0.0176
 9434W        W28968   2.179  15.515   4.934 -0.0061  0.0561 -0.1409
 9435W        W28969  12.858   3.562   3.389 -0.1770 -0.2205 -0.0663
 9436W        W28970  13.823   0.620  14.645  0.0695 -0.0867  0.1925
 9437W        W28971   2.527   8.253  16.327 -0.1079 -0.3602  0.0592
 9438W        W28972   0.907   2.898   3.901 -0.0308  0.3065 -0.2483
 9439W        W28973  17.548   0.536   2.048 -0.1567 -0.0484  0.1316
 9440W        W28974  11.961   1.048   1.056 -0.0455  0.0838 -0.1366
 9441W        W28975   0.352  14.907   4.493 -0.3921 -0.4795  0.0614
 9442W        W28976   2.340  17.888   4.267  0.0770 -0.1501  0.0873
 9443W        W28977  14.500  14.907   2.206 -0.0267 -0.0202 -0.0636
 9444W        W28978   1.910   6.376  12.173  0.0006 -0.1129 -0.2013
 9445W        W28979   7.492  16.352  13.658 -0.0011  0.3083  0.2175
 9446W        W28980  11.485   3.923  11.450  0.2996  0.2508 -0.1575
 9447W        W28981   4.314  16.958   2.102  0.3677 -0.0817  0.0227
 9448W        W28982   6.774   6.494  14.689  0.2453  0.2458  0.3638
 9449W        W28983   7.355   0.164   2.306 -0.1594 -0.3558 -0.2049
 9450W        W28984   1.454  10.593  15.516  0.1291 -0.0238  0.0832
 9451W        W28985   8.495  17.849   0.171 -0.1109 -0.3724  0.0239
 9452W        W28986   2.816  16.360   0.434 -0.0971 -0.0484  0.2840
 9453W        W28987  10.181   2.431   2.345 -0.0181 -0.0406 -0.1040
 9454W        W28988  17.582  17.874   4.248 -0.0791  0.1658  0.1864
 9455W        W28989   2.972  17.685   0.788 -0.5188  0.2129 -0.1527
 9456W        W28990   7.469  13.296  13.562 -0.1414 -0.2674  0.2829
 9457W        W28991  15.845   3.494  12.909 -0.1375  0.1941  0.1358
 9458W        W28992  15.326  10.422  16.649  0.3026 -0.1355  0.1971
 9459W        W28993   4.152   8.476  16.421 -0.0787  0.1198 -0.1382
 9460W        W28994   3.237  12.715   1.983  0.1695 -0.2164  0.2114
 9461W        W28995   6.170   8.089   0.418 -0.0845  0.2027 -0.1514
 9462W        W28996  16.895  10.207   3.130  0.0914 -0.1428  0.2063
 9463W        W28997  17.309  11.711  16.667  0.0438  0.0458  0.0453
 9464W        W28998  16.583   2.573  13.707 -0.0737  0.2987  0.1543
 9465W        W28999   6.002   3.772  16.150  0.2385  0.3149 -0.1006
 9466W        W29000   3.501   5.079  12.073  0.0427  0.1029 -0.1984
 9467W        W29001  10.363   9.225  15.269  0.2516 -0.0378 -0.1378
 9468W        W29002   7.211  17.093  15.741  0.0033  0.1204 -0.0687
 9469W        W29003   6.368  12.600   1.077 -0.1515  0.1996 -0.0365
 9470W        W29004   7.011  17.221  13.441 -0.0523  0.1148 -0.0309
 9471W        W29005   4.524  13.792  12.274  0.3734  0.0181  0.1250
 9472W        W29006  16.958  10.320  13.769 -0.0819 -0.0380  0.2443
 9473W        W29007   4.494  17.309  12.713  0.0202  0.0007  0.0144
 9474W        W29008  16.745   9.965   0.966  0.0227  0.0705  0.2365
 9475W        W29009  14.643   0.865  16.368  0.1356  0.0977  0.0227
 9476W        W29010   6.698   3.370  16.517 -0.0898  0.0836  0.1414
 9477W        W29011  14.494  16.347   3.879 -0.2955 -0.0713 -0.1672
 9478W        W29012   8.382   4.228   0.423  0.0704  0.0240 -0.2245
 9479W        W29013   6.236  13.786  15.381  0.0525 -0.0367  0.0709
 9480W        W29014   4.140  15.935  15.151  0.1492 -0.0741  0.1354
 9481W        W29015   9.940  10.913  11.700 -0.2477 -0.1198 -0.1005
 9482W        W29016  11.129   9.745   3.075 -0.2512  0.0725 -0.2142
 9483W        W29017   7.199   1.376   4.368 -0.0774  0.1583 -0.2698
 9484W        W29018  17.308   3.971   2.053 -0.0041  0.2551 -0.1479
 9485W        W29019   4.376   2.846   3.574 -0.0661  0.1613  0.1665
 9486W        W29020  16.736  11.796  12.057 -0.0841 -0.1753 -0.1852
 9487W        W29021   5.804  10.623  16.541  0.0950 -0.1009 -0.0661
 9488W        W29022   6.434  15.346   3.302  0.0999 -0.2518 -0.1368
 9489W        W29023  10.029   5.347  14.801  0.0683 -0.0863  0.0301
 9490W        W29024  15.873   0.516   2.658 -0.0374  0.0159  0.1177
 9491W        W29025  16.542   7.744  11.639 -0.5041 -0.1970  0.2058
 9492W        W29026   8.993   0.199  13.877  0.2330  0.0383 -0.1711
 9493W        W29027   3.486   7.252  12.476  0.1523 -0.4405 -0.2195
 9494W        W29028  12.859  10.513   3.044 -0.0057 -0.0561 -0.3334
 9495W        W29029  16.351  10.492   0.990 -0.2480 -0.1432 -0.2117
 9496W        W29030   1.897  16.485  15.332 -0.1291 -0.0550  0.2726
 9497W        W29031   9.592   1.806   3.615  0.1201  0.2659 -0.2235
 9498W        W29032  16.128  15.482  14.759  0.0947  0.0039 -0.1115
 9499W        W29033   9.912   7.598  12.687  0.0722 -0.2779 -0.0483
 9500W        W29034   0.498  10.189  16.633  0.0801  0.3796  0.3086
 9501W        W29035  14.280  12.836  12.004  0.0798 -0.1604 -0.0648
 9502W        W29036   6.001   2.573  14.245  0.2053  0.0357  0.1781
 9503W        W29037   5.856  13.972   1.894 -0.0427 -0.2033  0.1742
 9504W        W29038  15.915   1.282   2.811  0.1530 -0.1894  0.1798
 9505W        W29039   3.926  14.614  15.501  0.4037  0.1683  0.2431
 9506W        W29040   9.713  16.418  16.509 -0.2739  0.1250 -0.1132
 9507W        W29041   7.712  15.109  14.649  0.0608 -0.0363 -0.0712
 9508W        W29042   6.020   8.039  13.796 -0.1463  0.0801 -0.2203
 9509W        W29043  10.811  10.991   2.217  0.3873  0.0858 -0.0179
 9510W        W29044  11.365   1.582   4.371  0.3558 -0.0077  0.0718
 9511W        W29045  15.416  15.556   2.094  0.0865 -0.0946  0.0147
 9512W        W29046   8.492   4.225  13.282  0.3282  0.1574 -0.2041
 9513W        W29047   1.995   7.580   2.592  0.3745  0.2386  0.0735
 9514W        W29048   5.874   6.020  12.195 -0.0311 -0.1046  0.1074
 9515W        W29049  14.870   8.393  12.417  0.3073 -0.0910  0.1636
 9516W        W29050  14.384   5.670   0.300 -0.2633  0.0483  0.0763
 9517W        W29051   2.416  16.498   2.022 -0.3549  0.0477  0.2048
 9518W        W29052  10.094   7.576   3.606  0.0013 -0.0131 -0.2922
 9519W        W29053   6.769  17.077   3.998  0.1666  0.2118  0.0929
 9520W        W29054   9.470   9.551  13.755 -0.2940 -0.2573 -0.0620
 9521W        W29055   6.754   0.710   0.658 -0.0330  0.0668 -0.1563
 9522W        W29056  11.274   8.686  13.626  0.1088 -0.0270  0.1284
 9523W        W29057  15.583   4.972  15.843  0.0103  0.0327 -0.0061
 9524W        W29058  16.869  14.114   3.107 -0.0950  0.0269 -0.0178
 9525W        W29059  15.258   3.197   4.584 -0.0568 -0.2658 -0.0716
 9526W        W29060  13.552  16.497   3.830 -0.1224  0.1281  0.1908
 9527W        W29061   0.709  11.860  15.667  0.0727  0.0786  0.0688
 9528W        W29062   4.585   4.405  15.637  0.0925  0.1089 -0.4166
 9529W        W29063   5.188  15.278   2.988  0.1596 -0.1390  0.1764
 9530W        W29064   1.922  13.753  14.532 -0.0316  0.1137 -0.1304
 9531W        W29065   5.564   8.959  13.892  0.0144 -0.0236  0.0868
 9532W        W29066   1.435  12.479  13.098 -0.3347  0.1285 -0.1960
 9533W        W29067   5.386  13.215   4.334 -0.1337  0.1547  0.2046
 9534W        W29068   8.243   7.997   0.587  0.0049 -0.0891 -0.1322
 9535W        W29069  12.033  12.713  13.707  0.0220 -0.0007  0.4324
 9536W        W29070   3.205   2.911  12.858  0.1133  0.0187 -0.2013
 9537W        W29071   8.120   1.220  16.685  0.2246 -0.2636 -0.0074
 9538W        W29072   6.757   2.821  13.041  0.1786  0.1361  0.1188
 9539W        W29073   7.403   4.841  14.666  0.2864 -0.0030 -0.3503
 9540W        W29074  11.612   0.654  16.490  0.2475 -0.2418 -0.1476
 9541W        W29075   1.052   0.041  14.110 -0.0409  0.0809  0.2347
 9542W        W29076  13.101   6.625  13.570 -0.1254  0.1182 -0.0285
 9543W        W29077  10.626  11.338  16.491 -0.0056  0.1484  0.1188
 9544W        W29078   5.497  17.685   4.230  0.0351 -0.1702  0.0331
 9545W        W29079  12.580   2.892   0.894  0.1602  0.0071 -0.4632
 9546W        W29080  15.251   1.527  16.679 -0.0764  0.0058 -0.1542
 9547W        W29081   1.754   6.929  12.434 -0.0897  0.1711  0.3029
 9548W        W29082   6.010   2.483   4.852 -0.0902  0.0595 -0.5015
 9549W        W29083  12.716   9.785   4.737 -0.3582  0.0799 -0.4333
 9550W        W29084   5.807   3.622   2.039 -0.3266 -0.0698  0.0501
 9551W        W29085   8.233   0.143  15.858 -0.1393 -0.0019 -0.0955
 9552W        W29086  11.460   5.347   3.008  0.0196 -0.1228  0.1430
 9553W        W29087  11.893   9.683   1.120  0.0428 -0.0183 -0.0372
 9554W        W29088   5.470  10.999   4.305 -0.2995 -0.3194  0.0115
 9555W        W29089  13.084   1.923  12.394  0.2377 -0.2451  0.0746
 9556W        W29090  12.606  14.135   4.578  0.2054  0.0753 -0.0442
 9557W        W29091   7.932   2.624   1.701 -0.1233 -0.1053  0.1807
 9558W        W29092   2.236  11.508  15.251 -0.0972  0.0167  0.1644
 9559W        W29093   5.680   9.529   4.692  0.1127  0.3524 -0.3166
 9560W        W29094   1.037   4.789  14.749  0.1192 -0.1581  0.3404
 9561W        W29095   9.280   6.763  11.159 -0.2939 -0.1646  0.0224
 9562W        W29096   9.500   1.986   2.022  0.1738 -0.0644 -0.2848
 9563W        W29097  11.019   7.022  13.975 -0.1079  0.3848 -0.1428
 9564W        W29098   0.761   0.825  15.376 -0.0722 -0.0564 -0.1173
 9565W        W29099   3.269   1.678  14.650  0.1263 -0.1707 -0.0878
 9566W        W29100   4.730   6.822  11.785  0.1267 -0.0038  0.1458
 9567W        W29101  15.250   3.467   3.274  0.0362 -0.0494  0.2244
 9568W        W29102   9.992  11.486  15.514 -0.1860 -0.1469  0.0076
 9569W        W29103   3.435   5.166   4.872 -0.1316  0.0540 -0.2174
 9570W        W29104   1.845   7.048   0.574  0.3754  0.3158  0.0022
 9571W        W29105  16.561  14.468  13.704  0.2535  0.2475  0.3026
 9572W        W29106   1.371   9.101  12.098  0.2289 -0.1154  0.0353
 9573W        W29107   4.289   8.803  12.481  0.2123  0.4516 -0.2989
 9574W        W29108   1.592   4.006  13.447 -0.5241  0.0733  0.2892
 9575W        W29109  15.230   6.175  16.081 -0.2516 -0.0847 -0.1572
 9576W        W29110  14.410   5.032   4.433  0.1533  0.0458 -0.4022
 9577W        W29111  13.935  11.980  15.445 -0.0200  0.0665  0.1404
 9578W        W29112   5.679   5.435   2.300 -0.0083 -0.4069  0.0860
 9579W        W29113  11.724   9.324   4.926  0.1689  0.0424 -0.0773
 9580W        W29114   4.605   2.713   4.722  0.1461  0.0141  0.1817
 9581W        W29115   2.004   3.367   4.952 -0.1634  0.1119 -0.1517
 9582W        W29116  14.739  16.713   2.778 -0.1762 -0.3617 -0.2609
 9583W        W29117   7.088   5.597   1.422  0.1804 -0.2997 -0.0068
 9584W        W29118   1.011   1.068  15.016  0.0905  0.0153  0.0642
 9585W        W29119   0.537   4.138   0.790  0.0538  0.0921  0.0950
 9586W        W29120  15.274   0.734  14.319  0.1950  0.0108  0.2207
 9587W        W29121  17.254  14.772  14.195  0.1418 -0.2007  0.1493
 9588W        W29122  13.916  15.834  12.882  0.2909  0.0056  0.0640
 9589W        W29123   5.571  14.245  12.507 -0.2517  0.0431  0.1932
 9590W        W29124   9.684  14.310   0.994 -0.0910  0.0799 -0.0336
 9591W        W29125  13.673  17.033   3.721 -0.0518 -0.0982 -0.1803
 9592W        W29126   8.428  17.134  14.571 -0.0123  0.4279 -0.1084
 9593W        W29127  12.182   7.846   2.906  0.2469 -0.0652  0.0582
 9594W        W29128   9.751  11.868  14.241  0.0641 -0.2675 -0.1285
 9595W        W29129  11.181   0.186  12.772 -0.0283 -0.1069 -0.0974
 9596W        W29130  12.945  14.444   0.991  0.2843  0.0193 -0.0316
 9597W        W29131  15.446  16.089  15.219 -0.2115  0.0925 -0.0148
 9598W        W29132  15.114   2.016  12.129  0.0452  0.5470 -0.1369
 9599W        W29133  14.893  12.128  14.713  0.1915 -0.3551 -0.0007
 9600W        W29134  11.964  15.788  11.950 -0.1130  0.0343 -0.2768
 9601W        W29135   4.332   8.128  15.624 -0.0097 -0.0995  0.1588
 9602W        W29136  16.474  13.449   1.168  0.1281  0.1745 -0.3373
 9603W        W29137  15.528   9.224   0.468 -0.0146  0.2842 -0.0679
 9604W        W29138   4.977   0.959   0.414  0.0449 -0.4031 -0.1437
 9605W        W29139  10.896  17.747  16.558  0.0259  0.3019 -0.1421
 9606W        W29140  12.922   8.639  13.527  0.1415  0.2304 -0.2698
 9607W        W29141   4.824   2.422   1.399 -0.0145  0.1813  0.0007
 9608W        W29142  10.678  10.929  15.426 -0.2014  0.2186  0.0258
 9609W        W29143   1.189   5.420  13.707  0.0993  0.0168  0.0269
 9610W        W29144  13.319  17.203  14.444 -0.0092 -0.2186 -0.2143
 9611W        W29145   2.991   1.689  12.433  0.1463  0.1112  0.0413
 9612W        W29146   4.484  11.023   3.122 -0.1115 -0.2544  0.2459
 9613W        W29147   4.390   1.242   3.344  0.1728 -0.1536  0.4130
 9614W        W29148  13.768  15.730   1.213 -0.1157 -0.0051  0.1824
 9615W        W29149   8.498   0.015  16.407  0.1991 -0.2106 -0.0717
 9616W        W29150   0.277   1.850   3.189 -0.0958  0.4822 -0.2574
 9617W        W29151   4.888  11.275   3.551 -0.1874  0.2182 -0.1074
 9618W        W29152  11.286   4.692   3.817  0.1038 -0.0560  0.2609
 9619W        W29153  16.565  15.268  13.872  0.0612  0.0144 -0.1342
 9620W        W29154   7.298  15.302  14.820 -0.1990 -0.2884  0.2973
 9621W        W29155  13.741  12.775  16.157 -0.1976  0.0657  0.3083
 9622W        W29156   2.209   3.687  15.416  0.1696 -0.3187  0.1653
 9623W        W29157  17.739   2.660   4.637 -0.0764 -0.1041  0.3367
 9624W        W29158   9.969   1.712   1.613 -0.0591  0.1151 -0.3803
 9625W        W29159   1.141   8.167   0.988 -0.0395  0.0639 -0.1851
 9626W        W29160   5.541  14.866   4.877 -0.0371  0.0218  0.3423
 9627W        W29161   3.216   5.176  13.488 -0.1385 -0.2468 -0.2419
 9628W        W29162  13.060  16.757   1.803 -0.2450 -0.1245 -0.2140
 9629W        W29163  12.776  14.619  16.061  0.0931  0.1352 -0.1357
 9630W        W29164   5.623   7.283  12.852 -0.2996  0.1047 -0.3002
 9631W        W29165  12.506  10.474   2.282 -0.1421  0.1637  0.3572
 9632W        W29166  13.957  11.367   1.563 -0.0735  0.0173 -0.3540
 9633W        W29167  11.007   5.475  14.032 -0.0864  0.1082  0.1482
 9634W        W29168   0.199   3.272   1.201  0.0869 -0.0773  0.1450
 9635W        W29169  14.802   2.235  14.236  0.0192 -0.2197  0.1877
 9636W        W29170  14.380  15.585  12.089 -0.0929  0.2428 -0.4698
 9637W        W29171   0.237  13.447  16.319 -0.2350  0.0045  0.0111
 9638W        W29172  10.914   1.874  16.471  0.1292 -0.1208  0.2479
 9639W        W29173   4.759   7.609  14.721 -0.1441  0.3351 -0.2802
 9640W        W29174  15.885   3.483  16.412 -0.2308 -0.2513 -0.2636
 9641W        W29175   9.732   9.803  16.488 -0.1174 -0.0015 -0.1441
 9642W        W29176   8.387  16.256  12.498  0.0000 -0.2751 -0.4202
 9643W        W29177   1.648   5.850  16.363 -0.1072 -0.0558  0.0444
 9644W        W29178   1.730  11.731  12.039 -0.0048 -0.1519 -0.0415
 9645W        W29179   3.841   9.563  13.790 -0.2392  0.0847 -0.0053
 9646W        W29180  15.213   5.681  16.371 -0.0720 -0.2830 -0.1838
 9647W        W29181   7.567   5.162  13.491  0.3206 -0.0286 -0.0640
 9648W        W29182   5.645   3.481   3.001 -0.2016  0.2224  0.2266
 9649W        W29183   1.064   4.217   0.489 -0.0674  0.1645 -0.5212
 9650W        W29184  13.990   6.908  12.161  0.1210  0.4970  0.0904
 9651W        W29185   5.641  11.201  13.750  0.0871  0.0276  0.1065
 9652W        W29186  15.790  17.022   2.809  0.0136  0.2003 -0.1899
 9653W        W29187   1.893  11.749  16.279 -0.0078 -0.0302 -0.0078
 9654W        W29188  14.597  16.326  12.387 -0.3132 -0.0622 -0.0176
 9655W        W29189   1.129  11.768  13.326  0.1435 -0.0218 -0.0307
 9656W        W29190   0.289  16.131   1.443  0.0937 -0.2914 -0.3083
 9657W        W29191   8.314  12.892   0.529  0.2677  0.1696 -0.1264
 9658W        W29192  15.346   8.332   2.496  0.0022 -0.0224 -0.1485
 9659W        W29193  13.683   8.088  16.104 -0.2767 -0.0697  0.1061
 9660W        W29194  17.279  12.301  14.962  0.0021  0.1658  0.1757
 9661W        W29195  17.558   6.925  16.419 -0.3126  0.0786 -0.2260
 9662W        W29196   2.946  14.964   0.034 -0.0559  0.0030  0.1150
 9663W        W29197   5.496   5.892  13.062  0.2792  0.1583  0.1208
 9664W        W29198   8.934   4.069  16.467 -0.0966  0.0784  0.0602
 9665W        W29199  12.030  11.619   2.584  0.1643  0.1303  0.0702
 9666W        W29200  11.240   8.127   3.560 -0.0199 -0.2749 -0.0423
 9667W        W29201  14.678  15.818  12.464 -0.0348  0.2357  0.0994
 9668W        W29202   7.135   2.334  11.754 -0.3074 -0.1074 -0.0985
 9669W        W29203   9.981   8.155   2.363 -0.3675  0.0084  0.1407
 9670W        W29204   7.384   0.193   1.030 -0.0325  0.1778 -0.4563
 9671W        W29205   5.446  11.204  13.294  0.0351 -0.1376  0.3406
 9672W        W29206   0.070   3.030  15.538 -0.1603 -0.1373  0.1020
 9673W        W29207  15.324  12.864  14.141 -0.0123  0.0795  0.0616
 9674W        W29208   5.945   3.718   5.575  0.2498 -0.3251  0.1921
 9675W        W29209   1.303   2.771  15.389  0.1135 -0.0664 -0.0165
 9676W        W29210   9.455  13.855  15.842  0.1868  0.1265  0.2382
 9677W        W29211   7.789   2.468   5.861  0.5454  0.0050 -0.2138
 9678W        W29212   8.221   5.506   3.054  0.0040 -0.1457 -0.3942
 9679W        W29213   8.105  10.375   3.475  0.1962 -0.2546 -0.1663
 9680W        W29214   7.736   4.761   1.903  0.2306  0.1011 -0.0064
 9681W        W29215   9.372  12.263  11.881  0.1287  0.1960  0.0410
 9682W        W29216   0.639  11.265   1.023 -0.0251 -0.1736  0.0959
 9683W        W29217  17.521   8.872   1.384  0.1558  0.0210  0.4028
 9684W        W29218   1.618   1.249   3.050 -0.0151  0.1172 -0.0697
 9685W        W29219  10.489   0.590   1.155 -0.0137 -0.0925 -0.0369
 9686W        W29220  12.660   1.200  16.601  0.0173 -0.1406 -0.2382
 9687W        W29221   8.167  10.972  14.681  0.0144  0.1192 -0.0261
 9688W        W29222   5.668   1.053   2.983 -0.1745  0.1064 -0.0333
 9689W        W29223   2.069   9.951   2.840  0.0277  0.1042  0.0146
 9690W        W29224  11.613   2.420  15.776 -0.2399 -0.1102 -0.1734
 9691W        W29225   3.550  15.107   4.001 -0.0125 -0.2556 -0.0124
 9692W        W29226  13.843  13.853  14.889  0.0873 -0.1957 -0.0314
 9693W        W29227   2.530  13.505   1.804  0.0530  0.5326  0.4299
 9694W        W29228  14.985   8.057   4.122 -0.3133 -0.3378 -0.1095
 9695W        W29229   3.106  12.329  14.167 -0.1880 -0.0590  0.1154
 9696W        W29230  12.429   4.331   2.509  0.0558  0.1650 -0.0186
 9697W        W29231  17.269   6.823   2.543 -0.1491  0.1269  0.0801
 9698W        W29232   2.144   2.697   0.759 -0.3193  0.1307 -0.2206
 9699W        W29233   3.024   1.483   5.105  0.1704  0.2660 -0.1373
 9700W        W29234  13.267   6.160   0.940  0.0939  0.3177 -0.1417
 9701W        W29235  16.611   4.719  14.039  0.0637 -0.0865 -0.1577
 9702W        W29236  13.484   4.301   1.594  0.0399  0.2841 -0.0957
 9703W        W29237   0.253   6.444  12.562 -0.1855 -0.1725  0.0366
 9704W        W29238  15.617   8.908  12.083  0.0467 -0.0977 -0.0611
 9705W        W29239  14.473   0.098  13.700 -0.1026  0.2535  0.0784
 9706W        W29240   5.084   0.350   0.608 -0.0007  0.1538  0.2894
 9707W        W29241   0.801   3.771  14.127  0.3558 -0.0985 -0.0630
 9708W        W29242  11.394   2.733   1.456  0.2498  0.0799 -0.2113
 9709W        W29243  15.893   4.801  14.935  0.2056  0.0868 -0.0320
 9710W        W29244   1.248   3.335   1.357 -0.0678 -0.0175 -0.0648
 9711W        W29245   0.047   3.493  15.643  0.2936 -0.0660 -0.2139
 9712W        W29246   7.879   3.370  12.658 -0.2134 -0.1767  0.0588
 9713W        W29247   7.572   7.223  11.473  0.0438  0.2226  0.1429
 9714W        W29248  11.524  12.287  12.625  0.1397 -0.3322 -0.2149
 9715W        W29249   0.549  15.011  14.638  0.2113 -0.1403 -0.1531
 9716W        W29250   4.737  15.455   3.872 -0.1748 -0.0058 -0.1185
 9717W        W29251  14.065   7.623  13.825 -0.2181  0.0250 -0.2560
 9718W        W29252  16.368   4.929  11.945 -0.2589 -0.1275 -0.0425
 9719W        W29253   2.514  12.412  13.255  0.0958  0.1228 -0.1368
 9720W        W29254   4.046   3.061  12.996  0.1537 -0.0310 -0.2505
 9721W        W29255   6.237   0.162  15.822  0.2334  0.2467 -0.3864
 9722W        W29256   9.276   4.876   5.168  0.0680 -0.0238  0.0975
 9723W        W29257   4.322  17.274   4.577  0.3448 -0.0878  0.0509
 9724W        W29258  15.710  17.611   0.009 -0.2317  0.3137  0.3426
 9725W        W29259   5.338  17.039   3.654  0.1972  0.0552  0.4444
 9726W        W29260   9.284  16.084   1.321 -0.1575  0.0132 -0.2376
 9727W        W29261   4.221  10.081  15.921  0.1673 -0.0712 -0.0385
 9728W        W29262   4.914   2.925  12.146 -0.0093  0.0010  0.0648
 9729W        W29263   8.868  10.974  11.836 -0.2243 -0.0916 -0.3253
 9730W        W29264   1.042  16.134   1.481 -0.1579 -0.0915  0.1582
 9731W        W29265  12.488  17.056  16.494  0.3813 -0.3970 -0.0233
 9732W        W29266   0.725   6.504   0.773 -0.1447  0.1691 -0.2279
 9733W        W29267  14.093   7.524   2.870 -0.1146 -0.0233  0.0080
 9734W        W29268  11.632  11.193   3.217 -0.2144 -0.0738  0.1483
 9735W        W29269  13.786   1.206  16.073  0.1252 -0.0667  0.0755
 9736W        W29270  15.148  12.452  15.420 -0.1402 -0.2192  0.3646
 9737W        W29271   1.282   4.440  14.498  0.0699 -0.0344 -0.0211
 9738W        W29272  14.496  16.622   0.418  0.0560  0.2527 -0.0445
 9739W        W29273  15.753   6.893  13.518 -0.1760  0.0543 -0.1924
 9740W        W29274  16.478   3.980  11.951  0.2738  0.2759  0.2056
 9741W        W29275   3.626  17.883   3.166  0.1785  0.1519  0.0647
 9742W        W29276   3.396   9.398   2.225  0.1868  0.0532 -0.2972
 9743W        W29277  12.327   9.334   1.932 -0.1937  0.0575 -0.4473
 9744W        W29278   4.745   3.299  16.446 -0.2140 -0.0292  0.0786
 9745W        W29279   3.413   3.052   2.091  0.0600  0.2890  0.0186
 9746W        W29280  15.058   5.678   4.699 -0.1084 -0.1331  0.0584
 9747W        W29281   2.897   9.662   4.578  0.1095 -0.1426 -0.0322
 9748W        W29282  13.048   4.192   0.621  0.0199  0.0594  0.0876
 9749W        W29283   6.048   0.737   4.563  0.1773 -0.0753 -0.1324
 9750W        W29284   3.412   4.101   1.352  0.0444 -0.0573  0.2814
 9751W        W29285   9.465   3.751   2.725 -0.2163 -0.1556  0.1844
 9752W        W29286  13.498  15.683  13.151 -0.1565  0.0208 -0.0100
 9753W        W29287   1.057   8.898  15.005 -0.2027 -0.4220  0.2357
 9754W        W29288  10.839   5.220  12.094  0.1713  0.0149 -0.0390
 9755W        W29289  13.368   6.782   1.554 -0.0329 -0.0599 -0.0080
 9756W        W29290  15.820  17.306  16.353 -0.2966  0.1528  0.3748
 9757W        W29291   2.640  13.821   4.106  0.0209 -0.0918  0.1804
 9758W        W29292   7.778   5.787  13.684 -0.1163 -0.1213 -0.3140
 9759W        W29293  16.790   3.199   1.844  0.0183 -0.0939  0.1969
 9760W        W29294   6.997   9.210  16.709 -0.0727 -0.0876 -0.0640
 9761W        W29295   2.594   4.475  13.888  0.3811 -0.1315 -0.0387
 9762W        W29296   9.458   1.955   0.455 -0.2089 -0.0187 -0.0939
 9763W        W29297   0.374  13.692  14.458  0.3084 -0.0757 -0.0636
 9764W        W29298   2.442   6.667  16.628 -0.1095  0.1921  0.2131
 9765W        W29299  16.489   1.097   0.091  0.0678  0.0327  0.2268
 9766W        W29300  10.682   5.116  11.618  0.0665 -0.2158 -0.0241
 9767W        W29301   0.658   9.082   2.747  0.1272  0.0730  0.1724
 9768W        W29302  12.411  14.810   2.741 -0.1115 -0.2699 -0.1079
 9769W        W29303  15.176   0.357  14.646 -0.1436  0.0708  0.1487
 9770W        W29304  12.357   1.981  15.233 -0.0485 -0.0455  0.0270
 9771W        W29305  13.302  14.477   2.937 -0.2399 -0.1480  0.2188
 9772W        W29306   7.859  11.076   1.511  0.2126  0.0161  0.2831
 9773W        W29307   7.543   5.445   3.663  0.0476  0.0954  0.0680
 9774W        W29308   4.975  13.302  13.148 -0.0711 -0.0461  0.1128
 9775W        W29309   8.909  13.128   2.540  0.0860  0.0195 -0.2168
 9776W        W29310   9.346   6.295   2.596 -0.0201  0.2113 -0.0732
 9777W        W29311  15.880  13.295  12.696 -0.0087  0.0020 -0.0647
 9778W        W29312  16.861  12.747  14.195  0.3146  0.0633  0.2479
 9779W        W29313  16.704  10.451   2.658  0.0569 -0.0210 -0.2703
 9780W        W29314   7.721  10.058   1.391 -0.0714 -0.0270  0.2844
 9781W        W29315   6.130   3.652   3.254  0.0075  0.0001 -0.2301
 9782W        W29316  12.658   4.418  13.534 -0.2203  0.1984  0.0743
 9783W        W29317   6.362  17.182  13.668 -0.0107  0.2903  0.0691
 9784W        W29318   2.359  15.268   2.403 -0.1947 -0.3792 -0.1096
 9785W        W29319  15.100   2.169   4.084 -0.0863  0.0973 -0.0779
 9786W        W29320  13.837  11.673   0.182  0.1933 -0.0265  0.1495
 9787W        W29321  11.277   1.530   2.622  0.0004 -0.0444  0.2052
 9788W        W29322   7.212   4.211  11.271  0.0455 -0.4552  0.1684
 9789W        W29323   1.441   8.363   1.369 -0.0935 -0.0147  0.3914
 9790W        W29324   9.672   2.323   0.245  0.0333  0.0472  0.1271
 9791W        W29325   1.563   8.277   2.295 -0.4554  0.0271 -0.1155
 9792W        W29326   0.745  14.759  15.471  0.1055  0.0911  0.1210
 9793W        W29327   2.695  17.825   3.113  0.2188 -0.0819 -0.4094
 9794W        W29328  10.583  15.262   2.745  0.0320  0.2300 -0.1648
 9795W        W29329   8.215  17.684   0.590  0.0072 -0.0667 -0.0660
 9796W        W29330  14.587  11.794  15.465 -0.0389 -0.2429 -0.0713
 9797W        W29331  15.572  13.648   2.985  0.1214 -0.0542  0.3584
 9798W        W29332   0.970  13.086  15.685  0.1594 -0.1559  0.0267
 9799W        W29333  10.601   4.495   2.188 -0.2554 -0.1360  0.1882
 9800W        W29334  16.644  12.563   2.402 -0.0518  0.0813 -0.2704
 9801W        W29335  14.916   0.577   3.911 -0.0135 -0.3649 -0.0932
 9802W        W29336  10.489   7.324   3.542  0.0666 -0.0350  0.2767
 9803W        W29337  16.046  12.790   4.504 -0.3041  0.0747 -0.0196
 9804W        W29338   9.466  15.901   2.296 -0.2584  0.1278 -0.1463
 9805W        W29339   5.290  10.376   5.162 -0.2143 -0.2434 -0.0768
 9806W        W29340  11.583  16.885  14.674 -0.0256  0.1091  0.2190
 9807W        W29341   8.869   8.256  12.175  0.0132 -0.0645  0.0690
 9808W        W29342  15.249  15.190   0.044  0.2112 -0.1087  0.1386
 9809W        W29343  14.632   1.250   2.614  0.0477 -0.0561 -0.1079
 9810W        W29344   6.632   3.145   2.658 -0.0172 -0.2033  0.1309
 9811W        W29345  11.204   0.684   1.423 -0.0654  0.3097  0.2623
 9812W        W29346  14.197  11.176  14.211 -0.3702  0.1246 -0.1036
 9813W        W29347   4.744  11.664  14.826  0.1952  0.0025 -0.1386
 9814W        W29348   2.527   2.959   1.037 -0.1077  0.1101 -0.0776
 9815W        W29349  15.297  13.907  14.233 -0.0447 -0.2093 -0.0619
 9816W        W29350   7.041  15.490  16.501  0.1759  0.4717 -0.2735
 9817W        W29351  15.937  11.382   4.011 -0.2101  0.3834 -0.2063
 9818W        W29352  14.830   4.267   4.377  0.0314  0.1118  0.0703
 9819W        W29353  17.119  16.872   1.639 -0.2377 -0.3605 -0.2115
 9820W        W29354   4.191   4.655  13.758  0.0449 -0.0391  0.0405
 9821W        W29355  13.220   9.781   1.060  0.0347 -0.1365 -0.2803
 9822W        W29356  12.073   7.787   2.016 -0.0333 -0.2643  0.5248
 9823W        W29357  14.866   1.916   3.703 -0.0628  0.1499 -0.1460
 9824W        W29358  14.698  17.270  13.118  0.0912  0.0050 -0.1119
 9825W        W29359   0.676  17.155  13.027  0.0826  0.0597 -0.1510
 9826W        W29360  12.999  11.486  12.660 -0.0172  0.1806 -0.2684
 9827W        W29361  16.944  16.184   4.372 -0.3288 -0.1519  0.0607
 9828W        W29362   2.998   9.119  12.573 -0.1445  0.4066  0.2904
 9829W        W29363   0.571  13.239   1.850 -0.2434  0.0633 -0.0755
 9830W        W29364  10.615  16.561  15.515 -0.1480 -0.1271  0.1825
 9831W        W29365  16.979  15.244  14.155 -0.0650  0.1919 -0.4071
 9832W        W29366   9.212   5.256   0.150  0.2120  0.2446 -0.2531
 9833W        W29367   1.627   5.392  14.889  0.2494  0.0512 -0.0322
 9834W        W29368  16.272   5.520   0.566  0.1325 -0.0769  0.2389
 9835W        W29369   6.988   1.822   1.186 -0.0271 -0.3636 -0.2478
 9836W        W29370   3.727  17.389  13.157 -0.2231 -0.0881  0.2009
 9837W        W29371   4.297   0.017   1.987 -0.1589 -0.0912 -0.1620
 9838W        W29372  10.141  10.794  13.882 -0.0310 -0.1864 -0.0708
 9839W        W29373   1.839  17.762  14.383  0.0201  0.2281  0.4266
 9840W        W29374  17.105  11.370  15.021 -0.0916  0.2308 -0.1254
 9841W        W29375   0.592   7.300  16.658  0.0993  0.1353  0.1651
 9842W        W29376   9.936  16.936   0.455  0.0207 -0.2732 -0.1004
 9843W        W29377   3.194   1.835  11.896 -0.1563 -0.3180 -0.0604
 9844W        W29378   2.505   0.832   0.572 -0.0679  0.1536  0.0565
 9845W        W29379  14.578   4.405  13.495  0.0300  0.2094 -0.0278
 9846W        W29380   8.435   1.859  12.974  0.3294  0.1969 -0.0737
 9847W        W29381   9.645   4.607  11.623  0.1372  0.1789  0.1993
 9848W        W29382  13.141   7.315  12.490  0.2266  0.0246  0.0611
 9849W        W29383   0.260  11.082  14.525 -0.0054  0.1926 -0.0183
 9850W        W29384  16.671  14.258   3.882 -0.0188  0.1912  0.1360
 9851W        W29385   7.691   1.471  15.579 -0.0370  0.0458 -0.0467
 9852W        W29386  13.491  17.819  16.296 -0.2208  0.0287 -0.0957
 9853W        W29387   5.700  17.202   4.339  0.0647  0.1888  0.1522
 9854W        W29388  16.846   7.318   0.231  0.1131  0.0204 -0.0242
 9855W        W29389  16.730  14.508   2.371 -0.1248 -0.4385 -0.2491
 9856W        W29390  14.269  11.616   2.601  0.2813 -0.0203 -0.0348
 9857W        W29391   3.785   1.233   2.648  0.0622  0.0675 -0.1077
 9858W        W29392   2.481   9.450  15.474  0.0069  0.0432 -0.2218
 9859W        W29393   8.891  17.275   0.686  0.2929 -0.2415  0.1283
 9860W        W29394   9.787   0.261  16.103 -0.1058 -0.0968  0.0419
 9861W        W29395  13.531  16.678  13.059  0.0089 -0.1431  0.1177
 9862W        W29396   8.841   6.553   2.877 -0.1171 -0.0220  0.1726
 9863W        W29397  15.125   1.134   2.605  0.0291 -0.1318 -0.1227
 9864W        W29398   6.064   6.910  15.049  0.0133 -0.0925 -0.2313
 9865W        W29399  17.830  11.739   0.575  0.2860  0.1976 -0.1122
 9866W        W29400   3.515   9.107  13.508 -0.2216 -0.1014 -0.1312
 9867W        W29401   8.983   3.873   3.559 -0.0152 -0.0787 -0.0568
 9868W        W29402  17.528   3.690  15.833 -0.0625  0.2590  0.0377
 9869W        W29403   6.595   4.971   0.422 -0.3043 -0.2548  0.0586
 9870W        W29404   8.289   4.213  12.213  0.3062 -0.0944  0.0059
 9871W        W29405   8.571   7.698   4.925  0.0105  0.3167 -0.0209
 9872W        W29406   1.962  10.042   3.744  0.3261  0.0517  0.1543
 9873W        W29407   1.368  17.876  14.506 -0.1063 -0.0351 -0.0709
 9874W        W29408  14.522  13.613   0.148 -0.0067  0.1853 -0.0646
 9875W        W29409  12.472  17.517  16.393  0.2868 -0.0392 -0.3520
 9876W        W29410  11.868  12.193  13.104 -0.0934  0.2598 -0.1104
 9877W        W29411  13.424  10.314   2.479  0.2708  0.0264  0.1006
 9878W        W29412  12.183   2.284  12.173  0.1661  0.2479 -0.0193
 9879W        W29413   8.694   1.027  13.216  0.0802 -0.3358 -0.0000
 9880W        W29414   7.139   8.429   1.795 -0.1077  0.1729 -0.0247
 9881W        W29415   7.741   8.190  16.448 -0.2318 -0.1829  0.0339
 9882W        W29416  11.811   1.892   3.750  0.0796 -0.1073 -0.1456
 9883W        W29417  16.269   6.525   1.955  0.2940 -0.1313 -0.1693
 9884W        W29418  16.680  10.741   1.355 -0.1538  0.2623 -0.1905
 9885W        W29419  11.779  14.114   5.063  0.0519  0.1502  0.1917
 9886W        W29420  11.332   1.009  12.692  0.0566  0.2588  0.0902
 9887W        W29421  13.488  16.947   2.885  0.3066 -0.2867  0.1701
 9888W        W29422  13.934   4.432   2.810 -0.2276  0.1765  0.0190
 9889W        W29423   1.723   0.326  14.565 -0.1255  0.2711 -0.0814
 9890W        W29424  16.202  16.493   1.025 -0.0942  0.2507 -0.2532
 9891W        W29425  14.974  10.867  16.507  0.1066 -0.2038  0.1200
 9892W        W29426  17.011   1.368  13.094 -0.0277 -0.0328 -0.0772
 9893W        W29427  11.569   0.138   3.280  0.1716  0.2624 -0.1287
 9894W        W29428  10.275   7.778  13.068  0.3287 -0.0689  0.0298
 9895W        W29429   0.920  12.258   4.451 -0.2275 -0.0070  0.0517
 9896W        W29430   7.094  12.540   4.372  0.2316  0.0485  0.1600
 9897W        W29431   3.990   6.511  13.002 -0.2508  0.0863 -0.2600
 9898W        W29432  14.443   9.012   4.220 -0.1473 -0.2836 -0.0434
 9899W        W29433   7.433   7.290  14.183 -0.0105  0.2359  0.1727
 9900W        W29434   1.926   3.970   4.809  0.0152 -0.3180  0.0252
 9901W        W29435   7.360   7.970   4.902 -0.1789 -0.1950  0.1754
 9902W        W29436   4.701  17.519   0.365  0.2285 -0.0308  0.0274
 9903W        W29437   7.090  12.312   3.953 -0.1373  0.1096 -0.1269
 9904W        W29438   7.867   7.310  13.968  0.1954 -0.0618 -0.2343
 9905W        W29439   8.230  10.081   3.972 -0.0049 -0.2635 -0.1070
 9906W        W29440  13.759   2.014  15.150 -0.1313  0.2186  0.1852
 9907W        W29441  16.962  11.187   1.447  0.1283 -0.2863  0.1748
 9908W        W29442  14.472   8.785   2.707 -0.1821 -0.0429  0.0843
 9909W        W29443   0.101  15.547  16.394 -0.1517  0.4496 -0.0160
 9910W        W29444  16.971   7.452  12.950 -0.0625  0.0895  0.1840
 9911W        W29445   4.287   3.745   5.350  0.2709  0.1246  0.1063
 9912W        W29446   0.577   5.602   4.202 -0.0040 -0.0180  0.1805
 9913W        W29447  17.149  14.241   3.578 -0.2569  0.1871 -0.3122
 9914W        W29448   6.674   3.632   3.418 -0.0687  0.2692  0.2902
 9915W        W29449  13.584   7.896   1.457 -0.1150 -0.0235  0.1420
 9916W        W29450   8.874   6.921   5.309 -0.1753  0.0221  0.1093
 9917W        W29451   8.362  10.581   4.960  0.1450  0.0758  0.3712
 9918W        W29452  13.472   2.186  12.712 -0.0546  0.0393  0.1523
 9919W        W29453   1.189  17.247  13.021 -0.1667 -0.1778  0.1328
 9920W        W29454   2.613   3.339   1.969 -0.1191 -0.3768 -0.3217
 9921W        W29455  10.949  11.152  13.680 -0.0982 -0.0814 -0.1419
 9922W        W29456   6.419   1.065  15.670 -0.1293  0.2459  0.0427
 9923W        W29457   1.874   7.149   1.624  0.2782 -0.0969 -0.0344
 9924W        W29458  16.486  15.357  13.354 -0.3428  0.0131 -0.1880
 9925W        W29459   7.923   6.387  14.996  0.1539  0.2512  0.0557
 9926W        W29460   3.115   7.498   1.503 -0.1073 -0.1685 -0.1305
 9927W        W29461   8.955   2.706   1.775  0.0097 -0.3725 -0.0797
 9928W        W29462   7.340   3.145  13.839  0.2038 -0.6078  0.3090
 9929W        W29463  15.554  11.266  14.464 -0.1893 -0.1438  0.1329
 9930W        W29464  12.374  12.433  16.562 -0.0964 -0.2225 -0.1164
 9931W        W29465   7.057  11.907   1.930 -0.0606  0.0069 -0.2693
 9932W        W29466   9.712  12.318   2.431 -0.0424  0.1123 -0.0997
 9933W        W29467   4.570  12.505  16.466 -0.2425 -0.0236 -0.0822
 9934W        W29468  16.541  11.298  14.456 -0.2902 -0.0443  0.2254
 9935W        W29469   2.893  16.250   2.164  0.1555  0.1681  0.1680
 9936W        W29470  11.443   6.221  15.652  0.1897 -0.1203 -0.0732
 9937W        W29471  11.536  15.605   2.067  0.2238  0.1990 -0.2514
 9938W        W29472  12.880  11.659  13.600 -0.0914 -0.2495  0.1328
 9939W        W29473  17.029  14.629   3.921 -0.0197 -0.0034  0.2368
 9940W        W29474  11.425   0.566  14.418  0.1944  0.2084 -0.1058
 9941W        W29475   8.014  11.638  12.243  0.0536 -0.0154 -0.1154
 9942W        W29476  10.637   8.528  15.524  0.1367 -0.0100  0.1330
 9943W        W29477   4.416  17.199  16.325 -0.1799 -0.0932 -0.1346
 9944W        W29478  16.843  13.781  15.597  0.1760 -0.2781 -0.0659
 9945W        W29479   6.961   2.675   6.375 -0.2854  0.0550  0.0813
 9946W        W29480   9.861   4.571   2.952  0.0981 -0.0967 -0.0666
 9947W        W29481   7.286   7.476  12.014  0.3024  0.3512 -0.2597
 9948W        W29482  13.099   9.009  16.321 -0.3293  0.2244 -0.0038
 9949W        W29483   3.056  15.247   1.664  0.0259 -0.0959 -0.3576
 9950W        W29484   5.670   2.129  15.681  0.1677  0.0395 -0.2913
 9951W        W29485   9.956  15.287  12.950 -0.0071  0.2618 -0.0270
 9952W        W29486   5.854   3.198  15.970  0.0607  0.2334 -0.0200
 9953W        W29487  13.879   3.435   2.982 -0.0357 -0.0583  0.0377
 9954W        W29488  11.852  13.880  16.576 -0.2224 -0.1049 -0.0538
 9955W        W29489   9.453   1.111  15.893  0.2622 -0.0225 -0.0398
 9956W        W29490  13.888  14.356   4.639  0.2504 -0.0458 -0.2172
 9957W        W29491  16.408  12.175  16.578  0.2147  0.1710  0.0073
 9958W        W29492   9.656   8.870  15.482  0.2504  0.1331  0.1686
 9959W        W29493   2.890   9.818  14.071  0.1561 -0.3325 -0.0814
 9960W        W29494   4.606  11.873   1.024  0.2098 -0.0616  0.0987
 9961W        W29495   3.690  16.974  12.800  0.1814  0.0639  0.1037
 9962W        W29496  12.257   2.681   4.435  0.3992 -0.0642 -0.1317
 9963W        W29497  16.924  13.746  14.152  0.3953  0.4513  0.3730
 9964W        W29498  10.336   3.088  12.424  0.0828 -0.2159 -0.0331
 9965W        W29499   2.139  16.249  12.230 -0.2427 -0.0950  0.0066
 9966W        W29500  11.314   3.451  16.382  0.2708  0.0601  0.4080
 9967W        W29501   2.590  11.314  14.828  0.0991  0.0419  0.1836
 9968W        W29502  15.012  11.533  15.730 -0.0149  0.1464  0.1829
 9969W        W29503  16.384   5.689   3.827  0.2061  0.1141 -0.0324
 9970W        W29504   8.086   6.694   1.443  0.2489 -0.0095  0.3996
 9971W        W29505   3.519   4.126  15.549  0.0888 -0.1067  0.2886
 9972W        W29506   8.930   6.073   2.771 -0.0998  0.1201  0.0091
 9973W        W29507  10.640   5.738   0.161 -0.0534  0.1866  0.1367
 9974W        W29508   4.935  12.289   2.095 -0.0974 -0.1658  0.2631
 9975W        W29509  12.161  17.902  12.522 -0.0882  0.0030 -0.1754
 9976W        W29510   9.362  17.275  15.769  0.2483  0.2589  0.3570
 9977W        W29511  10.448   3.997   1.926  0.2278  0.0809 -0.0997
 9978W        W29512   6.156   9.564   1.970 -0.1547  0.0527 -0.2880
 9979W        W29513  10.330  11.315  13.718  0.1446  0.0411 -0.1069
 9980W        W29514   3.860   3.077   3.799 -0.3600  0.0980 -0.1732
 9981W        W29515   7.424   5.529  12.485 -0.1270  0.2255 -0.1163
 9982W        W29516   6.328   8.915   4.746 -0.0080 -0.2362 -0.4431
 9983W        W29517  14.944   8.781  16.698 -0.1352  0.0031  0.0061
 9984W        W29518  12.829   0.018  14.452 -0.0311 -0.0377 -0.2028
 9985W        W29519   6.925   1.431  16.254 -0.0479 -0.2824 -0.0155
 9986W        W29520  14.932   2.162  13.334 -0.1922 -0.4082  0.0516
 9987W        W29521   0.740   2.649   0.197 -0.1851  0.0753 -0.0690
 9988W        W29522   4.531  14.920  14.811 -0.1046 -0.1497  0.1714
 9989W        W29523  13.432   4.413  15.619  0.1861 -0.2485 -0.0016
 9990W        W29524   9.436   4.028   1.755  0.1044  0.0107 -0.3335
 9991W        W29525   1.050   8.792  16.725  0.1333  0.0528  0.1437
 9992W        W29526  12.801   0.523   1.670 -0.0641 -0.0435 -0.3681
 9993W        W29527   5.888  12.031  16.519 -0.0161 -0.1128  0.0781
 9994W        W29528  10.182  12.823   4.297 -0.2292  0.0924 -0.0006
 9995W        W29529   6.080  15.925  15.499  0.2141  0.1034 -0.3620
 9996W        W29530  15.057   8.519   1.384  0.1144  0.0718 -0.0962
 9997W        W29531  14.301  15.458   3.152 -0.0932 -0.1644  0.2085
 9998W        W29532   9.124  15.878   0.898 -0.2175  0.2393 -0.1717
 9999W        W29533   6.206   9.820   4.805 -0.2298 -0.0654  0.2635
10000W        W29534   1.063   1.864  13.540 -0.0026  0.2354  0.1069
10001W        W29535   7.085   7.526   2.768 -0.2026  0.0856  0.1174
10002W        W29536  15.356  16.422  15.617  0.2599 -0.2494  0.1652
10003W        W29537   2.677   6.240   1.395 -0.1093  0.0491 -0.0169
10004W        W29538   2.690   4.638  14.601 -0.1413 -0.0326  0.0074
10005W        W29539   2.342   8.116  12.397  0.2522  0.1406 -0.0724
10006W        W29540  17.312  14.676  15.630 -0.0542  0.4432 -0.0532
10007W        W29541   8.832  17.191   3.885 -0.0639  0.0856 -0.1781
10008W        W29542  12.568   2.018  13.790 -0.4335 -0.1726  0.0606
10009W        W29543   0.129   9.272  14.153  0.0092 -0.2018  0.4964
10010W        W29544   6.971   7.553  13.349  0.0416 -0.1908 -0.1421
10011W        W29545  13.979  11.883   1.485  0.0494  0.2330 -0.2057
10012W        W29546  16.396   3.961  14.635 -0.1191  0.2199 -0.1999
10013W        W29547   9.109   1.665  12.624  0.2377  0.0957 -0.0019
10014W        W29548   8.981   6.989  14.599  0.1372 -0.1672 -0.0703
10015W        W29549  13.659   9.875   2.632  0.0833  0.4393 -0.1957
10016W        W29550  11.839  11.241  15.967  0.0173 -0.2510  0.2632
10017W        W29551  11.556  11.199   4.539 -0.1723 -0.2730  0.0998
10018W        W29552  16.602  12.959  16.266  0.1110  0.0114  0.0798
10019W        W29553   1.284   9.159  15.372 -0.2808 -0.2477  0.1481
10020W        W29554   5.172   6.343  12.935  0.1138  0.2027  0.0136
10021W        W29555  10.938  13.483  14.109  0.3204  0.0852  0.2165
10022W        W29556   1.586  14.150   4.693  0.1081  0.0573  0.1934
10023W        W29557   9.216   5.397  13.719 -0.0723  0.0338  0.1009
10024W        W29558   4.512   7.389   3.631 -0.0536 -0.0295  0.0833
10025W        W29559   9.357   5.734  15.884 -0.3058 -0.0389 -0.0985
10026W        W29560  15.838  12.777   2.485 -0.0823 -0.0414 -0.1276
10027W        W29561  10.896   7.129   1.937 -0.1312  0.0748 -0.2493
10028W        W29562   3.106   3.156  15.423  0.0180  0.1340 -0.1073
10029W        W29563   9.859   5.412   4.446 -0.1811 -0.4522 -0.3209
10030W        W29564  10.326   7.971   0.903  0.2096  0.1489 -0.1360
10031W        W29565   3.992   0.123  12.800  0.1068 -0.0837 -0.2116
10032W        W29566  15.367   8.853   1.188 -0.2287 -0.1779 -0.0709
10033W        W29567   8.231   2.500  16.723 -0.1166  0.0961  0.0413
10034W        W29568   1.348   0.975  13.655  0.1145 -0.0269 -0.2637
10035W        W29569   1.261  16.734   2.563  0.1619 -0.0869 -0.0863
10036W        W29570   8.413   7.094   0.302 -0.0198  0.2443 -0.1691
10037W        W29571  14.665   2.713   5.277 -0.0708 -0.1113 -0.2118
10038W        W29572  16.203  14.160   1.888 -0.0644 -0.0419  0.2546
10039W        W29573  16.269  12.786   2.174 -0.0150 -0.2474  0.1557
10040W        W29574  17.147   1.602  16.381  0.0110  0.0441  0.1162
10041W        W29575  17.351   9.968  13.775  0.0057 -0.1288  0.0400
10042W        W29576   1.920  11.847  13.668  0.2539 -0.0505  0.3472
10043W        W29577   1.767   4.747  11.199  0.1505  0.0436 -0.3100
10044W        W29578   4.258  11.075   1.460 -0.1197 -0.1202 -0.0482
10045W        W29579  13.133  17.328   1.972 -0.1323 -0.2177 -0.3492
10046W        W29580  11.596  11.406  12.358  0.2743 -0.0285  0.1151
10047W        W29581  15.532  13.249  12.293 -0.0511  0.0615 -0.1820
10048W        W29582  17.691   0.787   1.614  0.2778  0.0823  0.3394
10049W        W29583  13.694  17.313   0.134 -0.2146  0.2864 -0.1783
10050W        W29584   3.825  14.378  14.884 -0.0749 -0.0166 -0.0138
10051W        W29585   4.417   6.806  13.074 -0.1189 -0.1037  0.1796
10052W        W29586  17.667  14.382  14.480  0.0441 -0.1677 -0.2286
10053W        W29587   2.713  17.033  15.532  0.1320 -0.2193  0.3445
10054W        W29588   1.974   0.972   0.212 -0.2777 -0.0511 -0.1007
10055W        W29589   0.359   9.594  13.864  0.2198  0.2149  0.0460
10056W        W29590   9.325   7.482  10.517  0.0390 -0.3134 -0.2139
10057W        W29591   3.593  10.395   3.729  0.3209  0.0719  0.2877
10058W        W29592  17.613  15.465  13.645 -0.1272 -0.0465 -0.2926
10059W        W29593   0.267  15.985  11.074 -0.2433 -0.3174  0.1133
10060W        W29594  14.417   7.263  14.209 -0.1572 -0.1314 -0.1706
10061W        W29595   0.284   3.502  16.123  0.1617 -0.0816 -0.0482
10062W        W29596   7.031   2.142   4.293  0.0752  0.1539 -0.2697
10063W        W29597   5.724  15.667   0.594 -0.2274 -0.1341  0.1169
10064W        W29598  15.042  10.572   3.857 -0.0643  0.2701  0.0658
10065W        W29599   5.767   0.830   0.736 -0.2086  0.0501  0.2438
10066W        W29600   0.839   0.523  14.183  0.0838  0.1431 -0.1390
10067W        W29601  12.906  13.908   0.904 -0.0332  0.1073 -0.0404
10068W        W29602   8.949   3.326   1.080 -0.2077 -0.1781 -0.0575
10069W        W29603  10.181  10.076  16.528  0.3418 -0.0981  0.1388
10070W        W29604  13.065   3.055   0.784 -0.0728 -0.2417 -0.0464
10071W        W29605  13.743  13.124  12.127  0.1412 -0.0275  0.2298
10072W        W29606  16.458  10.845  16.104  0.1450  0.0363 -0.0303
10073W        W29607   9.403   6.822   1.870  0.1495 -0.0097  0.1523
10074W        W29608   2.294   6.054   1.952 -0.1155  0.1251 -0.3389
10075W        W29609   8.690   5.498  13.516 -0.4859  0.0235  0.1247
10076W        W29610  12.763  10.127  13.591 -0.0628  0.0164 -0.0697
10077W        W29611   0.214  10.250   1.500 -0.1063  0.1627 -0.2922
10078W        W29612   0.109   1.498  13.661  0.0454 -0.0804  0.1157
10079W        W29613   7.626  16.246   0.937  0.3770  0.0861 -0.0212
10080W        W29614  13.999  12.293   2.195  0.0401  0.0446  0.1041
10081W        W29615   7.390   8.888   2.767  0.1510 -0.0648  0.1350
10082W        W29616   2.056   2.002  14.074  0.2063  0.0960 -0.1098
10083W        W29617   9.459   1.821  16.403 -0.3613 -0.1908 -0.0117
10084W        W29618  10.168   2.253  12.196  0.0122  0.0312 -0.1587
10085W        W29619  11.167   7.518  11.815  0.0967 -0.1846  0.0984
10086W        W29620   6.034  17.655  14.691 -0.2338 -0.0209  0.1500
10087W        W29621  10.721   3.437  12.555 -0.0513  0.1035 -0.0812
10088W        W29622  17.430  10.605   4.010 -0.0684 -0.3946 -0.1309
10089W        W29623  11.259  12.690   3.251 -0.0768 -0.1056 -0.1787
10090W        W29624  13.999  13.848   0.993 -0.2889 -0.0869  0.0524
10091W        W29625   5.801   3.274   5.924  0.4134 -0.0351 -0.0730
10092W        W29626   1.896  16.922  14.908  0.1106 -0.1700 -0.2406
10093W        W29627  10.078   1.679  15.753 -0.1059 -0.0343  0.0865
10094W        W29628   2.190  12.572  12.479  0.0323 -0.3866 -0.0179
10095W        W29629   7.872   7.928   2.265 -0.3297  0.3579  0.3625
10096W        W29630   0.479  13.336   0.950  0.1726 -0.4088 -0.2787
10097W        W29631   3.633   5.983   2.994  0.0094  0.1105  0.0839
10098W        W29632   0.215  12.463   1.905  0.1860  0.1976 -0.2304
10099W        W29633  12.128   1.059  14.759  0.1319  0.3670  0.0381
10100W        W29634  15.441   4.817   4.433  0.0059 -0.1096  0.1222
10101W        W29635   7.328  16.825  13.515 -0.1336 -0.0933 -0.1420
10102W        W29636   5.436  13.179  13.811  0.2009 -0.0974  0.0279
10103W        W29637  11.355  13.331  13.113 -0.1092  0.1130 -0.0121
10104W        W29638   9.107  11.447   1.409 -0.0834  0.1595  0.1564
10105W        W29639  15.193   2.269  12.592 -0.1919 -0.1410  0.3992
10106W        W29640   1.239   7.661   1.818 -0.0817 -0.1118 -0.0239
10107W        W29641   7.282  11.045  12.519  0.2321 -0.0573 -0.0313
10108W        W29642   9.143   1.025  12.572 -0.1827  0.2963 -0.1810
10109W        W29643  16.800   5.890  13.480 -0.1740  0.0538 -0.0455
10110W        W29644   2.250   3.857  13.518  0.0220 -0.2429  0.1030
10111W        W29645  11.833  11.296   1.639 -0.2119  0.3332  0.1452
10112W        W29646  10.290   0.053  12.463 -0.0405 -0.0644  0.1770
10113W        W29647   7.240   9.512  16.356  0.1233  0.0154  0.3477
10114W        W29648   2.322  13.488  16.524  0.1530 -0.2033  0.0603
10115W        W29649  12.997  17.682  15.256  0.3555 -0.2250  0.3298
10116W        W29650  16.534   5.632  12.576  0.0828  0.0360 -0.0204
10117W        W29651   1.294  14.186   3.839  0.1395  0.3296 -0.0998
10118W        W29652   9.378   6.938   5.034 -0.0445 -0.1331  0.6381
10119W        W29653  12.347  10.849  14.163  0.0196  0.6607  0.0975
10120W        W29654   4.026  14.711  13.982 -0.0632 -0.0611 -0.1679
10121W        W29655   4.804   2.311   5.469 -0.0304 -0.0726  0.0837
10122W        W29656   9.859  16.284  14.274  0.0816 -0.0700  0.0885
10123W        W29657  12.445   1.619   1.039 -0.0267 -0.1425 -0.1867
10124W        W29658   4.595  17.571  15.329 -0.1393 -0.0534  0.0060
10125W        W29659   2.622   4.871   2.587  0.2743 -0.4333 -0.0464
10126W        W29660   1.192  11.207  14.706 -0.0044  0.2038  0.2420
10127W        W29661   2.244   0.020  14.075  0.1951 -0.0369  0.2395
10128W        W29662   7.108   7.181  14.582  0.2707 -0.1571  0.3327
10129W        W29663  13.800   2.868   4.459 -0.2308 -0.1098  0.1371
10130W        W29664   2.179   3.727  12.988 -0.2535  0.1391 -0.0721
10131W        W29665   0.603   3.318   5.309  0.1467  0.2233 -0.1439
10132W        W29666  12.681   5.968   4.629 -0.0955  0.0278  0.3180
10133W        W29667   8.658  13.934   2.883  0.0863  0.0495 -0.2336
10134W        W29668   6.226  12.338   4.705 -0.1986 -0.1404  0.1675
10135W        W29669   4.758  12.479   5.080  0.2957  0.0122 -0.1779
10136W        W29670  17.296  14.446  16.484 -0.1644  0.2612  0.0093
10137W        W29671   4.727  12.773   0.562  0.3898 -0.1096  0.0221
10138W        W29672   5.894  11.408  13.157  0.3050 -0.0797 -0.1546
10139W        W29673  14.095   0.823   0.311  0.2573  0.2394  0.1924
10140W        W29674   6.680  16.364  16.324 -0.1187  0.0654  0.3441
10141W        W29675   6.072   3.405  15.166 -0.1378  0.0533 -0.2453
10142W        W29676   7.806   9.213   0.623 -0.0734 -0.1894  0.1111
10143W        W29677   8.120   8.786   4.116 -0.3612  0.1755 -0.0459
10144W        W29678   0.201   9.781  12.272  0.0483 -0.1218 -0.2152
10145W        W29679   5.511  12.176  13.583 -0.1951  0.0313 -0.2017
10146W        W29680   7.914   3.279  12.163 -0.3776  0.1016 -0.4199
10147W        W29681   3.370   8.562   2.707 -0.0677  0.1413  0.0256
10148W        W29682   4.257  13.438   4.626  0.5753 -0.1082 -0.2730
10149W        W29683   3.404   9.935   3.630  0.1985 -0.0490  0.2631
10150W        W29684  16.401   3.079   5.071 -0.2517  0.1144  0.1125
10151W        W29685   7.045   1.702   4.091  0.1468  0.1782 -0.4148
10152W        W29686  14.610  15.175   2.713 -0.0909  0.0960  0.1244
10153W        W29687   6.170   4.719  11.514 -0.0720  0.0036 -0.3057
10154W        W29688  15.039   4.862   0.978  0.0890 -0.3829 -0.0794
10155W        W29689   1.690   3.418   4.140  0.2584 -0.0427 -0.1247
10156W        W29690   9.573   3.933   3.700 -0.1807 -0.0314 -0.0782
10157W        W29691   0.270   5.837  12.730 -0.4122 -0.0850  0.1604
10158W        W29692   5.746  10.732  13.991  0.1229 -0.1808 -0.1942
10159W        W29693  16.357  15.722  13.866  0.0366  0.3223  0.0686
10160W        W29694   8.063   7.395  11.377  0.1945  0.1570 -0.1603
10161W        W29695   7.318   7.884  13.507 -0.1059 -0.1278 -0.2946
10162W        W29696   0.775  15.268   3.462  0.1382 -0.1255  0.0519
10163W        W29697  17.890   1.773  12.538  0.0901 -0.2391  0.1670
10164W        W29698   9.097   8.265   2.164 -0.2485  0.0760  0.2328
10165W        W29699  10.536   9.413   0.378  0.0478 -0.0967  0.1074
10166W        W29700  11.391  14.923  14.088 -0.1268  0.1980 -0.2312
10167W        W29701  16.730   6.303  12.160  0.0370 -0.1830 -0.0606
10168W        W29702   8.848  16.777   3.119  0.2308 -0.0998  0.2537
10169W        W29703   8.193   9.428   5.230 -0.3033 -0.1549 -0.3571
10170W        W29704   7.863  17.396   0.332 -0.1500 -0.1347 -0.1406
10171W        W29705   5.360   0.185   0.084 -0.0713 -0.3042 -0.2428
10172W        W29706   1.236   9.483   2.194 -0.0287 -0.0234 -0.0911
10173W        W29707   6.000  15.341  16.191 -0.1745 -0.2485  0.1667
10174W        W29708  15.632  11.697   0.928 -0.0103 -0.0260 -0.0199
10175W        W29709   2.372   9.868  12.607  0.0169  0.1515 -0.0118
10176W        W29710  17.847   6.110   0.552 -0.1563  0.1101 -0.3383
10177W        W29711  13.030   5.942  13.813 -0.2090  0.2012  0.0305
10178W        W29712   5.061  11.669  13.550 -0.1685 -0.3998  0.0435
10179W        W29713  13.367  12.097  14.798  0.2153  0.1349  0.0657
10180W        W29714   8.788  16.359   4.911 -0.1843  0.1111 -0.0271
10181W        W29715   7.566   1.078  12.349  0.0486  0.0538 -0.1446
10182W        W29716   6.556  16.342  13.836 -0.1060  0.1875 -0.1635
10183W        W29717   0.843  17.513  13.892  0.1549 -0.0998 -0.0350
10184W        W29718   9.270  12.564  14.807 -0.0928 -0.0881  0.3238
10185W        W29719   9.625   0.165   2.836  0.2126  0.1918  0.0780
10186W        W29720  10.447  12.652  11.896 -0.1445  0.1971 -0.1648
10187W        W29721  17.136   4.972  12.539  0.1879  0.0252  0.0127
10188W        W29722   2.323  10.568   3.456 -0.4236 -0.0235  0.1520
10189W        W29723  16.175   7.825  12.837 -0.0405  0.1272 -0.3641
10190W        W29724   7.252  17.736  13.854 -0.0656 -0.0663 -0.1714
10191W        W29725   5.042  15.553  13.513 -0.0528 -0.0129  0.4653
10192W        W29726  15.521   5.555   2.230 -0.2810  0.0326 -0.1912
10193W        W29727  12.809  10.121   1.960 -0.1260  0.0022  0.2559
10194W        W29728   0.398   7.331  15.065  0.0998  0.0090 -0.3142
10195W        W29729  14.331   3.993  12.264 -0.1059  0.0126 -0.0128
10196W        W29730  16.708   5.623  16.120  0.2237  0.0027  0.0032
10197W        W29731   6.502   5.376   3.294 -0.1951 -0.1158 -0.1979
10198W        W29732  12.144  17.382   0.770  0.0255  0.1772  0.1180
10199W        W29733   0.196  11.180  16.461 -0.0136  0.1077  0.1612
10200W        W29734   9.615   6.577  16.644 -0.0744 -0.1088 -0.3754
10201W        W29735   5.227   6.013  15.320  0.1380  0.0911 -0.2443
10202W        W29736   0.008   8.500   1.582  0.1354  0.4108  0.2443
10203W        W29737  17.214   2.212  16.438 -0.1096 -0.2575  0.2011
10204W        W29738   4.647   2.975   2.161  0.3995  0.5363  0.6376
10205W        W29739   4.574  10.159   2.778 -0.1255 -0.0455 -0.0560
10206W        W29740   8.979  13.672   0.629  0.2661 -0.1294 -0.2516
10207W        W29741  15.388  17.606  16.261 -0.0083 -0.3673 -0.2549
10208W        W29742   5.369  11.327   3.464  0.1102 -0.1106  0.1185
10209W        W29743   2.247   8.038  14.081 -0.0539  0.1486 -0.2729
10210W        W29744   2.437   8.542  13.795 -0.0762  0.0844  0.0308
10211W        W29745  13.945  10.195   0.646  0.0880  0.0215 -0.2979
10212W        W29746   2.384   1.911   4.063  0.0228 -0.0624  0.3791
10213W        W29747   8.833   2.363  14.625 -0.0714  0.3172 -0.2341
10214W        W29748  13.808   3.397   1.308  0.1829  0.2213  0.1202
10215W        W29749  15.894  17.775   1.766  0.0573 -0.0583 -0.1123
10216W        W29750  15.944  12.415  13.610 -0.4648 -0.0027 -0.1264
10217W        W29751  17.336   3.471   1.936  0.0029  0.3215 -0.0259
10218W        W29752  12.097   4.290   0.507 -0.2731 -0.1370 -0.1530
10219W        W29753  11.258   2.646   0.931  0.3329 -0.0310 -0.0835
10220W        W29754   9.010   8.016   2.643  0.2367  0.0964 -0.0594
10221W        W29755  15.817  14.125  14.958 -0.0311 -0.0510  0.1751
10222W        W29756  14.593   5.480  12.469  0.1179 -0.2334 -0.1889
10223W        W29757   9.677  14.333  15.368 -0.1687  0.0497 -0.1454
10224W        W29758  14.277   4.806  15.996  0.0723 -0.0499  0.0530
10225W        W29759   4.529   5.726   1.323  0.2475  0.0608  0.0001
10226W        W29760   0.499   4.930   2.221 -0.0765 -0.1620  0.0096
10227W        W29761   3.140  13.460   3.791  0.0340  0.0305  0.3679
10228W        W29762   4.169   1.154  12.830 -0.3138 -0.0319 -0.0050
10229W        W29763   2.204   3.113   3.114  0.3604  0.2766  0.0684
10230W        W29764   5.181  13.116   1.606 -0.1965  0.2210  0.2199
10231W        W29765   2.989   0.100  13.279  0.0555  0.1061  0.2516
10232W        W29766   5.111  11.655  15.180 -0.2370 -0.1444  0.1116
10233W        W29767   7.018  16.814   4.433 -0.1016  0.2873 -0.0572
10234W        W29768   2.556   2.028   0.745 -0.1380  0.2047  0.1130
10235W        W29769  14.904   5.417  11.957 -0.2938 -0.0149 -0.3920
10236W        W29770   4.966  15.214  11.897  0.2058 -0.1105 -0.2338
10237W        W29771  11.366  17.129  12.884 -0.0047  0.1668  0.1362
10238W        W29772  15.313  11.277  16.656  0.1342  0.0332  0.3207
10239W        W29773   3.579   1.476   2.224  0.2084  0.1584 -0.1302
10240W        W29774   2.249   0.630   0.947 -0.2821 -0.4018 -0.0283
10241W        W29775   1.547   6.258  14.235  0.1712 -0.1150 -0.2960
10242W        W29776   1.371  12.530   3.472  0.3875  0.0505 -0.0470
10243W        W29777  17.377  13.255  15.899  0.2029  0.1159  0.1186
10244W        W29778   4.801   0.547   0.199  0.2254  0.1035  0.2408
10245W        W29779  15.091   2.806  12.585  0.1599  0.1557  0.3322
10246W        W29780  14.554  10.527  13.747 -0.1895 -0.0971  0.0835
10247W        W29781  13.054  16.492   3.641  0.0063 -0.0716 -0.1475
10248W        W29782   3.656   3.086  14.570 -0.1053 -0.0626 -0.0264
10249W        W29783   3.626   6.899  16.030 -0.2616 -0.0001  0.0061
10250W        W29784   6.232  12.118   5.282  0.0621  0.1174  0.1664
10251W        W29785   5.447   4.355   0.249 -0.1316 -0.1236 -0.1377
10252W        W29786   8.868   3.955   2.597  0.0429 -0.1254  0.1188
10253W        W29787  11.010   4.404  15.223  0.0186 -0.0520  0.0950
10254W        W29788  15.812   5.096   2.120  0.0187 -0.0208  0.1565
10255W        W29789  10.910   4.283  14.668 -0.1350  0.1957  0.0330
10256W        W29790  16.961  10.916  15.299  0.1544  0.0339 -0.1360
10257W        W29791  11.437  11.045   1.429 -0.0108 -0.0313 -0.2833
10258W        W29792   0.676  11.283   1.966  0.0194 -0.0344  0.0193
10259W        W29793   9.272  11.193   4.165 -0.2049  0.2416 -0.3022
10260W        W29794  12.982   6.287  14.229 -0.3325  0.2383  0.4364
10261W        W29795   9.173   5.219  14.213 -0.2696  0.1068  0.2091
10262W        W29796   9.949  11.186  12.175  0.1123  0.0513 -0.2152
10263W        W29797   5.409   6.922   3.070 -0.0961  0.1232 -0.1175
10264W        W29798   4.757   5.183  11.529  0.3087 -0.2086 -0.0470
10265W        W29799   6.640  11.409   4.877  0.0703  0.2706 -0.4201
10266W        W29800   3.231  16.527  15.041  0.0565 -0.0669  0.2522
10267W        W29801  13.518   6.136  12.610  0.0686  0.0940  0.0318
10268W        W29802   4.880   4.588  11.606 -0.2003 -0.0044 -0.0234
10269W        W29803  17.829   3.198  15.101 -0.1032  0.4196  0.0486
10270W        W29804   2.490   5.233   1.421  0.1204 -0.1562  0.0442
10271W        W29805   0.951   3.953   5.749 -0.1697 -0.2437 -0.1828
10272W        W29806  11.208   4.023  12.501 -0.0970  0.0487 -0.4801
10273W        W29807  12.040  17.125  16.592 -0.3490  0.1563 -0.0187
10274W        W29808  11.108  10.195   2.443 -0.0801 -0.0122  0.1239
10275W        W29809   2.609   9.358  13.513 -0.0620 -0.1850  0.0912
10276W        W29810   2.081  14.806   0.016  0.4196 -0.2501  0.0832
10277W        W29811   0.818  17.302   4.545  0.0850 -0.2014  0.1179
10278W        W29812   5.803  17.727  13.239 -0.3207 -0.1010  0.0939
10279W        W29813   1.223   2.807  16.683  0.0554 -0.0861 -0.1529
10280W        W29814   2.006   5.147   3.317 -0.2094 -0.3379 -0.1131
10281W        W29815   5.187  10.815  14.871 -0.1117  0.3116 -0.1323
10282W        W29816   5.459  12.732  15.221  0.3985 -0.0087  0.2119
10283W        W29817   8.596  14.148  14.971 -0.0339 -0.0524 -0.3019
10284W        W29818  14.143  11.985  12.813 -0.2539  0.1358 -0.4407
10285W        W29819   2.704   1.271   2.429  0.2978  0.0226  0.0681
10286W        W29820   6.270  17.313   0.451  0.2477  0.2479 -0.3647
10287W        W29821   6.231  16.199   1.198 -0.0497 -0.3383 -0.0037
10288W        W29822  12.634   0.571   3.093  0.1915  0.2954  0.1068
10289W        W29823  16.359  12.411   2.846  0.1137  0.2516 -0.0159
10290W        W29824   4.189  12.624  14.914 -0.1008  0.0180  0.2545
10291W        W29825  15.416  16.833  16.186 -0.3924  0.1531 -0.1219
10292W        W29826   8.859  14.807   3.871 -0.1980 -0.3281 -0.1794
10293W        W29827  12.009  16.568  16.089  0.1561  0.0515 -0.1514
10294W        W29828  11.779   5.603   2.208  0.0243  0.1830 -0.1968
10295W        W29829   6.931   5.611  13.703  0.1005 -0.0827  0.3414
10296W        W29830  15.021  11.155   2.264 -0.1978 -0.0884  0.2148
10297W        W29831   6.995  13.383   2.532 -0.1085 -0.0787  0.0440
10298W        W29832   8.928  15.272  12.106 -0.0114 -0.3992  0.0113
10299W        W29833   6.054  10.652  12.986  0.5691  0.3402  0.2233
10300W        W29834   1.276  11.694   0.578  0.0317  0.2451  0.1164
10301W        W29835  14.042  17.837  12.571  0.2798  0.2310 -0.2412
10302W        W29836  11.804   3.087   2.849 -0.2161 -0.0360  0.0411
10303W        W29837  13.202   5.601   0.774  0.0889 -0.1416 -0.0819
10304W        W29838   5.080  17.025  13.901  0.0326  0.0489 -0.2398
10305W        W29839  15.538  13.745   2.506 -0.0377 -0.1284 -0.0369
10306W        W29840   5.049  11.383   2.024  0.1071  0.0673 -0.0184
10307W        W29841   7.100   1.517   0.825 -0.1480 -0.0633  0.1089
10308W        W29842  10.663  16.482   2.202 -0.2516  0.0773  0.0198
10309W        W29843  16.945   7.034  15.941  0.2853 -0.0391  0.3173
10310W        W29844   1.174   9.559  16.097 -0.2168 -0.1569  0.0961
10311W        W29845  17.620   2.300   0.002 -0.0310  0.1469  0.4839
10312W        W29846  14.895   2.287  16.359 -0.2656  0.1708  0.0932
10313W        W29847  11.796   3.608   4.700  0.2606  0.2593 -0.0723
10314W        W29848   7.364   9.219  12.210  0.4925  0.3830 -0.0562
10315W        W29849  12.706  17.403   3.295  0.0118 -0.0764  0.1735
10316W        W29850  14.163   3.463  13.868 -0.2078  0.1223 -0.1817
10317W        W29851  15.329   8.613   2.012  0.1731  0.3030 -0.0350
10318W        W29852   4.196  16.923  12.536  0.1709  0.1281 -0.2717
10319W        W29853  16.217  15.304   0.993  0.1331  0.1637  0.1296
10320W        W29854  10.876  16.244   0.986  0.2130 -0.0049 -0.2898
10321W        W29855  13.631  12.060  11.668  0.3823 -0.1666  0.2321
10322W        W29856  11.504  12.769  15.165 -0.0280 -0.3071 -0.2167
10323W        W29857   3.535  16.331   5.598 -0.1223 -0.2091 -0.3012
10324W        W29858   5.519  14.129   3.867  0.0333 -0.1945  0.2205
10325W        W29859   4.667  17.564   1.248 -0.3601 -0.2089  0.2539
10326W        W29860   2.384  16.012  13.075  0.0808  0.1277  0.0127
10327W        W29861  11.345  12.857  16.260 -0.1308 -0.1699 -0.1670
10328W        W29862   6.990  16.033   2.770 -0.0644 -0.1064  0.0305
10329W        W29863   4.230  16.416  15.363 -0.0034 -0.3667 -0.2050
10330W        W29864   0.759  11.128  11.920  0.2362 -0.1050 -0.0044
10331W        W29865  14.192  13.312   0.894  0.1448 -0.2785 -0.2350
10332W        W29866  16.224   5.108   0.906  0.1186 -0.0973 -0.0071
10333W        W29867  10.529   6.543  11.954 -0.3564  0.0352  0.1007
10334W        W29868  14.588  11.244  15.981 -0.1675 -0.1665  0.1313
10335W        W29869  17.077  11.734   4.588  0.1659  0.1657 -0.1499
10336W        W29870   1.395  14.226  15.378 -0.0701  0.1895 -0.0345
10337W        W29871   7.309   5.889   0.290  0.0755 -0.1196 -0.0839
10338W        W29872   9.275  14.242  15.596  0.0277  0.1226  0.1624
10339W        W29873   0.355   8.954   3.774  0.1200  0.2018  0.2820
10340W        W29874   4.185   3.959  16.432 -0.0964 -0.0284 -0.0619
10341W        W29875   9.795   8.657  14.550  0.0318  0.2593  0.0313
10342W        W29876   9.499  12.402   1.118  0.0462  0.0312  0.0699
10343W        W29877  16.114  10.102   0.092 -0.2012  0.0350 -0.3324
10344W        W29878  13.441   2.606   2.565  0.2723 -0.1184  0.1119
10345W        W29879   4.640   6.587  13.623  0.0417 -0.1209  0.1172
10346W        W29880   4.581   8.469  12.104  0.0286 -0.1683  0.2781
10347W        W29881   7.086   2.871  15.803 -0.2875  0.1342  0.1413
10348W        W29882  17.249   3.043   4.886  0.0968 -0.0264 -0.1114
10349W        W29883   0.701   4.112  11.909 -0.0625 -0.2501  0.3189
10350W        W29884  11.430  16.950   1.057 -0.3123 -0.0075  0.2726
10351W        W29885   5.743   6.798  14.638 -0.1566  0.0035  0.1936
10352W        W29886  17.423   4.372  13.378 -0.1024 -0.1641  0.0212
10353W        W29887  11.739   8.777  12.989  0.0113  0.1163 -0.0372
10354W        W29888   8.145   9.780  16.046  0.3917  0.1713  0.0444
10355W        W29889  10.713   7.937   5.292  0.0806 -0.0939 -0.1124
10356W        W29890  10.801   3.280  13.004 -0.4264 -0.1091 -0.1540
10357W        W29891  11.852  14.351   2.398 -0.0755  0.1982 -0.1018
10358W        W29892  12.472  11.694   4.683 -0.1297 -0.1486  0.1296
10359W        W29893   1.209   9.895  14.865  0.0914  0.2737 -0.1987
10360W        W29894   8.648   1.318   3.997  0.0901 -0.1075 -0.0493
10361W        W29895   2.637   8.565  11.952 -0.2999  0.0910 -0.1644
10362W        W29896   8.256   6.996  12.984  0.3016  0.0990 -0.1746
10363W        W29897   7.237   2.210  12.337 -0.0983  0.0202 -0.1108
10364W        W29898  13.830  16.646  13.462 -0.0609 -0.4091 -0.3326
10365W        W29899   7.252   3.321  13.157 -0.3250  0.2195 -0.1980
10366W        W29900  13.223  15.941   1.209  0.0079 -0.1520 -0.3247
10367W        W29901  13.017   9.088  15.461  0.0580  0.0797  0.1153
10368W        W29902  15.587  11.655   0.256  0.1313 -0.1720  0.0008
10369W        W29903   2.627  14.112  13.962 -0.2045  0.0349 -0.0827
10370W        W29904  10.156   8.782   4.329  0.0964  0.1221  0.0630
10371W        W29905   7.899   7.056   1.085 -0.3119  0.5153 -0.1342
10372W        W29906  12.349   1.819   1.459  0.1449 -0.0363 -0.2040
10373W        W29907  11.608   2.575  13.842  0.0703 -0.1152 -0.1728
10374W        W29908  13.794  11.785   0.648  0.3885  0.1075  0.0396
10375W        W29909  15.738   4.396  10.803 -0.0745  0.1007  0.0778
10376W        W29910   5.706   6.016   3.288  0.0949  0.2262  0.1605
10377W        W29911   7.708  17.114  15.919  0.0319  0.0914 -0.1285
10378W        W29912   2.207  11.531   4.182 -0.2607 -0.0370  0.0255
10379W        W29913  14.531  10.222  15.161 -0.1213 -0.1355 -0.2048
10380W        W29914   7.682  12.783  16.528 -0.0834  0.1099  0.2722
10381W        W29915   1.500   3.871  15.493  0.0176  0.0984  0.0246
10382W        W29916  14.106   4.604   0.739  0.0590  0.0896 -0.2851
10383W        W29917  15.347   1.515  11.803  0.0664  0.4063 -0.0657
10384W        W29918   2.467  16.458  13.346 -0.0007 -0.3790  0.1196
10385W        W29919   8.930  11.498  15.581 -0.1584 -0.0574  0.0666
10386W        W29920   3.947   0.735   4.293  0.1217 -0.1849  0.1478
10387W        W29921  15.093   0.270  15.148 -0.0229  0.0365 -0.2139
10388W        W29922  13.975  15.759  13.404  0.2268  0.1166  0.0778
10389W        W29923   5.158   0.071  14.776  0.1612 -0.1085 -0.2540
10390W        W29924   0.306  13.370   3.126  0.0685 -0.0047  0.3302
10391W        W29925   9.238  16.821   0.680 -0.1195 -0.0048 -0.1649
10392W        W29926   9.076   6.537   1.103  0.2132 -0.0190  0.0268
10393W        W29927  17.499  15.067   2.184  0.1460  0.2505  0.2145
10394W        W29928  16.365   9.673   1.093 -0.2613 -0.1407 -0.1214
10395W        W29929   9.521   6.655   2.332 -0.0555  0.0810 -0.0769
10396W        W29930  14.563  15.704   0.596 -0.0435 -0.1493  0.1424
10397W        W29931   6.285  15.197   2.089 -0.2059 -0.2068  0.1027
10398W        W29932   9.095   2.954   4.992 -0.0020 -0.0015 -0.1092
10399W        W29933   3.816   2.152  14.555 -0.0245  0.2696 -0.0121
10400W        W29934   2.437   2.887   1.735 -0.2374  0.3187 -0.1731
10401W        W29935   6.092   5.478  14.514 -0.1815 -0.2374  0.0337
10402W        W29936  17.866   5.856   3.396  0.0255  0.1825  0.0001
10403W        W29937  12.296   9.236   3.053  0.1879 -0.2524 -0.0796
10404W        W29938   7.765   8.571   4.848 -0.2388 -0.1516  0.2348
10405W        W29939   6.203   6.914  15.976  0.1841  0.4180  0.1136
10406W        W29940   1.943  16.836   3.323  0.0135 -0.4834  0.1097
10407W        W29941   4.387   5.924   3.125 -0.2932 -0.3839 -0.2561
10408W        W29942   9.275  11.767  12.029 -0.0215 -0.0150 -0.1250
10409W        W29943   9.098   2.324   3.397 -0.1423 -0.3250  0.0896
10410W        W29944   3.938   2.817  12.474  0.2218 -0.3160 -0.3658
10411W        W29945  11.041  13.807   2.825  0.2226 -0.1833 -0.0208
10412W        W29946  14.039  12.545  14.377 -0.0087 -0.2940 -0.0419
10413W        W29947   8.130  10.189   1.966 -0.2804  0.0792  0.1515
10414W        W29948  15.766   7.010   3.501 -0.0282  0.0162  0.1657
10415W        W29949   7.675   5.088   1.076 -0.2272  0.2383  0.2653
10416W        W29950   3.686  14.795   2.383  0.3719 -0.1466  0.0574
10417W        W29951   8.328  15.293   2.081 -0.1595 -0.0943 -0.0026
10418W        W29952  14.148   7.292   3.315  0.2298  0.5451  0.1654
10419W        W29953   5.180  13.842  14.180  0.1004 -0.0761  0.0969
10420W        W29954   5.177   2.462   5.822 -0.0746  0.4068 -0.1120
10421W        W29955   1.230  13.522   0.911 -0.0434  0.3001  0.2092
10422W        W29956  17.874  15.263   3.133  0.0149  0.4511 -0.0120
10423W        W29957   4.520   7.489   2.583 -0.1215 -0.0094  0.1407
10424W        W29958   4.462   5.543   0.451 -0.0321  0.2243  0.0633
10425W        W29959  10.814   2.675   2.614 -0.1580 -0.3341 -0.5724
10426W        W29960   1.323  10.636  13.295 -0.1461  0.2212  0.0563
10427W        W29961   6.166   9.326  16.086 -0.1147  0.3457  0.0123
10428W        W29962  17.827   1.292  12.531  0.2646  0.0039  0.0816
10429W        W29963  11.303  17.006  13.688  0.0049  0.3298  0.1384
10430W        W29964   0.384   3.458  13.950  0.1723  0.1101  0.2472
10431W        W29965   6.908   1.014  13.237 -0.1503 -0.0249  0.0410
10432W        W29966   4.284   4.098   3.973 -0.0903 -0.2287  0.0605
10433W        W29967  10.151   4.266  13.228 -0.1395  0.0935  0.0674
10434W        W29968   0.819   6.723  13.447 -0.2689  0.1870 -0.0462
10435W        W29969  12.026   7.432  16.529 -0.1410  0.0299 -0.0838
10436W        W29970   2.584   6.699   1.554 -0.0660  0.0973 -0.0832
10437W        W29971  14.712   1.457  16.542 -0.0812  0.0027  0.0954
10438W        W29972   0.781  17.248  12.531  0.0953 -0.1267 -0.0223
10439W        W29973   8.038  11.156   0.230 -0.0226 -0.0089 -0.3143
10440W        W29974   5.673  10.243   1.204 -0.2593 -0.0279  0.0022
10441W        W29975   9.384  14.259  14.151  0.2365  0.1482  0.0360
10442W        W29976  14.046   3.112  11.775 -0.1618  0.1892 -0.0322
10443W        W29977  14.043   8.704  13.372  0.2483  0.3070 -0.0341
10444W        W29978   2.200   2.860   2.700 -0.0972 -0.0247 -0.0308
10445W        W29979   2.560   1.075  15.460  0.0155 -0.2422  0.3697
10446W        W29980   4.746  16.927  14.588 -0.0325 -0.1756 -0.2268
10447W        W29981   9.115  17.718   2.935  0.0425 -0.0615 -0.2285
10448W        W29982  16.733  12.713  15.838 -0.0800  0.0478 -0.1829
10449W        W29983   1.436   4.474   0.714 -0.0433  0.0390 -0.0029
10450W        W29984   5.778  10.635  11.225  0.0035  0.0934  0.1172
10451W        W29985   1.605  15.599   4.991 -0.1500  0.1720  0.1456
10452W        W29986  15.410  13.856   1.947 -0.0163 -0.1756  0.1963
10453W        W29987  16.540  11.208   1.144  0.0844  0.3186 -0.2049
10454W        W29988  14.076   3.676  15.308  0.0149  0.1640  0.0591
10455W        W29989  15.509  17.087   2.433 -0.1055 -0.2942 -0.2612
10456W        W29990   4.628   8.369  16.604 -0.1614  0.0366  0.0393
10457W        W29991   7.977   1.665  13.180  0.1551  0.1331  0.0116
10458W        W29992  11.621   7.626  11.739  0.2485 -0.2064 -0.2135
10459W        W29993   7.190   3.306  11.775  0.0481 -0.0302 -0.0934
10460W        W29994  11.958  17.667   1.148 -0.1457 -0.1286 -0.0340
10461W        W29995  17.831  17.204  15.710 -0.3040 -0.3726 -0.0351
10462W        W29996  15.318  16.733  12.263 -0.3562  0.1390 -0.0417
10463W        W29997   0.714   8.071  11.922 -0.0195 -0.1541  0.0273
10464W        W29998   3.721   8.642  13.625  0.0867 -0.0604  0.0120
10465W        W29999  14.626  11.786  15.977 -0.1302  0.2116 -0.1848
10466W        W30000  11.797   3.224  12.541  0.3479  0.0502 -0.0751
10467W        W30001  11.493   3.618  12.653  0.1323 -0.1074 -0.2200
10468W        W30002  16.202  11.607   1.057 -0.3390 -0.1166 -0.1485
10469W        W30003   3.856  10.410  12.814 -0.0473  0.0209 -0.2847
10470W        W30004   7.703   9.206  16.525  0.1637 -0.0609  0.2084
10471W        W30005  13.348   3.303  16.586 -0.2318 -0.2313  0.4459
10472W        W30006  13.082   6.554  15.589  0.2228  0.1248 -0.0556
10473W        W30007   7.943   6.889  11.419 -0.0000 -0.1828 -0.0401
10474W        W30008  11.950   5.140   3.203  0.0523  0.1811  0.4000
10475W        W30009   0.617  12.320   3.020  0.1915 -0.0830 -0.0810
10476W        W30010   2.675  12.689   2.854  0.0016 -0.6426 -0.0698
10477W        W30011   7.286  11.032   4.188 -0.0641 -0.1592  0.2601
10478W        W30012  10.900   6.340  15.336  0.0637  0.3660 -0.0494
10479W        W30013  12.297  10.674  14.901  0.2521 -0.1727 -0.0524
10480W        W30014   3.636  14.891  14.900  0.1775 -0.0643  0.0358
10481W        W30015   6.020  15.094  15.072  0.0888  0.0436  0.0840
10482W        W30016   5.152   6.682   2.358 -0.1108 -0.1438  0.0516
10483W        W30017   0.232  14.974  15.519 -0.4505  0.0441  0.0177
10484W        W30018   2.094  16.721   4.496  0.0563  0.0870 -0.0021
10485W        W30019   9.360   8.421  14.753  0.3413 -0.2498  0.3242
10486W        W30020  12.318   6.346   4.255  0.2125  0.0301 -0.4456
10487W        W30021  15.123   2.028  14.543  0.1421 -0.1623  0.3680
10488W        W30022  15.156  17.214  12.094  0.1529  0.1487  0.2057
10489W        W30023   7.953   0.318  16.281  0.0235  0.3272  0.2911
10490W        W30024  17.189  12.316   1.367  0.4024  0.3579 -0.0952
10491W        W30025  12.544   6.288   3.283  0.0419  0.1361 -0.0966
10492W        W30026   6.416   1.206   2.557  0.4017 -0.0483  0.0075
10493W        W30027  12.113   5.582  15.624 -0.0266 -0.1162 -0.0078
10494W        W30028  13.055   5.936   2.133  0.2394 -0.1490  0.0370
10495W        W30029  17.366  15.049  13.786  0.0789  0.1218 -0.1580
10496W        W30030  13.861   7.071  13.969 -0.0498 -0.1132  0.0782
10497W        W30031  14.194   8.440   3.063 -0.0107 -0.1397 -0.1161
10498W        W30032  17.890  14.105   0.648 -0.2852  0.0109 -0.4366
10499W        W30033  10.120   2.165  15.406  0.4539 -0.0527  0.1428
10500W        W30034  15.241   5.456   0.027 -0.0929 -0.1648  0.0608
10501W        W30035   7.520   3.888  16.173  0.2152 -0.1690 -0.1679
10502W        W30036  10.801   2.398  11.457  0.0219 -0.0048 -0.2245
10503W        W30037  13.305   1.642  16.022  0.1498  0.1446 -0.0915
10504W        W30038   5.538   2.936   1.713 -0.0258  0.2595  0.2242
10505W        W30039   6.603  11.543  11.916 -0.1634  0.0046 -0.1756
10506W        W30040  16.866  10.545   0.967  0.2887 -0.0574  0.1576
10507W        W30041   1.815  12.005   2.868  0.2967  0.2695  0.2107
10508W        W30042  14.049   3.925  14.670 -0.1937 -0.1715 -0.0122
10509W        W30043  13.496   7.015   1.152 -0.1258  0.0925  0.2689
10510W        W30044   7.344   9.923   0.952 -0.1288 -0.1383 -0.0868
10511W        W30045  15.376   5.611   4.027 -0.0609  0.0148  0.2971
10512W        W30046   7.504   3.338   5.519 -0.0844  0.0036  0.3772
10513W        W30047  12.876   8.594   3.932  0.2544  0.2556  0.0495
10514W        W30048   2.531  16.741   3.400 -0.2774 -0.1551  0.2346
10515W        W30049   5.495  11.680   2.734  0.0323  0.1588  0.1162
10516W        W30050   4.086  13.227   2.903 -0.2138  0.0825 -0.0917
10517W        W30051  13.862   0.041   2.996 -0.2382 -0.5901 -0.1039
10518W        W30052   2.269   8.045  13.563  0.3323 -0.2647  0.0151
10519W        W30053  10.364  10.008   3.708  0.1347  0.0469  0.2602
10520W        W30054   4.354   1.943   2.527  0.0375  0.2120 -0.0984
10521W        W30055   1.447   5.709   3.235  0.2965  0.1053  0.0718
10522W        W30056   5.728  15.213   1.822 -0.0650 -0.1032  0.0828
10523W        W30057   7.608   7.274  15.080 -0.2165  0.2230  0.1491
10524W        W30058   4.406   6.054  14.425  0.1282 -0.0890 -0.0163
10525W        W30059  15.223   0.706  16.290  0.0005 -0.2149  0.0101
10526W        W30060   2.589   6.412  14.750  0.2387 -0.2970 -0.1411
10527W        W30061  17.639   9.749   0.294 -0.0971  0.0642  0.1404
10528W        W30062   5.766   7.319   0.839  0.1791 -0.0407 -0.0508
10529W        W30063   2.480   0.434  14.141 -0.4304  0.3376  0.2929
10530W        W30064   9.472   5.095   0.983  0.2329  0.3464 -0.0557
10531W        W30065   5.736   4.146  12.918 -0.0369  0.3364 -0.2575
10532W        W30066  10.317   6.906  13.555  0.1391 -0.0294  0.2085
10533W        W30067  14.224   9.937  13.806 -0.1865  0.0974 -0.0055
10534W        W30068  12.047   4.029   3.676 -0.1227  0.1306  0.1145
10535W        W30069  14.793   2.736   1.941 -0.1568  0.0651  0.0171
10536W        W30070   6.281   6.035  11.830  0.1298 -0.0470  0.3897
10537W        W30071   2.706  15.536   2.987 -0.2541 -0.0415 -0.1786
10538W        W30072  13.716   8.908  14.708 -0.2744  0.0105 -0.1373
10539W        W30073   9.605   9.879   0.617  0.1049  0.2399  0.2080
10540W        W30074   3.900   3.924   3.734  0.2251 -0.1979 -0.0111
10541W        W30075   5.606  17.270   1.653 -0.0635 -0.1299  0.1356
10542W        W30076  12.993  10.612   2.133 -0.0275 -0.2190 -0.1319
10543W        W30077  10.997   1.304  12.899  0.0444  0.0621 -0.1521
10544W        W30078  12.547   8.258   3.684 -0.0863 -0.1939 -0.0399
10545W        W30079  14.249  16.906   1.527 -0.3379 -0.0746 -0.0496
10546W        W30080   9.411   3.888  12.649 -0.0305 -0.1463  0.1388
10547W        W30081  13.789   4.217   1.952  0.2309 -0.2567 -0.0534
10548W        W30082  16.658  10.741  16.594  0.2046 -0.1297 -0.1055
10549W        W30083  15.332   4.087   3.253  0.1371 -0.0340  0.3120
10550W        W30084  14.186  10.840  13.767  0.1124  0.0523 -0.4932
10551W        W30085   8.545  16.975   3.492  0.0459 -0.3006 -0.4318
10552W        W30086   8.938   2.199  16.208  0.2347  0.1653 -0.0446
10553W        W30087  16.672   8.624   1.125  0.0239  0.0388 -0.2085
10554W        W30088   0.101   4.120   4.969 -0.0559  0.0920 -0.3013
10555W        W30089   8.999  14.454   5.151  0.2430  0.0730  0.2114
10556W        W30090  13.411  15.349  12.276 -0.1759 -0.2939  0.1000
10557W        W30091  15.431  12.191   3.642 -0.1290  0.1666  0.0462
10558W        W30092   2.981   4.353   1.799 -0.1656 -0.0198 -0.1342
10559W        W30093   3.117  10.673  13.254  0.0979  0.1063  0.1574
10560W        W30094  13.123  14.061  16.022 -0.1508  0.3490 -0.3491
10561W        W30095   7.971   6.350  14.302 -0.2838  0.3842 -0.1831
10562W        W30096  15.263  10.520  15.174  0.1741  0.1828  0.0070
10563W        W30097   5.142   4.057  16.705  0.2155 -0.0151 -0.0276
10564W        W30098   3.474   6.350   4.092  0.1670 -0.0427  0.0081
10565W        W30099  17.656   8.143  15.749  0.1066 -0.2201 -0.2297
10566W        W30100  12.182  10.321   3.895 -0.5300  0.2487  0.1314
10567W        W30101  13.503  10.525  16.632 -0.1383 -0.2860  0.2049
10568W        W30102  11.345   8.645   3.749  0.0964  0.0477  0.0556
10569W        W30103   7.107  14.887   1.541  0.1064  0.2427  0.0483
10570W        W30104  12.348  14.862   3.845 -0.2488 -0.1018  0.3198
10571W        W30105   4.459  16.965  15.370 -0.0807 -0.1014  0.0510
10572W        W30106   1.968  15.742  12.749 -0.1415  0.2355  0.0771
10573W        W30107   9.131   1.841  15.794  0.0293  0.2077  0.0951
10574W        W30108   2.513   7.784   3.725  0.1262  0.1736  0.2055
10575W        W30109   8.281  17.137   4.716  0.1741 -0.0779  0.0118
10576W        W30110   0.776  11.854   3.722 -0.1490 -0.2899  0.0080
10577W        W30111   1.818  15.665   1.188 -0.1590 -0.1658 -0.0246
10578W        W30112  16.024   2.522   0.698 -0.3181 -0.3490 -0.2549
10579W        W30113   7.813  11.289   3.372  0.1044 -0.1843  0.0459
10580W        W30114  14.817  14.104   4.808  0.0663  0.0218  0.3120
10581W        W30115   3.432  17.594   4.462 -0.1746  0.1181 -0.3230
10582W        W30116  10.423  13.154   1.746 -0.1046 -0.1200  0.1246
10583W        W30117   5.574  14.656   2.478  0.0293  0.0881 -0.1077
10584W        W30118   5.896   1.651   4.634 -0.0693  0.0832  0.0314
10585W        W30119   7.980  13.750  16.379 -0.0147 -0.2947 -0.2801
10586W        W30120   6.940  12.278  13.323  0.0674 -0.0487  0.4104
10587W        W30121   9.931  12.185   1.967  0.0217 -0.0035 -0.2110
10588W        W30122   2.802   4.263   4.134  0.1082 -0.0456 -0.0335
10589W        W30123  12.957  17.323  13.163  0.2137  0.4002  0.0597
10590W        W30124   0.196  10.300   2.834 -0.2612 -0.0558 -0.1901
10591W        W30125   9.825   7.762  14.017 -0.3024  0.0177 -0.3082
10592W        W30126   0.941   5.959   3.948 -0.1503  0.1031  0.3928
10593W        W30127  13.289  13.664  13.757 -0.0908  0.1130 -0.0231
10594W        W30128   2.106   0.509  15.879 -0.1230  0.0948 -0.1218
10595W        W30129   3.103  17.233   0.561 -0.1376  0.1671  0.0233
10596W        W30130   6.943   6.599   3.779 -0.3812 -0.2259  0.0563
10597W        W30131   8.970  12.340   0.924  0.0834  0.4877 -0.0752
10598W        W30132  17.191   0.650  12.371 -0.2158  0.2592 -0.3271
10599W        W30133   9.913   5.323  10.944  0.3185 -0.1288  0.1099
10600W        W30134  13.478   9.033   0.617 -0.3939 -0.1551 -0.1281
10601W        W30135  14.225  10.565  13.364  0.5781  0.0563  0.0602
10602W        W30136   3.943   2.705   0.899 -0.1573 -0.1851  0.2377
10603W        W30137   6.619  15.327   2.444  0.0753  0.0169 -0.0471
10604W        W30138   0.596  15.508  15.745 -0.3716  0.0460 -0.0405
10605W        W30139   0.769   9.770   3.076 -0.3409  0.0040  0.0567
10606W        W30140  10.518  15.828  12.114 -0.1170  0.0971  0.1146
10607W        W30141   2.681  10.384   4.163 -0.0604  0.2306 -0.1616
10608W        W30142  13.237  15.438   2.841  0.2220 -0.2103 -0.3466
10609W        W30143  17.499   5.388   0.536  0.1947  0.0125 -0.2299
10610W        W30144  16.885   1.155   0.531  0.2538  0.1062 -0.0133
10611W        W30145  10.056  11.973  15.732 -0.1954  0.1349 -0.4027
10612W        W30146   6.632   2.491   5.178  0.1175  0.1796 -0.0961
10613W        W30147  17.391  13.735   4.464 -0.1026 -0.2986 -0.1664
10614W        W30148   7.490   4.530  12.680 -0.1005  0.1811 -0.0614
10615W        W30149  14.415   2.813  14.831 -0.2511  0.2960 -0.1379
10616W        W30150   4.594  10.844  12.378  0.1154  0.2659 -0.2417
10617W        W30151  14.105   9.829  14.716 -0.1032 -0.0805 -0.1926
10618W        W30152  10.526  10.379  15.627 -0.1004 -0.0550 -0.2680
10619W        W30153  13.672   0.274   0.765  0.3694  0.2559 -0.0094
10620W        W30154  15.842   6.397  12.285  0.0278  0.1218 -0.2492
10621W        W30155   1.326  17.135  13.815  0.2047 -0.6819 -0.0155
10622W        W30156   8.541  10.578   0.475  0.1664 -0.0256  0.1321
10623W        W30157  17.443   0.117  14.240 -0.2139  0.2118 -0.0570
10624W        W30158   4.995  11.245  15.850 -0.3605 -0.0922  0.2003
10625W        W30159  11.403  12.501  14.062 -0.3140 -0.0844  0.0882
10626W        W30160   2.814   6.976   0.944  0.0052  0.3092 -0.0603
10627W        W30161  16.716   1.926   1.835  0.1287 -0.0071 -0.1879
10628W        W30162  14.905   1.742  14.194  0.3822  0.0225 -0.1438
10629W        W30163   7.240   9.641  12.502 -0.2154  0.0315 -0.1017
10630W        W30164   0.510   5.401  13.637  0.0379  0.0310 -0.1900
10631W        W30165  12.095   7.491  13.217 -0.1185  0.0791 -0.1635
10632W        W30166  10.133  10.702  12.435 -0.1152 -0.0526  0.0431
10633W        W30167   1.528  16.219   4.440  0.2048 -0.2328 -0.0833
10634W        W30168   6.735   2.188   6.661  0.0414 -0.2453  0.1884
10635W        W30169  14.815  16.813  12.289  0.2455  0.3676  0.0104
10636W        W30170  16.879   9.255   1.598 -0.1917  0.0485  0.2159
10637W        W30171  14.156  13.390   4.165 -0.2204 -0.0338 -0.0904
10638W        W30172  16.944   8.370   1.842 -0.0212  0.1919  0.2432
10639W        W30173   1.532  14.715   0.230  0.1405  0.0635 -0.1579
10640W        W30174   3.535  12.742   3.115  0.1843 -0.1262 -0.2058
10641W        W30175   2.478   8.090  11.863 -0.6545  0.1249  0.3115
10642W        W30176  17.125   0.402   2.950  0.1703  0.0917 -0.3811
10643W        W30177  14.251   3.355   3.697 -0.1603 -0.0448 -0.0460
10644W        W30178   6.343  14.719  15.008  0.0905  0.1394  0.0366
10645W        W30179   0.088   6.214  13.004  0.0712 -0.1096  0.0053
10646W        W30180  13.624   0.563  13.606  0.0652  0.2393 -0.1014
10647W        W30181   2.590  11.651  12.251 -0.1335 -0.1399 -0.2994
10648W        W30182  13.324  17.262  12.381 -0.0469  0.1409 -0.3887
10649W        W30183  14.139  16.580  16.217  0.2960 -0.1575  0.0352
10650W        W30184   3.099   2.855   3.463 -0.3951  0.1039  0.1878
10651W        W30185  17.730  11.164   4.702 -0.0472  0.0376  0.4429
10652W        W30186   7.538   4.944  16.220  0.2826  0.0527 -0.0349
10653W        W30187  10.041   1.388  12.637  0.1347  0.0409 -0.0775
10654W        W30188   2.127  11.114  13.557  0.1152 -0.1436  0.1181
10655W        W30189  15.840  10.782  14.446 -0.2418  0.0260  0.0644
10656W        W30190  14.497  17.275   1.825 -0.0009  0.0028  0.0922
10657W        W30191   4.097  13.400   0.557  0.1964 -0.0336 -0.2577
10658W        W30192   1.431  11.450  12.894 -0.0443  0.2206 -0.2111
10659W        W30193  15.985   5.224  16.155  0.0680 -0.0819  0.1062
10660W        W30194   3.429   6.912  16.570  0.3489 -0.1663 -0.1091
10661W        W30195   3.540   7.729   1.055  0.4021 -0.1167 -0.4114
10662W        W30196  14.490  10.415  15.853 -0.0265 -0.0877  0.1597
10663W        W30197   9.742  15.973   4.973 -0.1386 -0.1744 -0.0776
10664W        W30198  10.301   7.193   5.549 -0.0083 -0.0087 -0.0645
10665W        W30199   9.347  14.562  15.962 -0.1226 -0.1100 -0.2593
10666W        W30200   2.183  13.189  13.849 -0.0065  0.0882 -0.0756
10667W        W30201  15.765  17.555  13.150 -0.1214  0.0896  0.0527
10668W        W30202   2.700   7.746  12.254  0.0644 -0.0732 -0.0595
10669W        W30203  14.211   2.171  15.487 -0.1847  0.0242  0.0490
10670W        W30204   3.915   8.560  12.680 -0.1077 -0.1887 -0.1626
10671W        W30205   2.650  17.488  16.422 -0.3692 -0.1342 -0.0534
10672W        W30206  17.869   4.769   1.873  0.0099 -0.2333 -0.1460
10673W        W30207  11.235   3.575  15.140  0.1704  0.1844 -0.0036
10674W        W30208  11.667   0.994  14.517  0.0555  0.1706 -0.1063
10675W        W30209   1.335   5.052  15.902 -0.2293  0.1022 -0.0300
10676W        W30210   0.911   5.169  13.273 -0.2916  0.1172  0.3059
10677W        W30211   1.030  17.104  14.655  0.2846  0.0808  0.0005
10678W        W30212  15.573   7.821   1.607  0.0337 -0.1731  0.2724
10679W        W30213  11.340  15.363   3.273 -0.3531 -0.2130 -0.0418
10680W        W30214   9.916  10.008   1.313 -0.2244  0.0858  0.1174
10681W        W30215   1.833   4.852   2.170  0.2038 -0.5492  0.2633
10682W        W30216  10.376   5.330   2.507  0.1305 -0.2757  0.1541
10683W        W30217   6.667  12.373   4.928 -0.0246 -0.2576 -0.1067
10684W        W30218  10.473  17.030  15.234 -0.2581 -0.2951 -0.0925
10685W        W30219   2.322   0.985  15.949  0.0178 -0.4622 -0.2644
10686W        W30220   8.658   1.657   3.068 -0.0590 -0.2163  0.2533
10687W        W30221   9.386  11.320  13.996  0.0122 -0.0867  0.0737
10688W        W30222   7.946   7.489   2.012 -0.3828  0.0636  0.1239
10689W        W30223   5.014   0.208  14.301  0.1034  0.0982  0.0221
10690W        W30224  15.822  16.682  14.272 -0.0972  0.1792 -0.4173
10691W        W30225   2.194   8.096   2.684 -0.0680  0.0070  0.0628
10692W        W30226  16.793   2.050   0.138 -0.1182 -0.0584 -0.3557
10693W        W30227  16.585   4.863  16.569  0.2038 -0.2822  0.4573
10694W        W30228  13.417  11.118  15.365  0.0587  0.0387  0.0251
10695W        W30229   0.498   8.212  15.128  0.0665  0.0395  0.2608
10696W        W30230   6.831  11.538  14.137  0.1405  0.0644 -0.3741
10697W        W30231   0.462   8.662  16.615  0.0021  0.2075 -0.3055
10698W        W30232   4.629   6.616   0.903  0.1566 -0.0456 -0.2882
10699W        W30233  15.867  16.875  15.985  0.0311  0.0817  0.1427
10700W        W30234   2.897   4.813   4.967  0.0389 -0.0553 -0.2166
10701W        W30235  13.386   1.854   1.200 -0.0537  0.0724 -0.3197
10702W        W30236   3.712  13.473  14.126  0.3552  0.2917 -0.0366
10703W        W30237   3.259   6.823   2.731  0.2888 -0.2906  0.2716
10704W        W30238   8.316   0.772   4.923  0.0187 -0.4725  0.0742
10705W        W30239   4.129   0.175   3.108  0.0520 -0.1615  0.1482
10706W        W30240   6.761  11.940   2.754 -0.0145  0.2078  0.0586
10707W        W30241  13.328   2.553   3.319  0.3210 -0.1693  0.0092
10708W        W30242  12.490  15.891   3.735  0.0032 -0.0822  0.1885
10709W        W30243  10.331  13.197   3.911  0.2066 -0.0028  0.0420
10710W        W30244   7.897   7.474   2.608 -0.0372  0.1713 -0.2027
10711W        W30245   6.198   3.603  16.569 -0.0495 -0.0738  0.3755
10712W        W30246   2.385  13.280   1.103 -0.0669 -0.1853 -0.2424
10713W        W30247  12.092  12.525  14.676  0.0619  0.0417  0.3440
10714W        W30248   7.661  15.260   3.908 -0.3880  0.1035  0.0061
10715W        W30249   6.472   7.530  14.100 -0.2452  0.0184 -0.1490
10716W        W30250  11.586  14.599   4.401  0.1432  0.1092 -0.0298
10717W        W30251   0.727   0.462  13.717 -0.0319 -0.0486 -0.1738
10718W        W30252  13.187  14.357  11.743  0.0362 -0.2816 -0.2201
10719W        W30253   9.887   3.708   0.583  0.3079 -0.1105 -0.1374
10720W        W30254   9.097   0.286   3.073  0.0040 -0.4074 -0.2059
10721W        W30255   6.772  10.473   3.392  0.2337 -0.3440 -0.1085
10722W        W30256  13.319  15.304   0.432 -0.0756  0.1074  0.2594
10723W        W30257   7.399  15.978   1.741 -0.0221  0.3362 -0.1501
10724W        W30258  12.340   6.877  12.438  0.1054  0.3731  0.2872
10725W        W30259  15.876   4.322  15.148 -0.0351 -0.1605  0.1412
10726W        W30260   2.827   5.731   1.280  0.0874  0.1958 -0.0103
10727W        W30261  17.098  12.372   3.676  0.1820  0.0409  0.2359
10728W        W30262   8.042  14.913   2.308 -0.2470  0.0546  0.0728
10729W        W30263  16.553  17.113   3.890 -0.1348  0.2647  0.0821
10730W        W30264  10.385  17.026  13.076  0.1784 -0.0337  0.0044
10731W        W30265   5.874   8.579  16.460 -0.2711 -0.2485  0.2808
10732W        W30266   8.713   4.225  11.527 -0.0142 -0.0910  0.1651
10733W        W30267   7.410  13.640  11.647 -0.1049  0.2480  0.0801
10734W        W30268   8.361   9.620  12.334 -0.0623  0.3414  0.0333
10735W        W30269   2.062   4.141  12.172  0.2279  0.2407  0.1485
10736W        W30270   4.690   4.034   5.428 -0.0283 -0.0035  0.0798
10737W        W30271   8.656  12.494  12.494 -0.0473  0.1683 -0.0700
10738W        W30272   1.537  16.811  16.150  0.0458 -0.3180  0.1248
10739W        W30273  10.031   3.762  14.864  0.1096 -0.0734 -0.1474
10740W        W30274   4.571   1.900   0.183 -0.2738 -0.1684  0.0967
10741W        W30275   4.617  15.705   2.564 -0.2697  0.3115  0.0273
10742W        W30276  15.119  12.900   1.804 -0.0683  0.0652  0.0660
10743W        W30277   0.270   7.195   3.610 -0.2952  0.1620  0.1809
10744W        W30278  13.143  15.861   4.748  0.2577  0.1388 -0.1271
10745W        W30279  12.046   5.475   3.874 -0.0219  0.1778  0.0047
10746W        W30280  11.309  10.345  12.706  0.0948 -0.0296 -0.0847
10747W        W30281  17.572   7.811  14.201 -0.0095  0.2239 -0.3432
10748W        W30282   1.866  14.677   2.278 -0.0638 -0.1823 -0.0593
10749W        W30283   4.031   4.687   2.682 -0.2338 -0.0322  0.0386
10750W        W30284   3.078  10.240   0.813 -0.0056  0.0521 -0.0565
10751W        W30285  16.601  13.472   4.722 -0.1119  0.0237 -0.2601
10752W        W30286  16.919   3.732   1.740  0.3594  0.2037  0.0175
10753W        W30287  15.048   8.162  12.831  0.0073  0.0517  0.0435
10754W        W30288   9.138  13.138   2.978  0.0839  0.4478 -0.0746
10755W        W30289   5.086   4.649  14.163  0.4035 -0.0174  0.0094
10756W        W30290  16.668   0.630  16.539 -0.0663  0.3230 -0.1626
10757W        W30291  11.861  17.807  14.784 -0.3495 -0.1148 -0.0334
10758W        W30292   8.761   5.294  12.735  0.2088 -0.0628 -0.1621
10759W        W30293  14.189  10.591   0.384 -0.1256  0.0665  0.3941
10760W        W30294   9.614   0.341   4.914 -0.1839 -0.2947  0.2020
10761W        W30295  10.312  10.987  16.380  0.0153 -0.1689  0.2716
10762W        W30296  10.289   0.454   3.468  0.4057 -0.0009  0.1995
10763W        W30297  10.653   9.526   1.128 -0.0828 -0.0142 -0.1278
10764W        W30298   3.948  16.708   5.247  0.1158 -0.0451 -0.1823
10765W        W30299   0.863   1.398  14.248  0.0185 -0.2350 -0.1318
10766W        W30300   1.930   6.333   1.730  0.0115 -0.0193 -0.1302
10767W        W30301  15.574   7.202  12.606  0.3903  0.5533 -0.0365
10768W        W30302   0.083  12.108   2.929  0.2532 -0.2248 -0.2296
10769W        W30303  10.858  17.767   2.922  0.1717 -0.1859  0.0249
10770W        W30304   2.365   4.398   0.903  0.0367 -0.4401 -0.1392
10771W        W30305   2.717   0.299   2.720 -0.0054 -0.1160  0.1136
10772W        W30306   6.785   7.869  12.341  0.0362  0.1760 -0.1870
10773W        W30307   9.248   6.517  13.784  0.0492 -0.0677  0.1058
10774W        W30308  14.718  14.318  14.235 -0.4796  0.7115  0.0411
10775W        W30309   0.592  16.847   3.912  0.0018  0.0992 -0.2544
10776W        W30310   6.818  11.136   3.137 -0.0739 -0.0293  0.2320
10777W        W30311  11.634  16.296   0.255 -0.2999  0.1185 -0.0319
10778W        W30312   9.707   7.840   3.752  0.1683 -0.0530 -0.0009
10779W        W30313   9.836  12.776  14.447 -0.3104 -0.0949 -0.0942
10780W        W30314   4.807  10.938   2.043 -0.3637  0.1838 -0.3205
10781W        W30315   2.446   5.876  14.464  0.1974  0.1661  0.0583
10782W        W30316   8.100   8.770  12.453  0.0538  0.1083 -0.0549
10783W        W30317   9.504  12.307  16.084 -0.1987  0.0722 -0.1075
10784W        W30318  10.217  10.527   3.271 -0.0770  0.1302 -0.2415
10785W        W30319   1.627   2.912  14.468  0.1331 -0.0836  0.2683
10786W        W30320  10.064  13.180  13.109  0.0780 -0.2505 -0.1445
10787W        W30321   4.822   6.030  14.823 -0.2037  0.0507 -0.2272
10788W        W30322  14.004  13.455  15.296  0.4349  0.0767  0.0051
10789W        W30323  13.130   3.707   0.728 -0.4015  0.0502  0.0257
10790W        W30324  13.695  10.441   2.936  0.2050  0.0358  0.0760
10791W        W30325   4.442   1.387  13.196  0.2769 -0.0262  0.1438
10792W        W30326   7.555  12.677  14.602  0.2746 -0.2456 -0.2425
10793W        W30327   0.895  14.544  15.952 -0.3145 -0.1826 -0.0141
10794W        W30328  11.627   4.098   0.700 -0.3684 -0.1457  0.0309
10795W        W30329   9.722  10.034  14.471 -0.1060 -0.0262 -0.2219
10796W        W30330  16.184   6.335  14.159 -0.2807  0.2594  0.2023
10797W        W30331   2.830   8.884  13.493 -0.1321 -0.0031 -0.0782
10798W        W30332  11.523  17.763  13.698 -0.1095 -0.0431  0.0145
10799W        W30333   6.916   3.494  10.634 -0.1339 -0.2132  0.1038
10800W        W30334  17.585   3.823   1.678  0.1478 -0.1541  0.1221
10801W        W30335   5.531  16.279  14.148  0.1315  0.2121  0.0648
10802W        W30336   7.762   1.292   4.429 -0.0797 -0.1210 -0.1700
10803W        W30337   6.104  10.073   2.888  0.0108 -0.0149 -0.0551
10804W        W30338  14.504   0.869  14.887 -0.0177 -0.1001 -0.1790
10805W        W30339   1.949  15.402  13.182 -0.1927 -0.0327 -0.4868
10806W        W30340   4.607   8.692   1.227 -0.1233 -0.1949 -0.2357
10807W        W30341  13.991   5.692   2.199  0.2754  0.1618 -0.0540
10808W        W30342   6.409   6.317  16.514 -0.0396  0.2509 -0.1914
10809W        W30343   0.303  14.309   1.025 -0.0125  0.1076  0.2452
10810W        W30344   8.642   9.342  14.112  0.0560  0.0667  0.1636
10811W        W30345  10.759  15.625   0.466 -0.2452 -0.1584  0.0999
10812W        W30346  10.003   3.720   5.029 -0.2133  0.0568  0.1567
10813W        W30347  16.617  11.201  16.432 -0.0626  0.1112  0.2903
10814W        W30348  16.197   4.724   4.621  0.0143 -0.0257  0.0596
10815W        W30349   5.477  16.276   4.516 -0.2888  0.2493 -0.0657
10816W        W30350  13.005  16.305  15.199  0.2393 -0.2750 -0.4694
10817W        W30351   4.140  12.738   2.985  0.2100  0.0441 -0.2955
10818W        W30352  14.678  12.856   3.131 -0.1089 -0.1140 -0.0096
10819W        W30353  10.722   4.906   2.422 -0.0923  0.4468  0.1986
10820W        W30354   2.159  17.632  12.193  0.0667 -0.1157  0.2068
10821W        W30355  14.133  14.076   2.064 -0.0465 -0.0452 -0.2041
10822W        W30356  16.705   9.238  14.618  0.0450  0.1898  0.1495
10823W        W30357  13.387  10.057   0.319 -0.1933  0.0221  0.0932
10824W        W30358   1.481  10.708   0.180  0.2350  0.1642  0.1009
10825W        W30359  16.741  10.896  14.660 -0.2001  0.2535  0.2258
10826W        W30360  14.875   5.383  12.840  0.0731 -0.1623 -0.1060
10827W        W30361   8.186   1.027  12.988 -0.1431  0.0164  0.0334
10828W        W30362   4.724  15.163   0.757 -0.1134  0.1429 -0.1507
10829W        W30363   0.447  13.615   1.470  0.0408 -0.1585  0.3082
10830W        W30364   9.038  17.797   0.414 -0.0279 -0.1637 -0.2899
10831W        W30365  16.846   0.304  16.207  0.0867 -0.1802 -0.3648
10832W        W30366   7.662   9.690  12.214  0.0349 -0.2050 -0.2300
10833W        W30367   4.934   5.993   1.641 -0.0028 -0.0747  0.0856
10834W        W30368   4.726   6.199  15.332  0.1233 -0.0993  0.2279
10835W        W30369  13.519  11.581  16.481 -0.0655 -0.0634  0.0632
10836W        W30370  12.949   0.963   0.817 -0.0309 -0.1938 -0.0075
10837W        W30371  16.068   1.562   1.458 -0.0000 -0.2336  0.1852
10838W        W30372  14.491  15.063   4.746  0.0828  0.0836 -0.2932
10839W        W30373  16.301  11.602   4.485  0.0455  0.0081 -0.1668
10840W        W30374   7.717  13.007  15.976 -0.0327 -0.1584  0.3714
10841W        W30375  17.534   6.921  14.879  0.1670  0.0631  0.0075
10842W        W30376  15.980  13.854  12.675  0.0224 -0.0093  0.0832
10843W        W30377  16.819  10.469   5.321 -0.3971 -0.2992 -0.2218
10844W        W30378  13.557  17.552   4.342 -0.2844 -0.1187 -0.3267
10845W        W30379  12.533   7.207   1.288 -0.1840 -0.1233  0.0823
10846W        W30380  14.646   0.531  15.242  0.0270 -0.1249 -0.2829
10847W        W30381  15.620   5.982  14.716  0.1403  0.1888  0.1492
10848W        W30382   7.010  13.069   2.919 -0.1085  0.3184  0.0822
10849W        W30383  14.364   0.906   3.895 -0.0874 -0.1052  0.3595
10850W        W30384   8.747  16.389  15.307 -0.1370  0.1290 -0.3699
10851W        W30385  17.560   7.511   2.022  0.0636 -0.0909 -0.0074
10852W        W30386  15.502   8.345   3.193  0.3389 -0.0221  0.0551
10853W        W30387   4.024   9.963  15.028  0.1628 -0.0569  0.2105
10854W        W30388  15.334   0.603   0.109  0.2262  0.4402 -0.2047
10855W        W30389   8.078  12.474   4.924 -0.0297 -0.3299  0.1214
10856W        W30390  12.626  14.218   0.210 -0.0628 -0.0589  0.1400
10857W        W30391  15.580  14.885   4.400 -0.0363  0.0807 -0.0649
10858W        W30392   2.975  13.688   0.453  0.2675 -0.0591  0.0728
10859W        W30393   1.106   4.062  15.761 -0.2075  0.3184  0.2148
10860W        W30394   6.365   3.618  15.862 -0.1789 -0.0948 -0.2162
10861W        W30395   9.117  14.307  15.053 -0.0189 -0.3866 -0.0626
10862W        W30396   2.887  10.529   4.589 -0.0077  0.2110  0.0157
10863W        W30397  13.659   5.530  10.521 -0.1444 -0.0983  0.1493
10864W        W30398  11.221   1.087   4.409  0.0354  0.0052  0.1367
10865W        W30399   8.324   1.541  12.107 -0.2286  0.0114  0.1052
10866W        W30400   7.427   0.724  16.654 -0.3026  0.0252 -0.0253
10867W        W30401   9.464   9.182   2.252 -0.1377  0.1790 -0.0882
10868W        W30402  14.846  13.270   3.381  0.1355 -0.2088  0.2271
10869W        W30403   0.300  14.944  16.372 -0.2697  0.0475 -0.2162
10870W        W30404  16.535   4.630  13.169  0.1546  0.0973  0.0862
10871W        W30405   0.678  14.263   0.743  0.0937 -0.1777  0.3377
10872W        W30406  11.407   8.520   5.085  0.0164  0.1715 -0.3205
10873W        W30407  16.042  16.339   0.538  0.1020  0.3616  0.0189
10874W        W30408   5.387  16.773   2.586 -0.0928  0.0044 -0.1498
10875W        W30409   5.350   8.061  14.620 -0.1255 -0.1103  0.0326
10876W        W30410  16.645  14.582  12.915 -0.0440 -0.1846  0.0926
10877W        W30411   4.848  12.053   1.666  0.1023  0.2472 -0.1823
10878W        W30412  12.860   8.827   2.963 -0.1431  0.0591  0.2299
10879W        W30413   6.743  17.017   2.984 -0.0943 -0.0711 -0.3226
10880W        W30414   1.893   0.348   1.224 -0.0603 -0.0995 -0.2410
10881W        W30415   4.629  12.915  13.175  0.0441  0.2125 -0.1139
10882W        W30416  11.963   1.826  12.144  0.1312  0.0666  0.3597
10883W        W30417   1.032   6.726   3.336  0.1045 -0.1003  0.1070
10884W        W30418  10.968   4.153  15.930  0.2246  0.0783  0.4360
10885W        W30419   4.422   7.542  13.565 -0.1683  0.3003  0.0057
10886W        W30420   0.422   3.748  13.571  0.1588 -0.3986  0.3396
10887W        W30421   0.623  14.756   2.702 -0.0908 -0.0909 -0.1506
10888W        W30422  14.340  12.544  15.020  0.0553  0.1992 -0.1814
10889W        W30423  10.835   4.298   1.762  0.1393 -0.3172 -0.1636
10890W        W30424   0.975  12.755  14.074  0.3078 -0.2553  0.0366
10891W        W30425   7.497  12.002  14.842  0.3073  0.1475  0.0904
10892W        W30426   2.999   1.057   0.522 -0.1819 -0.3183  0.0403
10893W        W30427   2.108   5.603  14.783 -0.0541  0.0256 -0.1055
10894W        W30428  12.747  14.281  12.135 -0.0018 -0.2351 -0.1819
10895W        W30429   5.654   8.763  14.698  0.0253 -0.1364 -0.0387
10896W        W30430   0.861  16.484   0.426  0.1582  0.3190 -0.2276
10897W        W30431  15.881   5.975   0.557  0.0597  0.3835 -0.0310
10898W        W30432  13.076   9.077   1.735  0.1790  0.1732 -0.1061
10899W        W30433   1.828  11.760  14.120 -0.1173 -0.1816 -0.2372
10900W        W30434  10.864   1.223  11.937  0.1336  0.1484  0.2686
10901W        W30435   5.658   4.553  15.474 -0.1430 -0.2202  0.1125
10902W        W30436   5.747  15.860  14.043 -0.3706 -0.0143  0.1453
10903W        W30437  17.289  17.189   0.913 -0.3631  0.3431  0.3467
10904W        W30438   3.121  17.259  16.420 -0.3404  0.2759 -0.0489
10905W        W30439   5.051  12.462   0.070  0.1763  0.1235  0.1046
10906W        W30440  16.687   6.318   1.778 -0.1036  0.2411  0.3332
10907W        W30441   0.897   1.343   2.927 -0.1285  0.0060  0.1409
10908W        W30442  10.076  13.505  15.721  0.2274  0.0695  0.1288
10909W        W30443   8.996  13.289  14.933 -0.2150 -0.2111  0.1073
10910W        W30444   5.394   4.784   2.417  0.0581  0.0126 -0.1881
10911W        W30445   6.398   8.291  14.555  0.1593  0.0194 -0.1033
10912W        W30446   0.037   3.022  16.196  0.0792  0.3281 -0.1186
10913W        W30447  16.734   6.377   4.399 -0.0320  0.2054 -0.1025
10914W        W30448  11.689   5.055   1.371 -0.0044 -0.2882  0.2680
10915W        W30449   5.617  16.296   5.031  0.4251 -0.1329  0.2005
10916W        W30450  17.610   2.964  14.622 -0.0256 -0.0977 -0.0216
10917W        W30451  17.846  13.902  14.200 -0.1521  0.3029  0.0438
10918W        W30452   0.486  10.121  15.595 -0.0699 -0.0408 -0.1629
10919W        W30453  10.461   2.077   0.623  0.3366 -0.1224  0.1256
10920W        W30454  11.491  13.566   2.126  0.0630 -0.0186  0.0643
10921W        W30455  13.716  17.072   1.180 -0.1595 -0.2217 -0.0563
10922W        W30456   0.064  13.954  15.648  0.0676 -0.0073 -0.0863
10923W        W30457  10.384  12.827   2.839  0.1071 -0.1717  0.0006
10924W        W30458  17.212   2.142  13.655 -0.1389  0.0153 -0.1333
10925W        W30459   8.452   9.222   1.472  0.1123  0.0851 -0.0078
10926W        W30460   9.099  13.600   1.162  0.1267 -0.2434 -0.0165
10927W        W30461  12.239   3.671   2.113  0.1626 -0.0950  0.0951
10928W        W30462  16.807   0.187  13.938  0.0290 -0.0790 -0.2403
10929W        W30463  13.294   9.957  15.704  0.2002 -0.0611  0.1460
10930W        W30464  10.549  11.418  12.105 -0.0216 -0.0713 -0.3062
10931W        W30465  15.949  17.314   3.169  0.1138 -0.0849  0.5764
10932W        W30466   0.760  15.524  12.201 -0.0752 -0.1154  0.0238
10933W        W30467   6.513   3.414  15.388 -0.1408  0.1033 -0.1126
10934W        W30468  11.113  15.358   2.741  0.0313 -0.0753  0.2375
10935W        W30469   9.976   3.247  13.189  0.0873  0.1696  0.0473
10936W        W30470  14.775   9.325   3.942 -0.0563 -0.3092  0.2243
10937W        W30471   5.019  10.149  14.376  0.2740 -0.0777 -0.4930
10938W        W30472  17.903   3.485  13.452  0.3972  0.0203 -0.0858
10939W        W30473  10.775   5.439  15.330  0.0040  0.2587  0.0179
10940W        W30474  10.566  16.558   1.300 -0.1239 -0.0700  0.6005
10941W        W30475  13.544  12.490   3.910 -0.1977  0.0809 -0.3629
10942W        W30476   0.992  13.956  14.170 -0.2283  0.0569  0.1083
10943W        W30477   6.260  12.703  14.209 -0.1174 -0.0877 -0.1131
10944W        W30478   1.471   0.059   0.370 -0.0422 -0.1012  0.1028
10945W        W30479  11.428   7.585   3.690  0.2399 -0.0077 -0.2183
10946W        W30480  17.343   2.819   1.182  0.0117  0.0341 -0.2125
10947W        W30481  12.037   0.014  13.919  0.1788  0.1324  0.2519
10948W        W30482  16.014   8.171  13.144  0.1783 -0.0242 -0.1165
10949W        W30483   1.088  14.426  13.976  0.1577 -0.0846 -0.0128
10950W        W30484   2.688  11.885   2.356  0.0073  0.0301 -0.0269
10951W        W30485  10.880  13.843  13.341  0.0355 -0.2989 -0.0400
10952W        W30486   3.155   7.795   3.994 -0.1594  0.2675  0.0061
10953W        W30487   9.034   9.812  15.127 -0.0269  0.1268 -0.1874
10954W        W30488   7.729  17.811  13.722 -0.3030 -0.1025 -0.0746
10955W        W30489  12.058   5.647  13.956  0.0780 -0.1273 -0.1939
10956W        W30490   4.208   7.065  13.510 -0.0539 -0.0899  0.4274
10957W        W30491   4.654   8.942   3.649  0.0442  0.0982  0.1633
10958W        W30492   2.329   0.678  14.539  0.1312 -0.1065  0.0623
10959W        W30493  10.854  14.705   2.238 -0.0178  0.2054 -0.0229
10960W        W30494   6.378  14.111  11.783  0.1044  0.0083  0.1705
10961W        W30495  13.319  12.802   2.589 -0.1585 -0.2722  0.2685
10962W        W30496  16.707   8.526   2.234  0.0946 -0.0388 -0.1703
10963W        W30497  12.959   7.810  12.506 -0.1197 -0.2026 -0.1813
10964W        W30498   8.830  13.561   1.662  0.0354  0.0605  0.0211
10965W        W30499   6.347   5.298  12.515  0.0259 -0.2854  0.5486
10966W        W30500   7.132   6.988  11.269  0.3679  0.0843  0.1787
10967W        W30501   9.813   1.625  14.750 -0.3743  0.1586 -0.0748
10968W        W30502   2.511   8.766   3.324  0.1811  0.1893  0.1137
10969W        W30503  15.995   2.796  12.392 -0.0986 -0.2643  0.2731
10970W        W30504   3.521   6.236  15.019 -0.0243 -0.3533  0.1101
10971W        W30505  14.397   5.021  13.550 -0.1114  0.0565  0.4616
10972W        W30506   5.399   7.031   1.519 -0.1133  0.0070  0.0151
10973W        W30507   7.983  10.313   4.377 -0.1250 -0.1039 -0.1797
10974W        W30508   0.497   2.702  14.604  0.2001 -0.1991  0.0518
10975W        W30509   7.983  13.825   1.743  0.2697 -0.0430  0.0334
10976W        W30510   8.877   7.801   3.517  0.1611  0.1148 -0.0186
10977W        W30511   1.909   4.442  14.358 -0.0215  0.2645  0.0532
10978W        W30512   2.665   6.188   4.790  0.0958 -0.2546  0.0251
10979W        W30513   4.551  16.928  15.873 -0.2609  0.0676  0.2103
10980W        W30514  16.631   7.228  16.488 -0.1383 -0.0810 -0.0041
10981W        W30515   6.907   2.508  15.045  0.0941 -0.3040 -0.2968
10982W        W30516  16.226  17.269  12.174  0.1876  0.1317  0.0704
10983W        W30517   4.314   4.039   4.481  0.0759  0.0417 -0.2052
10984W        W30518   9.041   2.256   0.808  0.1422 -0.0287 -0.0654
10985W        W30519   0.335  13.646  12.506 -0.1049  0.1101 -0.1256
10986W        W30520   4.313   4.964  12.560 -0.0694 -0.1220 -0.0498
10987W        W30521  15.799  13.058   4.144 -0.0374 -0.4669 -0.4555
10988W        W30522   5.129  14.174  15.113  0.0123  0.0208 -0.1124
10989W        W30523   6.557   2.420   4.155 -0.2655  0.0582  0.1492
10990W        W30524   3.325  12.622  13.111  0.1272  0.0094  0.0172
10991W        W30525   2.583   2.026   2.672 -0.0883  0.1286 -0.1391
10992W        W30526   7.375   6.268  11.743  0.0257  0.3500 -0.1283
10993W        W30527  13.186  11.890  12.927  0.1163  0.0144  0.1910
10994W        W30528   8.674   2.176  13.305  0.0366  0.0702 -0.3617
10995W        W30529  10.242   3.157   3.965 -0.0431  0.0231 -0.3215
10996W        W30530   1.048  17.746  15.324 -0.0175 -0.2129 -0.3089
10997W        W30531  11.293   9.752  15.161 -0.0132  0.0878 -0.3320
10998W        W30532  15.859   5.281   1.333 -0.0008  0.1432  0.0744
10999W        W30533   1.981  14.009  14.134 -0.1453  0.0161  0.0539
11000W        W30534   8.458  14.436   1.290  0.0788 -0.1650  0.0165
11001W        W30535   0.969   8.103  12.329 -0.2192 -0.1432 -0.3267
11002W        W30536   9.451  13.137  16.359 -0.1255  0.4010  0.0384
11003W        W30537   8.924   8.448   1.168 -0.0111 -0.0095  0.1052
11004W        W30538  15.039   9.023   4.261 -0.0689  0.1995  0.1764
11005W        W30539   7.076  14.776   2.661 -0.1776 -0.0849  0.1236
11006W        W30540  12.729  13.015  15.634  0.0097  0.1058 -0.0793
11007W        W30541  14.828  11.421  13.591  0.2179  0.0822 -0.0410
11008W        W30542   2.308   3.428   0.170  0.0470  0.0105 -0.0482
11009W        W30543  11.418  17.196   1.491 -0.0626  0.2603 -0.1810
11010W        W30544   7.557  16.119  14.685 -0.1728  0.0604  0.0474
11011W        W30545   6.605  12.620  15.087  0.4287  0.3210 -0.1872
11012W        W30546   7.164   4.560  16.543  0.1300  0.2127  0.0741
11013W        W30547   9.631   5.189   6.261 -0.0491  0.2934 -0.0225
11014W        W30548  11.999  14.071   0.255 -0.3134  0.2544 -0.0160
11015W        W30549  10.164   8.150  14.346  0.1463  0.0912 -0.0005
11016W        W30550  15.618  16.303  12.873 -0.0009  0.2727 -0.0197
11017W        W30551   8.257  16.291   4.963 -0.0541 -0.4340 -0.0746
11018W        W30552  17.191   9.157  16.318 -0.0527  0.0621  0.0671
11019W        W30553   6.086  13.736  16.657 -0.1949 -0.1255  0.0709
11020W        W30554   7.515  13.971  15.813 -0.1819  0.2462  0.3001
11021W        W30555  12.282   1.906  12.539  0.0618 -0.1171 -0.1792
11022W        W30556  14.504   2.162   3.364  0.0796  0.0367 -0.0141
11023W        W30557   7.290   6.608  15.562  0.0065 -0.3797  0.1990
11024W        W30558   9.140  11.121   1.033 -0.1459 -0.1358 -0.3193
11025W        W30559   2.305   5.409  14.309 -0.2391 -0.1899  0.1027
11026W        W30560   6.933   1.853   4.748  0.1080 -0.1951 -0.1974
11027W        W30561   5.816   3.263  13.033 -0.1024 -0.2542  0.1032
11028W        W30562   2.208   4.260   4.395  0.3893 -0.2728 -0.0479
11029W        W30563   9.937  17.537   4.268  0.0096 -0.1937  0.0684
11030W        W30564  11.838   7.916   4.836 -0.1834  0.0280 -0.0564
11031W        W30565  11.748   3.583  12.182  0.1490  0.0180  0.0894
11032W        W30566   4.878  12.634  16.031 -0.3468  0.1374 -0.1288
11033W        W30567   7.722  11.812  16.582 -0.0782 -0.0344 -0.1304
11034W        W30568   1.278  15.825   4.575 -0.1282 -0.4589 -0.0245
11035W        W30569   0.958  12.071   2.816 -0.3247  0.3123 -0.2177
11036W        W30570   6.660  11.199  13.693  0.3555 -0.0568  0.1646
11037W        W30571  13.685  13.471  12.986  0.0120 -0.1273  0.4250
11038W        W30572   2.978   9.096  14.839  0.0588 -0.2108  0.1491
11039W        W30573   7.624  14.184   1.859  0.2276 -0.0395  0.1266
11040W        W30574  11.531  17.371   2.023 -0.2137  0.1827  0.4696
11041W        W30575  17.674   2.208  14.984  0.0914 -0.1498 -0.2827
11042W        W30576   3.255   8.875  13.824 -0.1774  0.0031  0.2148
11043W        W30577   4.344   6.548   4.522 -0.2122 -0.5831  0.2796
11044W        W30578   4.575  13.805   2.313  0.3101 -0.0606  0.0912
11045W        W30579   3.018  15.619   4.243  0.0499  0.0293  0.0138
11046W        W30580  13.988   8.049   2.283 -0.1054  0.2029 -0.0950
11047W        W30581   4.400  16.162  16.259 -0.2251 -0.2374  0.0464
11048W        W30582   9.227   2.543  15.956  0.1128  0.0850  0.1277
11049W        W30583   7.687   3.942  12.853 -0.1009  0.0410 -0.0410
11050W        W30584  15.732   3.238  15.079  0.0515  0.3816  0.2880
11051W        W30585  13.970   9.124   4.451  0.2122 -0.0147  0.2473
11052W        W30586   1.388   7.138  12.089  0.0414  0.1437 -0.0285
11053W        W30587  11.255  12.684  15.733  0.1533 -0.0835  0.1298
11054W        W30588   6.754   6.679  11.145  0.0156  0.1660  0.1301
11055W        W30589   7.354   7.441   0.956 -0.1836 -0.2381 -0.1297
11056W        W30590   0.376   8.019   0.380  0.1963  0.0695 -0.0443
11057W        W30591   4.324   7.239  15.748 -0.2424  0.1589 -0.1009
11058W        W30592  17.160   6.203  14.544 -0.0713 -0.1797 -0.1943
11059W        W30593   7.076   8.769   1.371 -0.1271 -0.0993  0.2302
11060W        W30594  13.525   6.778   3.438  0.0027 -0.0678 -0.1222
11061W        W30595   7.869  15.707   3.967 -0.0087 -0.0798  0.3092
11062W        W30596   8.266  17.268   0.903 -0.0834  0.2051 -0.0224
11063W        W30597   6.933  11.257   3.888 -0.0788 -0.2735  0.0881
11064W        W30598   0.601   0.622  16.013  0.1501  0.2227 -0.0900
11065W        W30599  14.460  12.256   5.775  0.0982 -0.2845  0.1795
11066W        W30600   3.947  13.774   4.896  0.0080  0.0004 -0.0363
11067W        W30601   3.186  10.632   4.130 -0.0391 -0.0818 -0.0499
11068W        W30602   0.016   6.509  12.081 -0.1226  0.0319 -0.1944
11069W        W30603  15.751  14.179  11.518  0.2720 -0.0449 -0.3496
11070W        W30604   2.964  15.152   3.392  0.3209 -0.4699 -0.4465
11071W        W30605  12.812   9.142  13.629  0.2993  0.3047  0.1256
11072W        W30606   0.490   2.405  12.643  0.0227  0.0629  0.3153
11073W        W30607   8.768   1.570   4.865  0.0679 -0.1289 -0.1718
11074W        W30608   7.208   2.503  16.143 -0.2402 -0.1078  0.1650
11075W        W30609  15.131   7.631  12.075  0.1725 -0.0200 -0.0117
11076W        W30610  11.294  13.856   4.298  0.1275  0.0385 -0.1087
11077W        W30611  11.589  16.796  12.193 -0.0922 -0.0298  0.1423
11078W        W30612   0.044   6.372   4.073 -0.3485 -0.0223  0.0159
11079W        W30613   0.660  15.497   0.823  0.1221  0.0230 -0.0568
11080W        W30614   4.589   4.401  16.352  0.1569  0.0584  0.0756
11081W        W30615   5.021   4.080   2.870  0.0621 -0.2363 -0.0371
11082W        W30616   7.057  11.934  13.647 -0.0004  0.1762  0.0491
11083W        W30617   1.062   8.940  13.999 -0.1274  0.0775  0.2524
11084W        W30618  16.016  10.617   4.040  0.0277  0.1063  0.1259
11085W        W30619   3.798  10.353  16.450 -0.1321 -0.2967 -0.0202
11086W        W30620   5.654  14.998  13.769 -0.2147  0.1335 -0.0581
11087W        W30621   4.731   0.531   5.028  0.1168  0.1572  0.1226
11088W        W30622  15.779   7.318  14.013  0.1391 -0.0735 -0.4269
11089W        W30623   1.006  14.795   1.375 -0.0581  0.2029 -0.1258
11090W        W30624   0.134  11.758  14.911  0.1465 -0.1648  0.1701
11091W        W30625  13.516  12.675   1.081  0.2994 -0.2759  0.1579
11092W        W30626   5.328  15.985   0.434  0.0972  0.0787  0.2616
11093W        W30627   7.039   5.828  16.573  0.1016 -0.0548  0.2045
11094W        W30628  16.250  14.634   2.012 -0.2646  0.0994  0.0930
11095W        W30629   6.795   2.821   2.299 -0.2984  0.1799 -0.1197
11096W        W30630   3.589   3.620   1.800 -0.1431 -0.0576  0.5844
11097W        W30631   9.471  15.141  15.627 -0.0367  0.0641 -0.1412
11098W        W30632   3.606   8.953  16.352  0.3075 -0.0747 -0.1061
11099W        W30633   8.469   9.748   2.432 -0.1859 -0.2922 -0.0778
11100W        W30634  16.164   2.775   2.388  0.1551  0.1164 -0.2274
11101W        W30635   6.457   4.889   1.668 -0.0451  0.1784  0.1197
11102W        W30636  13.779   4.506  16.397 -0.2772  0.0009  0.0352
11103W        W30637  13.175  11.212  16.199 -0.1730 -0.3105  0.2774
11104W        W30638  14.989  16.387  11.945  0.2030 -0.0490  0.1398
11105W        W30639   4.577   2.112  12.686 -0.0717 -0.0932 -0.0477
11106W        W30640   6.507   8.184   1.224  0.1276  0.0319  0.1027
11107W        W30641   4.003  11.086   4.430 -0.2912 -0.1058  0.2609
11108W        W30642   3.006  17.899   2.386 -0.0379  0.1717  0.1250
11109W        W30643  14.128   1.635  15.416  0.2148 -0.0941 -0.0312
11110W        W30644   5.807  14.490  16.306  0.0250 -0.0089 -0.1904
11111W        W30645  13.382  16.309   4.598 -0.0008 -0.0315 -0.2260
11112W        W30646  16.271  10.383   2.944  0.1367  0.2219 -0.2509
11113W        W30647   1.790   8.484  14.866 -0.1186  0.1140 -0.0769
11114W        W30648   1.926   4.554  12.431 -0.2048 -0.0296 -0.1641
11115W        W30649   0.278  16.665  13.668 -0.0881 -0.1499 -0.2616
11116W        W30650   9.082  15.213   2.557  0.2664 -0.0993 -0.2366
11117W        W30651   9.126  11.176   2.924 -0.1977  0.1659  0.2207
11118W        W30652   6.553   3.418   6.766 -0.0132  0.0651  0.1254
11119W        W30653  14.948  13.776  16.027 -0.2288 -0.0885  0.5814
11120W        W30654  12.529  17.060  15.722  0.2638 -0.1445  0.2594
11121W        W30655  13.621  15.846   4.696 -0.3129 -0.3506  0.1180
11122W        W30656  17.376   5.549  16.499 -0.1061 -0.2026  0.2463
11123W        W30657   7.280  10.393   3.771  0.2475 -0.4330  0.0330
11124W        W30658  10.448   9.883   0.180 -0.3347  0.3130  0.1916
11125W        W30659  11.121  11.664   0.122 -0.1682 -0.1468  0.3024
11126W        W30660   5.491   2.744  13.029 -0.1845 -0.1643  0.0677
11127W        W30661   4.572   0.263   3.305 -0.1332 -0.0561  0.1596
11128W        W30662   7.453   8.033  11.871  0.2203 -0.1838  0.1446
11129W        W30663   6.657   6.252   0.505  0.0333  0.1625 -0.2866
11130W        W30664  14.775   2.550   3.083  0.0366  0.1189  0.1883
11131W        W30665   2.108   8.162  14.638 -0.1247 -0.0604 -0.0016
11132W        W30666   2.275   4.441   2.702 -0.0869 -0.1489 -0.1598
11133W        W30667   3.372   5.698   4.826  0.1613  0.0143  0.0153
11134W        W30668  14.642   5.428  13.874 -0.0931  0.0221  0.1501
11135W        W30669  13.468  11.025  16.647 -0.2062 -0.2567 -0.2597
11136W        W30670  11.732   4.566  11.781  0.0221  0.1055  0.1354
11137W        W30671   8.111   4.612   2.927 -0.0327  0.1534  0.1159
11138W        W30672  15.014  13.201  16.083 -0.2148  0.0392 -0.1052
11139W        W30673   6.321  15.095  14.642 -0.2526 -0.1188  0.0993
11140W        W30674   4.148  17.645   3.367  0.2430 -0.4301 -0.1411
11141W        W30675   5.149  16.228  14.452 -0.0711  0.1862 -0.2685
11142W        W30676   9.273   5.211  12.342  0.1935 -0.1831 -0.0453
11143W        W30677   5.179   2.960   2.112  0.0627 -0.3978 -0.0885
11144W        W30678   3.014   7.334  12.510  0.1665 -0.1540  0.2385
11145W        W30679  15.155  10.944  12.955 -0.1455  0.2211  0.0786
11146W        W30680   5.932   5.239  14.103 -0.1684 -0.1776 -0.0233
11147W        W30681  14.422   0.150  13.165  0.0527  0.2541 -0.1787
11148W        W30682  15.570  12.702  16.641 -0.1568 -0.1033  0.1584
11149W        W30683   3.670   7.568   4.061 -0.3603  0.1085 -0.0457
11150W        W30684  14.471   0.996   2.221  0.0160 -0.0314 -0.1964
11151W        W30685  11.615  10.599  12.189  0.1484  0.1201 -0.3167
11152W        W30686  13.457  10.615  14.895 -0.0303 -0.0756 -0.3171
11153W        W30687   9.570  12.357  14.521 -0.1750 -0.4099  0.3564
11154W        W30688   5.486   4.012   5.532  0.2178  0.6048 -0.2977
11155W        W30689  14.119  11.267   0.980 -0.0565 -0.1350  0.1855
11156W        W30690   4.457   7.308  14.975  0.1466  0.0965  0.2075
11157W        W30691  17.276   7.184  14.627  0.1370  0.1286 -0.0383
11158W        W30692   9.048  11.040  15.760  0.2326  0.1090  0.1239
11159W        W30693  12.446  16.704   4.755 -0.2241 -0.2506  0.2053
11160W        W30694  12.779  13.220   1.955 -0.0977  0.1327  0.0455
11161W        W30695   2.681  12.585   4.768  0.2483 -0.3997 -0.2155
11162W        W30696   5.020  17.661   4.184 -0.0279 -0.0958  0.0783
11163W        W30697   6.260  17.483  15.852  0.0415 -0.3444  0.3027
11164W        W30698   6.910  16.283  12.422 -0.1309 -0.1989  0.1448
11165W        W30699  13.034  11.112  13.487  0.1516  0.1281  0.0645
11166W        W30700   8.231   1.408   3.159 -0.0626  0.0398  0.3505
11167W        W30701  13.889  11.175  11.742 -0.2526  0.0583  0.0202
11168W        W30702  17.258   4.162   0.479 -0.0657 -0.2560 -0.1662
11169W        W30703   2.424   0.048   0.140  0.0757 -0.1052  0.1652
11170W        W30704  13.463   4.125   4.053  0.0695 -0.3176 -0.1441
11171W        W30705  10.557   2.104  14.995 -0.1185 -0.1105 -0.2072
11172W        W30706  13.870  13.782   3.314  0.2430  0.2665  0.1975
11173W        W30707   0.485   3.814   3.732  0.2623 -0.3105  0.0037
11174W        W30708   2.122   2.279  15.527  0.1790 -0.2186  0.0505
11175W        W30709   7.578   6.210   3.138 -0.1469  0.0038 -0.0972
11176W        W30710  10.049   8.055   3.323  0.3641  0.0481  0.0939
11177W        W30711   5.857   3.348  14.591  0.1524 -0.0233  0.0076
11178W        W30712   4.447  14.719   4.367 -0.0397 -0.0716 -0.3247
11179W        W30713  14.574  15.902  14.350  0.0144  0.0618 -0.2500
11180W        W30714  16.451   1.820  15.712 -0.1357 -0.1704 -0.1020
11181W        W30715   0.316  14.361   3.768 -0.1357 -0.1784  0.2385
11182W        W30716  15.295   8.127  15.788  0.2662 -0.0492 -0.0051
11183W        W30717   2.298   4.986   1.022 -0.0868  0.1675 -0.2897
11184W        W30718  11.476   5.910   4.640  0.0197 -0.0529  0.1965
11185W        W30719  13.100   0.296  12.749 -0.1603  0.0767 -0.3546
11186W        W30720   9.225   3.751  14.745  0.0858  0.1760 -0.0715
11187W        W30721   9.111   4.464   4.924  0.2700  0.1714  0.2307
11188W        W30722  16.442   4.806   0.591  0.1357  0.0607  0.0791
11189W        W30723   4.037  15.869   3.604  0.0905 -0.2369  0.0324
11190W        W30724   4.029   7.635   4.455  0.2745 -0.1385 -0.2380
11191W        W30725   2.686   2.505   1.982 -0.2129  0.2940 -0.0216
11192W        W30726  14.833   0.618   4.734  0.2367  0.1199 -0.0845
11193W        W30727   6.978   2.611   4.442 -0.2407  0.0825 -0.0916
11194W        W30728  13.173   6.805  14.528  0.4480  0.2539 -0.0977
11195W        W30729  16.608   4.136   3.484 -0.1798  0.3916 -0.2490
11196W        W30730   0.721   7.221  13.496 -0.1177 -0.0651  0.0292
11197W        W30731  16.136   9.936  12.274  0.2282 -0.1132 -0.2115
11198W        W30732  13.750   8.626  15.986 -0.1046 -0.1204  0.1463
11199W        W30733   5.458   9.210   4.357  0.0354 -0.1312  0.0310
11200W        W30734   7.685   9.759  15.646  0.0193  0.3224  0.1267
11201W        W30735   1.565   7.952   0.265  0.0305 -0.0005 -0.0004
11202W        W30736  15.027   1.397   5.219  0.2373 -0.1450  0.1140
11203W        W30737   3.905  11.565  12.140 -0.1699  0.4231  0.0288
11204W        W30738   1.634   7.488   0.505 -0.0918 -0.2381  0.1669
11205W        W30739   9.909   5.275  16.517 -0.0031  0.1993 -0.3318
11206W        W30740  12.330   9.502   4.818  0.0746  0.1321  0.1780
11207W        W30741   0.553   7.658  13.639  0.1660 -0.1776 -0.0596
11208W        W30742  17.850  15.243   1.921  0.0688 -0.2486 -0.2623
11209W        W30743   3.625   3.138  12.726  0.0444 -0.4021 -0.3344
11210W        W30744   4.642   8.768   2.264 -0.3183 -0.1543  0.2694
11211W        W30745   4.974  15.219   4.339  0.1961 -0.0478 -0.3008
11212W        W30746   6.774   2.360  15.830  0.1155  0.1883 -0.0250
11213W        W30747   3.246  16.703  14.508 -0.1856  0.0432  0.0941
11214W        W30748   4.313   5.037   4.603  0.1963 -0.2811  0.0829
11215W        W30749   1.578   5.885  14.688 -0.0790 -0.1115 -0.1172
11216W        W30750   7.556   5.533  10.707 -0.1250  0.0878 -0.1923
11217W        W30751   7.856   3.317   2.836 -0.0683 -0.0982  0.0551
11218W        W30752   1.555   5.330   2.928 -0.3175  0.0714 -0.2553
11219W        W30753   2.916   9.601  12.452  0.0743 -0.1037 -0.2318
11220W        W30754   6.854   0.255   5.552  0.0847  0.2786  0.0033
11221W        W30755   3.715   2.924  15.920 -0.0327 -0.1744  0.2748
11222W        W30756  14.631  15.533   2.193 -0.1622  0.2464  0.1069
11223W        W30757   2.733   0.438  12.397 -0.0465 -0.2719  0.0953
11224W        W30758  11.249   0.489  15.039 -0.1126  0.0907 -0.3784
11225W        W30759   3.506   8.638   0.649  0.1728 -0.2192 -0.0680
11226W        W30760   3.655  13.467   4.537  0.6405 -0.1507 -0.2830
11227W        W30761   8.882   9.103   0.621 -0.6491 -0.0134 -0.0325
11228W        W30762  14.237   4.201  14.265 -0.2072 -0.0623 -0.1817
11229W        W30763   9.370   5.069   1.459 -0.1618 -0.1312 -0.2631
11230W        W30764  17.068  17.642   2.345  0.2231 -0.0326  0.3561
11231W        W30765  10.697  17.825   4.956 -0.0584 -0.2038 -0.2151
11232W        W30766   0.821   6.494   2.707 -0.1656  0.0130  0.1908
11233W        W30767   4.109  12.894   2.521  0.0413  0.0375  0.0223
11234W        W30768   2.310   3.670  15.964  0.0225  0.1334 -0.0682
11235W        W30769  11.822  10.762  15.182 -0.2681  0.1098 -0.0073
11236W        W30770   0.947  10.363  14.140  0.2507  0.1339 -0.2095
11237W        W30771  16.496   7.231   2.623 -0.1117  0.0460 -0.2402
11238W        W30772   9.688  12.270  15.594  0.0784  0.1697 -0.0463
11239W        W30773   8.390  12.048  13.406 -0.3116 -0.2060  0.0890
11240W        W30774   4.967  17.293   2.081 -0.2043 -0.1355  0.1821
11241W        W30775  14.652   3.654   4.011 -0.1165 -0.2134 -0.0049
11242W        W30776  11.656   4.085   0.167  0.0453  0.2083 -0.4951
11243W        W30777   7.006   3.098   4.399 -0.0151 -0.1945 -0.3144
11244W        W30778  15.706   3.490   4.631 -0.0196 -0.1030 -0.2833
11245W        W30779  14.100  13.326  13.287 -0.1034 -0.0388 -0.1608
11246W        W30780  17.642   0.443  16.514  0.0799  0.0020 -0.1247
11247W        W30781  10.518   3.240   0.281 -0.3477 -0.0456 -0.1045
11248W        W30782   6.637  12.871   0.732 -0.0566  0.2159  0.0531
11249W        W30783  12.942  14.510   0.454  0.0857 -0.1395  0.2148
11250W        W30784  13.652   5.131   3.992  0.3903  0.1509  0.1452
11251W        W30785   3.677   6.514  14.611 -0.0415 -0.2552 -0.0683
11252W        W30786   5.910   4.014  16.599  0.2886 -0.0205 -0.4529
11253W        W30787   2.181  13.588   3.979 -0.0680 -0.1997  0.1093
11254W        W30788  10.862   2.793  13.110 -0.4103  0.1779 -0.3911
11255W        W30789   0.211   5.848  11.632  0.0695 -0.1764 -0.0271
11256W        W30790  13.969  12.838  11.557  0.0794 -0.2503 -0.1715
11257W        W30791  16.681  15.197   1.823  0.0844 -0.1139  0.0252
11258W        W30792   1.117  14.290  14.490 -0.3938 -0.1816 -0.1735
11259W        W30793   0.156  15.311  15.943  0.0314  0.0053  0.1059
11260W        W30794   3.459   8.559  15.682 -0.1960  0.3042 -0.0165
11261W        W30795  16.505   1.942   2.305 -0.1317  0.2577  0.0329
11262W        W30796  15.617  15.338   4.775  0.0479  0.2192  0.0696
11263W        W30797   9.136   1.925   4.899  0.2887 -0.1257  0.2875
11264W        W30798   6.359   7.406  14.899 -0.2021 -0.0721 -0.4070
11265W        W30799   1.538   0.857  13.227 -0.2399 -0.1487 -0.2383
11266W        W30800   5.070   2.877   6.145  0.2070  0.0806  0.1008
11267W        W30801   7.534  14.434   1.384  0.0633 -0.0978  0.2419
11268W        W30802  11.221   4.794   4.707 -0.0151  0.1799 -0.2643
11269W        W30803   9.083   5.664   5.455  0.0707  0.0434 -0.1547
11270W        W30804   9.820  16.371  14.764  0.1656  0.1212  0.2665
11271W        W30805   8.103   9.005   4.967  0.0162  0.1551 -0.0619
11272W        W30806   0.767   7.651   0.253  0.1151 -0.1104 -0.1177
11273W        W30807   6.458  10.967   0.243  0.2530  0.3189 -0.3186
11274W        W30808   7.394  13.888   3.271 -0.2605 -0.1719  0.1409
11275W        W30809   3.907   6.534  12.440 -0.1819 -0.0483  0.0426
11276W        W30810  15.162  16.562   2.529  0.0934  0.1868 -0.1304
11277W        W30811   3.944   0.787   0.457  0.2193  0.1066  0.0672
11278W        W30812  11.860   3.631   2.445 -0.3662  0.1562 -0.2008
11279W        W30813   8.866   7.160   1.055  0.0781 -0.4136  0.1327
11280W        W30814  10.830   2.877   0.649  0.0948  0.2988 -0.1235
11281W        W30815  12.328   4.393  11.788  0.3719 -0.0583  0.0646
11282W        W30816   9.200   9.871  13.332  0.0708 -0.1501  0.0202
11283W        W30817   9.517   4.426   0.511  0.1368  0.0592  0.0936
11284W        W30818   8.404  16.700   0.341  0.0610  0.1510  0.0383
11285W        W30819  10.079  10.029   3.280 -0.3087  0.1836  0.1262
11286W        W30820  13.519  12.116  12.145  0.2462 -0.6963  0.1095
11287W        W30821   2.456   2.457  12.392 -0.0080  0.1721  0.2351
11288W        W30822   1.302   2.643   0.612 -0.1142 -0.3308 -0.0590
11289W        W30823  13.925   6.832   3.194  0.1499  0.2525  0.4390
11290W        W30824   5.603  15.796   4.312 -0.1579 -0.1238 -0.4034
11291W        W30825   7.950   9.235  15.976  0.3581 -0.0369 -0.3663
11292W        W30826  12.920   0.766  15.184  0.1324 -0.1101 -0.1887
11293W        W30827   3.609   5.433  12.522 -0.0967  0.0310  0.3775
11294W        W30828   1.027   3.409  11.895 -0.0484 -0.2033 -0.0309
11295W        W30829   1.749   5.634  13.571  0.0219 -0.0542  0.2349
11296W        W30830  12.461   4.091  14.802 -0.0811 -0.2116  0.0162
11297W        W30831  11.713   9.291  13.055  0.3079 -0.2872 -0.1932
11298W        W30832   4.997   1.360   4.596 -0.0270 -0.0906  0.0178
11299W        W30833   8.260   2.730   2.089 -0.0803 -0.2996  0.1420
11300W        W30834   5.320  10.243   1.550 -0.2397 -0.0263 -0.0381
11301W        W30835  16.036   5.058   0.400  0.0542  0.0715  0.1724
11302W        W30836   7.311  11.213  12.980 -0.4181  0.0814 -0.2720
11303W        W30837   1.177  17.579   1.338  0.3826  0.2646 -0.1229
11304W        W30838  17.090  14.077   4.068 -0.0232 -0.0053  0.0476
11305W        W30839  11.597   5.024  16.229  0.1185  0.1572  0.2803
11306W        W30840   3.857   3.581  12.703  0.1188  0.3090 -0.0206
11307W        W30841   7.004   2.725  14.218  0.0795 -0.0881  0.0706
11308W        W30842   6.935  11.444  13.373 -0.0951 -0.0954 -0.0502
11309W        W30843  14.322   7.126   1.717 -0.1318 -0.3548 -0.2996
11310W        W30844   8.273  16.324   0.699 -0.0728 -0.3448 -0.1423
11311W        W30845  11.468   3.285   6.091  0.1375 -0.0714  0.0111
11312W        W30846   7.184  10.276   1.531  0.1373 -0.0635 -0.0268
11313W        W30847   5.373  13.624  15.876 -0.1407 -0.1591  0.2235
11314W        W30848  17.317  14.818  16.092  0.2008 -0.4837  0.1454
11315W        W30849  10.834  13.908  13.859 -0.0121  0.1063 -0.0122
11316W        W30850  17.516  12.725   1.221 -0.2868  0.5201 -0.0777
11317W        W30851   2.625   1.237  16.261  0.2215  0.2645 -0.4176
11318W        W30852   0.999  12.322   0.119  0.1929 -0.0755 -0.0066
11319W        W30853   4.013   7.254   3.393 -0.2614 -0.1348  0.1700
11320W        W30854   3.984   8.600   2.697  0.1894 -0.1404 -0.2170
11321W        W30855   8.222   2.999  12.983  0.1088 -0.1396 -0.0927
11322W        W30856   6.916   5.350  14.149 -0.0311 -0.2105 -0.2540
11323W        W30857  12.018  16.715   1.416 -0.1775  0.0793  0.2152
11324W        W30858   7.630   2.933  15.071  0.2114  0.1091 -0.2926
11325W        W30859  12.678   5.145  14.108  0.3300  0.1830 -0.3514
11326W        W30860   8.015   2.491  13.616  0.1542 -0.1003  0.1170
11327W        W30861  14.570  13.793   0.725 -0.2341  0.2069  0.0192
11328W        W30862  14.484   7.509  12.455  0.0257  0.3060 -0.1830
11329W        W30863   9.735   6.145  16.121  0.2388  0.0558  0.0853
11330W        W30864  12.677   1.110   3.645 -0.1463  0.0790  0.0476
11331W        W30865   0.166   3.233  16.604  0.0795 -0.1862 -0.0303
11332W        W30866  13.704  11.284   1.996 -0.0571  0.1688  0.2673
11333W        W30867   1.088  11.878   4.744  0.2552 -0.0879  0.2094
11334W        W30868  12.879   6.734  14.056  0.1347  0.2433 -0.2467
11335W        W30869  12.596   8.853  15.416 -0.0861 -0.1541 -0.2536
11336W        W30870  14.286   7.760  15.110 -0.0135 -0.1128  0.3285
11337W        W30871  12.743  15.871   4.229 -0.2824 -0.0525  0.1527
11338W        W30872  13.125  17.357   2.944  0.1806  0.0303  0.2945
11339W        W30873   7.620  10.236  16.437  0.2285  0.2606 -0.1486
11340W        W30874  14.435   2.294  12.952 -0.2786 -0.2739 -0.1409
11341W        W30875   8.100   1.041  12.505 -0.0464 -0.1300 -0.2167
11342W        W30876  16.111   5.705  14.871 -0.1696  0.1397 -0.2276
11343W        W30877   3.343   5.614   2.709 -0.2410 -0.0736 -0.2903
11344W        W30878   7.793   4.263   4.471 -0.1751 -0.2352  0.0285
11345W        W30879  13.925   3.205  15.308 -0.2147  0.4003  0.3541
11346W        W30880  11.998   9.419   3.438  0.0613  0.4884 -0.1768
11347W        W30881   2.937   1.313  13.466 -0.3238 -0.0894  0.1528
11348W        W30882   9.420  17.344  12.180 -0.1760  0.0566  0.2137
11349W        W30883  17.299   5.623   4.162 -0.1007 -0.0473 -0.1374
11350W        W30884   8.054  14.192  16.190  0.1615 -0.0149  0.2392
11351W        W30885  10.502   4.938   0.447 -0.0010 -0.0810  0.1194
11352W        W30886  10.464   5.630  14.857  0.0711  0.3431 -0.0010
11353W        W30887  15.328   8.426  12.524  0.2602  0.3494  0.1575
11354W        W30888   7.115   4.462   6.827 -0.1239 -0.3113 -0.0522
11355W        W30889  15.838   4.831   1.617  0.0087 -0.2213 -0.0028
11356W        W30890   5.786  17.104  15.657 -0.1621  0.4204 -0.2826
11357W        W30891   7.374  12.030   4.255 -0.0121 -0.0985 -0.2828
11358W        W30892  14.220  16.489   4.884 -0.0605 -0.0451 -0.1640
11359W        W30893  15.463  17.487   4.033  0.0657 -0.0851 -0.1320
11360W        W30894  10.271   2.137   4.087 -0.0553  0.2300  0.0699
11361W        W30895   9.195   9.562  14.692 -0.0615  0.0807 -0.2243
11362W        W30896   9.934   1.979  11.759  0.1629  0.1730 -0.1659
11363W        W30897   0.711   5.488  14.715  0.0336 -0.0428 -0.0392
11364W        W30898  15.006  11.965   3.026 -0.3818  0.0824  0.1215
11365W        W30899  10.725  13.590   1.589  0.0934 -0.0269  0.3042
11366W        W30900  15.257   6.635   0.360 -0.1647  0.1493 -0.0430
11367W        W30901  10.416   7.716  12.549 -0.2517  0.1394  0.3201
11368W        W30902  14.886  12.626  14.945 -0.0642  0.0064  0.0158
11369W        W30903  10.241  13.473  16.721  0.1063  0.0357  0.1681
11370W        W30904  12.363   9.667  15.788 -0.1355 -0.0902  0.1818
11371W        W30905   1.133   3.458  16.668  0.0112  0.2726  0.1504
11372W        W30906   6.487   5.675   2.713 -0.2492 -0.2436  0.2041
11373W        W30907   8.680   9.234   3.513 -0.0173  0.1770 -0.0945
11374W        W30908  15.837   2.878   1.065  0.0754  0.0851 -0.1048
11375W        W30909   8.524   2.244  13.792 -0.2491  0.0938  0.0512
11376W        W30910  10.666   3.424  15.072  0.1447  0.0067 -0.1754
11377W        W30911   2.002   2.397  16.668 -0.1571  0.0816 -0.1850
11378W        W30912  10.746  14.926   4.947 -0.3488 -0.2669 -0.0069
11379W        W30913  10.881   1.003   0.195 -0.2653 -0.1791  0.0007
11380W        W30914  10.344   5.960   0.499 -0.0442  0.1487 -0.2913
11381W        W30915   2.786   4.404  14.981  0.0633 -0.0039  0.3176
11382W        W30916  17.413  17.328  16.115  0.2886  0.1141 -0.0671
11383W        W30917  11.737   3.528  14.989  0.0534 -0.1381 -0.1716
11384W        W30918  16.556   9.501  14.129  0.0856 -0.3508 -0.1244
11385W        W30919  11.428   5.510  12.629 -0.0704 -0.0243 -0.2632
11386W        W30920   0.191  16.574   3.026  0.0777  0.0461 -0.1496
11387W        W30921  13.203   1.278   0.001  0.3096  0.1287  0.0518
11388W        W30922   6.523   0.659  15.132  0.1541  0.1490 -0.1813
11389W        W30923  11.016   2.238  14.887  0.0052 -0.0874 -0.2533
11390W        W30924   4.969  13.902   3.203 -0.0544  0.0828  0.2977
11391W        W30925   2.571   5.796  15.026  0.0097  0.1238  0.1620
11392W        W30926   4.668   5.634  16.563  0.3861  0.0923 -0.0463
11393W        W30927  14.837   5.262  13.452 -0.0732 -0.3908 -0.0250
11394W        W30928  11.037  14.210  12.839  0.2802 -0.0215 -0.0901
11395W        W30929  16.992   7.722  15.400  0.1571 -0.1210  0.0602
11396W        W30930   1.210   1.536   3.617  0.0727  0.0310 -0.0249
11397W        W30931   8.631  16.278   4.091  0.0928 -0.2217  0.1576
11398W        W30932  10.781  16.711  15.035  0.1449 -0.0952 -0.1217
11399W        W30933   5.604  16.809   1.857 -0.1208 -0.2113  0.0375
11400W        W30934  11.664  10.172   3.136 -0.1242 -0.0478 -0.0388
11401W        W30935  12.317  13.189  13.620  0.0076 -0.0366 -0.0460
11402W        W30936  10.749  17.187   3.344 -0.0984 -0.1169 -0.0411
11403W        W30937  13.412  12.401  12.981 -0.1700  0.1337 -0.1309
11404W        W30938   4.229   2.772  14.736 -0.1253 -0.2063 -0.0757
11405W        W30939  11.794   3.624  13.062  0.0513 -0.3910  0.0389
11406W        W30940   0.661   7.835   1.108  0.3813 -0.0836  0.2379
11407W        W30941  15.150   5.191   1.754 -0.0270  0.0622  0.1742
11408W        W30942   0.860   1.156  12.116 -0.2844 -0.1358  0.1275
11409W        W30943  15.982   3.331   1.231  0.0728 -0.1522 -0.1644
11410W        W30944   6.973   1.336   1.343 -0.0505 -0.2842 -0.3654
11411W        W30945   8.202   3.473  11.689  0.0247 -0.0829  0.1110
11412W        W30946  12.632  15.397   4.204  0.1295 -0.0728  0.0110
11413W        W30947  14.336  15.005   1.355  0.1093  0.1465 -0.0799
11414W        W30948   5.972  16.000  14.972 -0.1940  0.1200 -0.1276
11415W        W30949   0.371   0.827   1.656 -0.1033 -0.1341  0.0328
11416W        W30950   9.558  16.732  13.992  0.2892  0.2963 -0.2846
11417W        W30951  12.045  14.693  13.388  0.0211 -0.1118  0.4138
11418W        W30952  13.362   5.080  11.640  0.0135 -0.1718 -0.0037
11419W        W30953  14.236  12.030  16.613  0.3056 -0.1096  0.2711
11420W        W30954   4.512   3.949  12.251  0.2868  0.2273  0.1720
11421W        W30955  12.646   5.243  14.658 -0.1312 -0.1183 -0.1065
11422W        W30956  10.262   7.694  16.657  0.1560 -0.0400 -0.2240
11423W        W30957   8.554  11.776  13.773 -0.2775  0.0133 -0.2850
11424W        W30958  15.306  12.652   2.793  0.0510 -0.0454  0.1492
11425W        W30959  14.835  10.248   2.842 -0.0950  0.0924  0.0286
11426W        W30960   8.132   6.742   6.512 -0.2456 -0.0228  0.1142
11427W        W30961  12.336   5.473  14.349  0.0048  0.0237  0.1500
11428W        W30962  14.404   1.600   2.924 -0.3906  0.1383 -0.1421
11429W        W30963   4.960   3.384  11.969  0.0202 -0.1126 -0.1807
11430W        W30964  16.690   7.013   0.622 -0.1144  0.2879 -0.1029
11431W        W30965  14.421  14.557  14.557  0.3324  0.1968  0.2020
11432W        W30966   9.213   2.491   0.342  0.1635  0.2973 -0.0591
11433W        W30967   7.829  10.178  15.957  0.3140 -0.3159  0.1629
11434W        W30968   3.687  14.475  13.128  0.1736  0.0758  0.0692
11435W        W30969   5.051   0.144   1.881 -0.2508  0.1213  0.1358
11436W        W30970   9.640  10.999   4.893  0.1625 -0.0577 -0.1601
11437W        W30971   7.908  17.081  16.702  0.3619  0.2396 -0.0636
11438W        W30972   7.304  15.905   0.049 -0.1734 -0.1577  0.1323
11439W        W30973   4.171   3.971  15.025  0.1151 -0.1296 -0.1319
11440W        W30974   0.351  10.129   2.006 -0.2879 -0.1191  0.1389
11441W        W30975   7.904   8.646   0.900 -0.0407  0.0878  0.3066
11442W        W30976   9.545  11.309  15.605 -0.0907  0.0330  0.2613
11443W        W30977   8.009   7.985  15.774  0.0586  0.2931  0.1494
11444W        W30978  12.391   7.749  12.353  0.0194  0.0069 -0.0360
11445W        W30979   8.688  17.583  11.900 -0.0228 -0.2467 -0.1394
11446W        W30980  14.012   1.751   1.092  0.2544  0.0916 -0.2718
11447W        W30981  10.847  17.408  15.043  0.1834  0.2203 -0.2654
11448W        W30982  12.523  12.928   2.829 -0.0832  0.0029 -0.3145
11449W        W30983  13.790   1.753  16.050  0.1488 -0.0961  0.0663
11450W        W30984   2.561   1.736   2.244 -0.4456 -0.0075  0.2946
11451W        W30985  13.431  11.028   2.383 -0.3156 -0.1948  0.0488
11452W        W30986   4.483  13.424  16.503 -0.2921  0.2861  0.0925
11453W        W30987  11.920  12.655   3.168 -0.3274  0.0032 -0.0701
11454W        W30988   3.958   4.198  14.290 -0.3239  0.2433 -0.0430
11455W        W30989  15.788  12.777  13.977  0.3573 -0.0528  0.1725
11456W        W30990   7.102   1.875   2.012 -0.0415  0.1485 -0.2231
11457W        W30991   6.944   9.637  11.992  0.2648  0.1545 -0.1966
11458W        W30992  11.204   5.080  11.665  0.0768  0.2100  0.0398
11459W        W30993  12.537   0.217  12.724  0.1915 -0.1064  0.2716
11460W        W30994  11.630  16.011   4.400  0.1633 -0.1053  0.3696
11461W        W30995   8.144  12.548  15.166  0.0111 -0.1311  0.1001
11462W        W30996   2.880   5.682  11.856 -0.0141  0.1481 -0.3828
11463W        W30997  15.092  11.002  14.484  0.0096 -0.0790 -0.3735
11464W        W30998  15.753  10.850  15.794 -0.0804 -0.0698 -0.0619
11465W        W30999   5.806  15.044   4.488  0.1044 -0.2568  0.2711
11466W        W31000   7.391  15.550   0.942 -0.0792 -0.2805  0.3533
11467W        W31001   7.910  14.241  14.923 -0.1281  0.3068 -0.0825
11468W        W31002  11.645  17.284  12.507 -0.0325  0.1716  0.1758
11469W        W31003   3.719  16.595   5.987  0.0299 -0.3293 -0.1397
11470W        W31004  12.203   5.947  15.272  0.1173 -0.2360 -0.4412
11471W        W31005  16.683  12.272   0.213 -0.0418 -0.0008  0.0248
11472W        W31006  13.640  12.948   3.461  0.0766 -0.0159  0.2049
11473W        W31007  12.729   7.696   1.635 -0.0691 -0.3502 -0.0546
11474W        W31008   1.483  16.625  12.977  0.0748  0.1951  0.0918
11475W        W31009  16.970  10.840   3.601 -0.1667  0.4078 -0.1635
11476W        W31010  15.954   4.345   1.612 -0.1192  0.1064  0.0951
11477W        W31011   3.233   1.297  16.174  0.0063 -0.4465 -0.2782
11478W        W31012   9.869   9.839  14.034 -0.3013  0.2600 -0.0490
11479W        W31013   9.208   1.059   2.500  0.0845 -0.1479  0.2055
11480W        W31014  13.079   6.514  16.099 -0.0194  0.1769 -0.0667
11481W        W31015   7.345   8.206   2.205  0.5732  0.1608  0.2476
11482W        W31016  14.183   8.099  14.763  0.3582  0.1116 -0.0645
11483W        W31017   2.006  16.118   0.618  0.3940 -0.1162  0.1667
11484W        W31018   7.998   8.065   1.816 -0.4638 -0.0623  0.0432
11485W        W31019   0.110   4.053  15.435 -0.0538  0.2876 -0.0796
11486W        W31020   1.242   0.664   3.601  0.1190 -0.0942  0.0883
11487W        W31021   6.003  14.746   0.361 -0.0080  0.1406  0.0608
11488W        W31022  16.040   9.376  14.169  0.2573 -0.3051  0.0092
11489W        W31023   8.152  10.575   3.953  0.0944  0.3220 -0.0015
11490W        W31024   9.556   5.251  13.351 -0.3017 -0.3696  0.1273
11491W        W31025  12.019  10.467   4.512  0.0096 -0.0162 -0.0202
11492W        W31026   5.321   4.156   1.858 -0.1473 -0.1954 -0.0963
11493W        W31027   7.408  10.464   1.110 -0.1347 -0.0137  0.0834
11494W        W31028   3.829   2.621   1.821 -0.0250  0.2089  0.2213
11495W        W31029  13.123   2.868   4.087 -0.1371  0.0784 -0.0260
11496W        W31030  17.183  10.123  14.210  0.2174 -0.2352 -0.4473
11497W        W31031  10.870   1.652   2.970  0.0885 -0.0137 -0.4371
11498W        W31032   8.417  13.835   1.425 -0.1181 -0.2297  0.3331
11499W        W31033   0.664   6.758   4.228 -0.3594 -0.0532 -0.2545
11500W        W31034  10.390  14.406   2.157 -0.2357 -0.0415 -0.2617
11501W        W31035   4.016  17.864  14.271  0.2467  0.1513  0.1375
11502W        W31036  15.784   2.803  14.243  0.2179 -0.1337  0.1289
11503W        W31037  11.220   4.380   0.881  0.0812 -0.0207  0.2660
11504W        W31038  11.475  16.004  14.828  0.0715  0.0965  0.2744
11505W        W31039   9.424   9.071  14.645 -0.0720  0.1794 -0.1682
11506W        W31040  10.973   9.707   4.950 -0.1853  0.0313 -0.0602
11507W        W31041   3.108   6.733  12.094 -0.0475 -0.0737 -0.1665
11508W        W31042  16.117  10.924   0.371  0.0666  0.0752 -0.0087
11509W        W31043   6.605  11.389  14.621  0.3411 -0.0019 -0.1706
11510W        W31044   8.234  11.333  12.655 -0.1759 -0.1209  0.1644
11511W        W31045   0.599   6.412   2.257  0.1363 -0.0635 -0.2706
11512W        W31046   5.466   2.111   1.889  0.1853 -0.0906 -0.0288
11513W        W31047  14.793   5.265   4.580 -0.1592  0.3459  0.2435
11514W        W31048   7.712  17.386  16.373 -0.0575  0.0670 -0.1112
11515W        W31049  15.476   1.103   0.142  0.1047 -0.0960 -0.0626
11516W        W31050   1.478  10.169   3.817  0.0420  0.1939  0.2217
11517W        W31051   5.123   4.406  15.680  0.1743 -0.0370  0.2393
11518W        W31052  15.858  12.138  14.462 -0.1425 -0.2361 -0.1647
11519W        W31053  12.023  10.836  15.643 -0.0323 -0.0654 -0.0715
11520W        W31054   2.508  10.361   1.995 -0.0323 -0.0361  0.1621
11521W        W31055   5.106  12.168   5.908 -0.1535  0.3440  0.0943
11522W        W31056  16.719  15.581   3.684 -0.1759  0.1738  0.1804
11523W        W31057  12.319   8.731   3.746 -0.0505  0.4049  0.1408
11524W        W31058  14.399  11.682  12.114  0.2271  0.2346  0.0709
11525W        W31059   8.539  14.286   2.285  0.4866 -0.0987  0.1595
11526W        W31060  11.705   6.295  12.173  0.2528 -0.2152  0.1543
11527W        W31061   0.496   1.185  10.974 -0.2471  0.0618  0.0634
11528W        W31062   8.527   9.007  12.997  0.1028 -0.0374  0.1565
11529W        W31063  17.424   5.801  12.363 -0.1081 -0.1482 -0.1778
11530W        W31064  15.986  13.938   3.148 -0.2438  0.0057 -0.0142
11531W        W31065  13.053   4.017   1.560  0.1199 -0.1629  0.3234
11532W        W31066   5.670  10.312   0.244  0.1190 -0.2800 -0.0410
11533W        W31067   7.625   4.283  13.274  0.0103  0.1248  0.1463
11534W        W31068  10.023  11.714   3.769 -0.0928 -0.1098  0.3322
11535W        W31069   9.043  10.310  13.009  0.1649  0.0257  0.1648
11536W        W31070   6.036  15.024   3.987  0.3715 -0.2755  0.2767
11537W        W31071  17.620   2.591  16.198  0.3572 -0.1006 -0.3806
11538W        W31072   2.472   6.115   2.425  0.2204 -0.0077 -0.0722
11539W        W31073  15.737  10.649   2.316  0.2003  0.0717  0.1557
11540W        W31074   6.382   4.604  15.923 -0.0973  0.0036  0.0267
11541W        W31075  16.525  14.171  15.180  0.0009  0.1512  0.2134
11542W        W31076  12.254   0.356   2.670 -0.1631 -0.1269 -0.1010
11543W        W31077   3.150   1.809   3.843 -0.0049 -0.1368  0.1653
11544W        W31078  11.451   7.303   3.208  0.4420 -0.2822 -0.0060
11545W        W31079   4.948   4.989   5.182 -0.3180 -0.2093  0.0811
11546W        W31080   7.597   0.142   0.332  0.0238 -0.0052  0.2394
11547W        W31081   9.956  16.193   0.225 -0.4207 -0.0969 -0.0057
11548W        W31082   4.943  11.192  14.655 -0.0686  0.0200 -0.2664
11549W        W31083   3.747  17.662   1.300 -0.1358 -0.0764 -0.0568
11550W        W31084   8.445  14.180   4.357  0.3379  0.4234 -0.0015
11551W        W31085   2.857   2.758  12.130  0.0290  0.1373  0.0444
11552W        W31086  12.380   9.845  15.329 -0.0626  0.0404  0.0776
11553W        W31087  17.850   5.299  16.642  0.1348 -0.3175  0.0389
11554W        W31088   6.896  16.774  13.271  0.1249 -0.0371 -0.1049
11555W        W31089  14.770  11.587   2.727 -0.1973 -0.0894 -0.3358
11556W        W31090  13.799   2.934  15.664  0.2803 -0.2494 -0.2830
11557W        W31091   9.862   7.801   5.042 -0.3789 -0.0757  0.0665
11558W        W31092  15.333  10.314   2.509 -0.5497  0.0053  0.2792
11559W        W31093  16.713   5.373   1.764  0.1591 -0.0391  0.1161
11560W        W31094   9.388   8.697   2.380 -0.0104 -0.1764 -0.0229
11561W        W31095   4.162  13.809  14.161  0.2923  0.0357  0.2511
11562W        W31096  12.397  11.731   0.479  0.0593  0.0036  0.0193
11563W        W31097  16.604  15.182   2.749  0.0589  0.3274 -0.1538
11564W        W31098  14.843   2.065   0.891  0.5344  0.1012 -0.2150
11565W        W31099  15.233   7.843   2.711 -0.0180  0.2412  0.2193
11566W        W31100   4.313   5.276  15.844 -0.4513  0.3080  0.2646
11567W        W31101  16.347  13.893   3.819 -0.1041  0.2140  0.0013
11568W        W31102  14.914  17.843  12.684 -0.1569  0.1879 -0.2117
11569W        W31103   7.226   1.969  13.707  0.6620  0.2051 -0.0991
11570W        W31104  12.526  12.797   1.998  0.1239  0.3517 -0.0680
11571W        W31105   7.897   2.152   4.534  0.0328 -0.0845 -0.2762
11572W        W31106   6.198   3.527   0.618  0.2671 -0.2751  0.1529
11573W        W31107   8.617  10.560  16.525  0.1894  0.2194  0.2984
11574W        W31108   3.059   7.258   0.051 -0.0037  0.1338  0.1735
11575W        W31109  15.691   5.467   0.516  0.0013  0.1407 -0.1012
11576W        W31110   9.646   9.253  12.852  0.1540 -0.0117 -0.1005
11577W        W31111  15.625  17.486   0.932  0.1609 -0.0534  0.1783
11578W        W31112   7.880  10.837   1.052  0.0982 -0.1026  0.2955
11579W        W31113  10.685   4.631   4.543  0.3352 -0.2415 -0.1284
11580W        W31114  14.028   3.143   2.275 -0.3020 -0.0875 -0.0647
11581W        W31115   9.267  13.770   4.518  0.1290 -0.2058  0.1993
11582W        W31116   6.447   2.574  14.905 -0.0611  0.0659 -0.0863
11583W        W31117  10.389   2.614  15.273  0.2855  0.1529  0.0717
11584W        W31118  14.606  12.400   0.534  0.0576 -0.4082 -0.1625
11585W        W31119   9.403   3.455   0.791 -0.0727  0.2383 -0.3697
11586W        W31120  16.990   8.370  13.236  0.1444  0.1729 -0.0251
11587W        W31121  13.774   6.372   2.015 -0.0305 -0.0410 -0.0586
11588W        W31122   9.352   0.471   2.623 -0.0536 -0.1449  0.1102
11589W        W31123   0.672   3.761  13.149 -0.1070  0.3333 -0.0272
11590W        W31124   0.857  11.600  13.718 -0.1647  0.0657  0.1125
11591W        W31125  12.442   4.958  15.283 -0.2399  0.2215 -0.1812
11592W        W31126  14.969  13.418   0.825  0.3133  0.1690  0.0309
11593W        W31127   2.784   5.366   1.893  0.2003  0.1369  0.1043
11594W        W31128   5.680   2.164   4.568 -0.0123 -0.0217  0.0462
11595W        W31129   1.633   8.845  13.407  0.2148  0.0639  0.0075
11596W        W31130  17.329  16.416   1.585 -0.0195 -0.0785  0.0294
11597W        W31131   0.349  15.340  13.073  0.2611 -0.0236  0.0940
11598W        W31132  17.134   3.334  15.674  0.0931 -0.2643  0.1669
11599W        W31133   1.798  10.597  15.102  0.0323  0.0112 -0.0105
11600W        W31134  17.793   1.206   0.474  0.2456  0.1885 -0.0670
11601W        W31135  17.437   1.451   3.046 -0.0950  0.0071  0.0523
11602W        W31136  10.837  11.554  13.238  0.0341  0.0832 -0.0872
11603W        W31137   3.417   5.160   2.499 -0.0234 -0.1786  0.0623
11604W        W31138  12.453   1.908  15.974 -0.0392 -0.0380  0.1413
11605W        W31139   6.570   5.183   3.820  0.1223  0.0381  0.1801
11606W        W31140   7.167  10.976   2.773  0.1731 -0.1781  0.2132
11607W        W31141   0.175   8.814   1.978 -0.0148 -0.0745  0.1290
11608W        W31142  14.431   0.256   1.101 -0.0116 -0.2282 -0.0209
11609W        W31143   0.344  17.261   4.764 -0.0751 -0.0978  0.4065
11610W        W31144   2.620   1.773   4.799 -0.4943 -0.4128 -0.3692
11611W        W31145  14.002   0.350  12.899 -0.0836  0.0604 -0.3068
11612W        W31146   1.987  13.905   1.209  0.1785  0.0425  0.0393
11613W        W31147  14.134   6.064   0.381 -0.0062  0.2824  0.0720
11614W        W31148  17.638   6.331   3.629 -0.2023 -0.2604 -0.1120
11615W        W31149  16.924   9.622   1.968  0.1129 -0.1310 -0.2112
11616W        W31150   6.723  13.093  15.001 -0.3643 -0.0121 -0.1886
11617W        W31151   0.790   0.312  15.364  0.0770  0.0966 -0.1145
11618W        W31152   4.254  12.538   0.498  0.0889 -0.0538 -0.4663
11619W        W31153   4.630  14.671  16.263 -0.1604  0.2750 -0.1404
11620W        W31154   0.154   3.905  15.923 -0.0456 -0.0646  0.1913
11621W        W31155  12.635   6.134  14.671 -0.3078 -0.2515  0.1077
11622W        W31156  14.516  10.696   1.352 -0.0881  0.1545  0.0174
11623W        W31157  15.989  13.848   2.628 -0.1460  0.0415  0.0509
11624W        W31158  15.186   6.055   4.274  0.1847  0.0812 -0.2195
11625W        W31159  14.553   4.449   0.441 -0.1128  0.3371 -0.1469
11626W        W31160  12.990   2.846   3.609  0.2817  0.0597  0.0110
11627W        W31161   9.164  15.503  14.213 -0.3346  0.0841  0.3137
11628W        W31162   6.180   2.573   0.827 -0.0391  0.0261 -0.0536
11629W        W31163  14.257   4.880   2.730 -0.2538 -0.1149  0.0005
11630W        W31164   1.864   5.388  16.474 -0.2127 -0.0526  0.0733
11631W        W31165  15.490   0.441   3.103 -0.3180 -0.1389  0.2195
11632W        W31166   9.506   6.470   4.168 -0.4714  0.2362 -0.0457
11633W        W31167   0.761   5.802  12.630 -0.1750 -0.3792 -0.2113
11634W        W31168   5.920   5.239  15.558  0.2925 -0.1076  0.1455
11635W        W31169  15.355  17.100   3.718  0.2904  0.2234  0.2577
11636W        W31170   3.843  13.807  13.700  0.2520 -0.1342 -0.1185
11637W        W31171  11.521   8.433  14.678  0.1727  0.1342  0.2625
11638W        W31172   5.203   2.863  15.383  0.2984 -0.0863  0.1072
11639W        W31173   3.015  17.664  15.992 -0.0359  0.0237 -0.0492
11640W        W31174   7.740  11.339  12.631  0.0371 -0.0223 -0.1565
11641W        W31175   7.098  12.517  16.536  0.0058 -0.3440 -0.1705
11642W        W31176   6.907   4.130  11.669 -0.1459  0.2132 -0.0019
11643W        W31177   3.785  15.491   0.940 -0.1942 -0.1111 -0.3866
11644W        W31178   1.556   0.565  15.683  0.0998  0.0973  0.3650
11645W        W31179   2.074  17.293  14.567 -0.0111 -0.1458  0.2871
11646W        W31180  10.531   1.652  16.541  0.0265  0.1954 -0.1236
11647W        W31181   5.079  15.902   1.760 -0.3089 -0.0861  0.2078
11648W        W31182  12.119   1.125  14.254 -0.1390 -0.0216  0.1409
11649W        W31183   6.975  16.061  14.966  0.1775  0.0668 -0.3927
11650W        W31184   4.984  13.812  14.762 -0.1666 -0.1764 -0.3036
11651W        W31185   1.737   9.386  13.217 -0.0139  0.2200  0.0254
11652W        W31186   6.789   3.956  13.870  0.1247 -0.1109  0.3667
11653W        W31187   1.271  16.289  16.249 -0.0407 -0.2069  0.2818
11654W        W31188   9.122  14.939  12.593 -0.0950 -0.0991 -0.1609
11655W        W31189   2.391  11.813   3.773 -0.0465  0.1127  0.0956
11656W        W31190  15.490   1.495   2.656  0.2868  0.1129  0.0059
11657W        W31191  11.685  15.903  16.671 -0.0756 -0.0113 -0.1317
11658W        W31192   5.463   9.360   0.680 -0.0315  0.1156  0.2436
11659W        W31193  17.104   2.327  14.219  0.2000 -0.0748  0.3484
11660W        W31194  13.256   0.999  11.460  0.0417  0.0201 -0.0144
11661W        W31195  17.281   2.768   4.463  0.1167 -0.0594 -0.0117
11662W        W31196  13.009   8.878  14.654 -0.3107  0.2679  0.3118
11663W        W31197   7.364   3.789  15.611 -0.0815  0.2052 -0.0248
11664W        W31198  11.375  11.338  15.150  0.3029 -0.0802 -0.3328
11665W        W31199   1.470   6.921   1.432 -0.1128 -0.1085  0.1951
11666W        W31200   6.238   4.360   0.336 -0.0360 -0.4455 -0.0453
11667W        W31201   2.491  13.530   0.360  0.1417 -0.0311  0.0391
11668W        W31202   6.209   6.172  15.179  0.2874 -0.0339  0.0432
11669W        W31203  11.428  13.300  15.002 -0.0151 -0.1545  0.1717
11670W        W31204   0.426  14.553  14.567 -0.0873  0.2123  0.2914
11671W        W31205   2.400   0.069   4.777 -0.1379 -0.1988  0.0973
11672W        W31206   7.524  17.353  15.445 -0.0786  0.0128 -0.0177
11673W        W31207  12.707   2.255  12.456 -0.2066 -0.0171 -0.1133
11674W        W31208   1.417   0.042   0.994 -0.1654 -0.1611 -0.0169
11675W        W31209   0.217  13.267  12.968 -0.0741 -0.0836 -0.0612
11676W        W31210  14.252   4.544  15.505  0.2271 -0.0887 -0.1590
11677W        W31211   7.749   7.446   4.040  0.4008 -0.0749  0.0840
11678W        W31212   2.872   9.499   2.337  0.0318 -0.2983  0.0561
11679W        W31213   4.101   4.491   4.342  0.1212  0.0181 -0.2302
11680W        W31214   0.112  11.332  13.193 -0.0661 -0.2419 -0.0588
11681W        W31215  15.980  10.462   1.372  0.2974  0.1378 -0.0421
11682W        W31216   6.178   8.336  16.116  0.1232 -0.1525  0.1458
11683W        W31217  10.110   4.386  11.700  0.1068  0.1858  0.1542
11684W        W31218   0.241   6.364  14.490  0.1089  0.1086 -0.1029
11685W        W31219   8.490   7.964  12.089  0.1695 -0.1599  0.3098
11686W        W31220  10.689   2.795  11.689  0.1975 -0.1005  0.1799
11687W        W31221  15.645   6.830   2.199 -0.1912  0.0001 -0.2196
11688W        W31222   5.484   9.075   0.248  0.0565 -0.0155  0.0403
11689W        W31223   0.893  11.340   1.511  0.1329 -0.1518 -0.1530
11690W        W31224   1.367   9.321   2.693 -0.1731 -0.1551  0.0182
11691W        W31225  14.960   8.631  13.045 -0.1385  0.0367  0.1900
11692W        W31226  17.629   8.929   3.277  0.3219  0.0294 -0.0653
11693W        W31227   1.542  12.184  11.811  0.0818 -0.4000 -0.0995
11694W        W31228  12.605  13.051   1.013 -0.0625 -0.3125 -0.0473
11695W        W31229  11.966  13.379   3.673  0.1230  0.1302 -0.2208
11696W        W31230   6.015   0.537   1.073  0.1681 -0.0828  0.0938
11697W        W31231   7.436   3.498  10.594 -0.4755  0.2057 -0.2248
11698W        W31232   9.719   8.523  13.455  0.1477 -0.0805 -0.1531
11699W        W31233   3.033  14.821  12.828 -0.1185  0.0228  0.2001
11700W        W31234  16.824   1.308  11.702  0.0526 -0.0132  0.3432
11701W        W31235   5.723   7.411   1.402 -0.1023 -0.2114 -0.0057
11702W        W31236   0.030   1.977   4.382  0.0804 -0.0479 -0.1584
11703W        W31237   3.865   0.947   3.068 -0.1732 -0.1498 -0.1080
11704W        W31238  15.296  11.808  13.785  0.0070  0.0689 -0.0578
11705W        W31239   8.123   0.932  13.975  0.2658  0.2248  0.0489
11706W        W31240   3.201  15.560   3.122 -0.1421  0.1472 -0.0879
11707W        W31241  14.549  12.141   3.053 -0.0802  0.0573 -0.1146
11708W        W31242   2.847  16.791  13.868  0.1118  0.1909  0.0322
11709W        W31243   6.011   5.701   1.643  0.0349 -0.1866  0.0313
11710W        W31244  16.235  12.251   3.266  0.0136 -0.0674 -0.2175
11711W        W31245  14.874   0.840  15.879 -0.3895  0.1811 -0.0741
11712W        W31246   9.572   8.772   0.067 -0.0255 -0.2874 -0.1272
11713W        W31247  15.690   1.298  14.107  0.1423 -0.3070  0.2197
11714W        W31248   8.362  16.359   2.668 -0.1243  0.1398 -0.0229
11715W        W31249  16.684   3.599   0.256  0.2775 -0.0601  0.4102
11716W        W31250   5.360  12.500   5.008 -0.3943  0.0561  0.0971
11717W        W31251   5.419   7.644  15.333  0.1061  0.1468  0.0397
11718W        W31252   2.699   5.255  16.019  0.2479  0.1240  0.1191
11719W        W31253   1.516   7.416  15.603  0.1537  0.0808  0.3059
11720W        W31254  10.713  14.652   1.718 -0.0057  0.0571  0.2398
11721W        W31255   6.184  13.243  15.027 -0.2992  0.0185  0.1425
11722W        W31256  15.699  12.413   0.959  0.0172 -0.0150  0.2247
11723W        W31257   3.692  13.230  12.683  0.1622 -0.1804 -0.2443
11724W        W31258   2.982   7.253  12.015  0.2727  0.1249  0.2552
11725W        W31259  13.417   3.915   4.811  0.0205  0.0830 -0.4009
11726W        W31260   3.816  15.991  16.339  0.0014 -0.2512  0.3118
11727W        W31261  16.093   3.484   3.399 -0.3423  0.1648  0.1515
11728W        W31262   5.391  11.407  10.934  0.0329  0.1426 -0.1898
11729W        W31263  17.136  15.742  16.384 -0.1021  0.2110 -0.0100
11730W        W31264   9.545   8.844  12.491  0.2720  0.1548 -0.1525
11731W        W31265   2.662   4.115   3.664  0.1455  0.0601 -0.1209
11732W        W31266   9.270  12.459   4.852 -0.1427 -0.0742 -0.2910
11733W        W31267   1.765   6.077   3.733 -0.0621 -0.0172 -0.0523
11734W        W31268   7.316   8.140  14.525  0.3202 -0.0536 -0.6773
11735W        W31269   4.371  14.650   3.098  0.0009 -0.0728 -0.0674
11736W        W31270  12.303   3.982   1.550 -0.1974 -0.0683  0.1000
11737W        W31271   3.389  16.607  12.559  0.1129  0.0344 -0.1209
11738W        W31272   9.893   5.625  15.713  0.1882 -0.2546  0.1366
11739W        W31273  16.268  17.637  13.420 -0.1770  0.1310 -0.3125
11740W        W31274   4.691   9.747   2.088  0.2304 -0.1855  0.3124
11741W        W31275  15.655   9.375  12.891  0.1218 -0.1763  0.1577
11742W        W31276   5.903   1.476   1.661  0.0622  0.5759  0.1395
11743W        W31277   3.952  12.205   1.729 -0.0270 -0.0113  0.3347
11744W        W31278   1.508   8.353   0.607  0.0150  0.2283  0.1497
11745W        W31279  11.646  17.543   0.633  0.0360  0.0209 -0.1530
11746W        W31280  12.163   3.134   0.998  0.0214  0.0608  0.1406
11747W        W31281   0.019   3.091  12.818  0.0671 -0.1648  0.0647
11748W        W31282   9.872   9.147   0.207 -0.1838  0.1602  0.1838
11749W        W31283   6.472   1.701   4.735  0.0422 -0.0426  0.0659
11750W        W31284  12.153   7.439   0.710 -0.0534 -0.1966 -0.3660
11751W        W31285  17.381   0.750  13.218 -0.1835 -0.1170 -0.2012
11752W        W31286   3.546  11.023   1.052 -0.0099 -0.1030  0.1449
11753W        W31287   5.457   3.382  11.947  0.1409  0.0645 -0.2383
11754W        W31288  17.043   3.438  15.149 -0.1993 -0.1858 -0.1004
11755W        W31289  11.673  16.633   3.825  0.0191  0.2896 -0.3858
11756W        W31290   5.866   2.130  16.181 -0.1010  0.0556  0.1304
11757W        W31291  11.093   4.238  12.939  0.1972 -0.3044  0.3541
11758W        W31292  17.145  15.850   4.692 -0.0095 -0.1556  0.1847
11759W        W31293   8.619  15.708  14.203 -0.1747  0.0348  0.0306
11760W        W31294   0.830   8.463  14.824 -0.0244  0.0624 -0.2296
11761W        W31295  11.609  12.433  13.525  0.0859 -0.0450  0.3771
11762W        W31296   8.269  12.656   1.648  0.3525  0.0875 -0.1674
11763W        W31297  14.167   5.785  12.342  0.1253 -0.3822  0.0254
11764W        W31298  14.867   7.069   3.394  0.1405 -0.1613 -0.0251
11765W        W31299   5.332  16.419   0.231  0.1932 -0.1017  0.2996
11766W        W31300  16.236   6.281  11.951 -0.1151 -0.1147 -0.0947
11767W        W31301   1.012  16.262   2.442 -0.1416 -0.2446 -0.0567
11768W        W31302  13.134   0.770  12.341  0.0132 -0.0866  0.0038
11769W        W31303   3.208   1.992  14.203  0.2298 -0.0342 -0.0380
11770W        W31304   6.161  10.300   5.246 -0.0258 -0.0186  0.0593
11771W        W31305   9.523   5.433  15.415  0.1593  0.0480  0.2520
11772W        W31306  10.387  17.817  14.200 -0.1820  0.3621  0.1849
11773W        W31307   4.232   3.419   3.728 -0.2334  0.1596  0.1728
11774W        W31308  12.178   8.395  11.127 -0.0659  0.1234  0.1517
11775W        W31309   7.815  13.789   2.429  0.0908 -0.3852 -0.0678
11776W        W31310  10.872   3.341   3.862 -0.3277 -0.6043 -0.1347
11777W        W31311   5.028   8.230  14.192 -0.3385  0.1476 -0.2512
11778W        W31312   1.944   9.718  14.037 -0.0196  0.0308  0.0097
11779W        W31313   7.528  15.487   2.180  0.1321 -0.0454  0.1311
11780W        W31314   5.492  15.270  16.181 -0.0679  0.0727  0.1398
11781W        W31315   3.382  12.278   2.470 -0.1995 -0.2081 -0.0074
11782W        W31316  10.280  14.407   1.532 -0.0857  0.2358 -0.1415
11783W        W31317   2.774  17.028   3.871  0.3744  0.4145  0.2501
11784W        W31318  11.686   9.471  14.894  0.2352 -0.0286  0.3181
11785W        W31319  12.163   3.218   4.212 -0.0080 -0.3040 -0.3556
11786W        W31320  14.836   1.105   3.956 -0.1592 -0.1029  0.1329
11787W        W31321  13.130   2.642   1.038  0.2027 -0.4314  0.1570
11788W        W31322   9.950  17.873  15.108 -0.2280 -0.0716 -0.2536
11789W        W31323   4.110   9.650   4.091 -0.0286  0.4138 -0.3002
11790W        W31324   0.760  17.743   0.735  0.2406  0.1784  0.1178
11791W        W31325   7.172  13.948  14.186 -0.3282  0.0514  0.0607
11792W        W31326   7.719   6.430  15.449  0.1376 -0.1262  0.2000
11793W        W31327  11.393  15.221  15.036  0.0616 -0.2449 -0.2866
11794W        W31328   8.672  15.355  15.663 -0.0678 -0.2603  0.2304
11795W        W31329   6.979   0.143  12.754  0.4635  0.4824  0.0168
11796W        W31330  11.556   1.937  13.933 -0.2261  0.3181  0.0762
11797W        W31331   2.453   1.136   4.091 -0.0253 -0.3733 -0.1005
11798W        W31332  13.059   9.254  14.182 -0.0641 -0.2079  0.0056
11799W        W31333   8.602  17.597   4.750  0.1464  0.0051  0.0049
11800W        W31334   9.703  15.014   0.810 -0.2258 -0.1391 -0.2745
11801W        W31335   4.043   3.662   1.971 -0.2948  0.3144  0.0194
11802W        W31336   0.518   8.543   5.287 -0.0834  0.0912  0.1603
11803W        W31337   7.096   3.854   3.249  0.1340  0.1050  0.0861
11804W        W31338   7.674   0.881  15.549  0.0575 -0.0850  0.1300
11805W        W31339  17.431   6.982   2.988  0.0652  0.1445 -0.3852
11806W        W31340  10.727   6.691  13.644 -0.0399  0.0498  0.2733
11807W        W31341  13.900  15.799   3.233  0.3514  0.1693 -0.2571
11808W        W31342   8.745   9.410   1.904 -0.0970 -0.1427 -0.0991
11809W        W31343   1.750   9.425  11.981 -0.0627 -0.1954  0.0660
11810W        W31344   6.156  14.276  15.523  0.1602 -0.1325 -0.0610
11811W        W31345  13.176  15.771   0.180 -0.0557 -0.0944  0.0712
11812W        W31346   1.948  17.382  15.099  0.1146 -0.2194  0.0054
11813W        W31347   1.790  14.175  15.692 -0.0053  0.1608  0.1938
11814W        W31348   1.403   1.740   4.025  0.3147 -0.0133 -0.2136
11815W        W31349   8.097   8.465  16.667  0.1369  0.0291  0.2562
11816W        W31350   8.094   1.906  15.809 -0.3302 -0.0241  0.2071
11817W        W31351   4.578   8.692  16.157 -0.0579  0.1341 -0.0209
11818W        W31352  14.505   1.280  14.329  0.0372  0.0712  0.1554
11819W        W31353   1.405   0.223   1.485 -0.1478 -0.1932 -0.0541
11820W        W31354  17.006  15.377   4.750 -0.1426  0.0770  0.3586
11821W        W31355   6.053  11.856  15.109 -0.1206  0.0250 -0.0569
11822W        W31356  12.789   0.150   3.838  0.1091  0.2392 -0.1706
11823W        W31357   8.999   0.641   2.333  0.1184 -0.1617 -0.1477
11824W        W31358   6.952  10.240   1.065 -0.0256 -0.0882  0.1363
11825W        W31359   5.732   9.045  16.105 -0.0604  0.0090 -0.5007
11826W        W31360  17.402  12.935   0.790 -0.2588  0.0090 -0.1187
11827W        W31361  14.453   1.039  13.367  0.1274  0.1359 -0.0797
11828W        W31362   1.372   2.637  14.794  0.3019 -0.0671 -0.1559
11829W        W31363   8.926   6.778  16.011 -0.0271 -0.1332  0.0219
11830W        W31364   2.068  14.354  13.790  0.3141  0.2098 -0.3051
11831W        W31365   7.304   4.056   2.624 -0.0409 -0.1153  0.0289
11832W        W31366  12.056   7.683  11.986 -0.2737 -0.2434 -0.1832
11833W        W31367   3.918   5.472  13.183  0.0466  0.0212 -0.4921
11834W        W31368  10.566  14.070   1.354  0.1709  0.2383  0.2509
11835W        W31369  14.584   5.037   2.400 -0.0037  0.1084  0.1570
11836W        W31370  15.465  11.971   4.614  0.2764 -0.0609  0.3938
11837W        W31371   1.883  11.413  14.932 -0.0455 -0.3834  0.0520
11838W        W31372  10.404   3.441  14.663 -0.2313  0.0879 -0.3956
11839W        W31373   9.933   5.183  15.472  0.0449  0.0842 -0.0944
11840W        W31374  17.482   9.334   4.262  0.0788 -0.0016 -0.0276
11841W        W31375   8.656  15.219   0.295 -0.0387 -0.0704 -0.0159
11842W        W31376  11.715  16.518   2.323 -0.2505  0.1748 -0.0705
11843W        W31377  11.178   7.365  16.304 -0.1414 -0.0476  0.1811
11844W        W31378   9.847  14.393   0.019  0.3307 -0.2121 -0.1268
11845W        W31379   0.499  12.704   2.637 -0.0116 -0.1107  0.1827
11846W        W31380  15.148  16.326  16.145  0.1001  0.2129  0.1622
11847W        W31381  13.088  14.282  13.535 -0.2394  0.0289 -0.1344
11848W        W31382  13.792  13.939  15.425  0.1195  0.1534 -0.1461
11849W        W31383   5.475   1.172  15.791  0.2058  0.1139 -0.1431
11850W        W31384   3.991   9.101  12.819 -0.0157 -0.0737  0.0843
11851W        W31385   9.352  12.076   0.687 -0.1873 -0.0228  0.3174
11852W        W31386  17.232  17.228   4.747  0.0985 -0.3336 -0.2376
11853W        W31387   7.613   5.533   1.803  0.1133 -0.0501 -0.1985
11854W        W31388  12.164   2.554   3.933  0.0576  0.3180  0.1239
11855W        W31389  13.628  14.882  15.790 -0.0709  0.2653 -0.3508
11856W        W31390   9.990   6.850  15.638  0.2743 -0.0420 -0.1493
11857W        W31391   8.931   4.339  13.015 -0.1518  0.1626 -0.0217
11858W        W31392   6.000   2.300   1.968  0.2182 -0.2040 -0.0323
11859W        W31393   9.587   9.944  15.514  0.2350  0.0284  0.1156
11860W        W31394   2.669   1.064   3.672  0.1641 -0.2277  0.2430
11861W        W31395  11.574  14.905   3.320  0.0766  0.1733  0.2538
11862W        W31396  17.437  16.591  12.503 -0.1849 -0.2852 -0.2645
11863W        W31397  15.424   9.342   2.737  0.0972  0.4419 -0.0327
11864W        W31398   6.065   9.854   0.304  0.4671  0.2037 -0.0153
11865W        W31399  16.672  15.473   2.364  0.0944  0.0917  0.0476
11866W        W31400   0.578  12.042  13.596  0.0213  0.0468 -0.1059
11867W        W31401  11.610  14.522  13.868 -0.0719  0.0722 -0.2788
11868W        W31402   7.296  14.740   4.086 -0.3842  0.4187  0.1028
11869W        W31403   7.772   6.939   4.779 -0.0968 -0.1310 -0.2369
11870W        W31404  10.050   0.463  12.361 -0.1032 -0.0428 -0.2183
11871W        W31405   9.176   1.498  16.195  0.1728 -0.1958 -0.1960
11872W        W31406   3.922  14.885  12.370 -0.0616 -0.0517  0.1882
11873W        W31407  15.582   2.526  15.779  0.1387 -0.0879  0.2885
11874W        W31408   1.427   6.286  12.035 -0.1216  0.1685 -0.1170
11875W        W31409  14.785   6.572  14.546  0.1797 -0.1148  0.0119
11876W        W31410  14.463   7.961  12.694  0.0002 -0.1647  0.2771
11877W        W31411  13.705   8.531   3.247 -0.1060  0.2568  0.0464
11878W        W31412  11.098  10.537  12.295 -0.1732 -0.2684 -0.2456
11879W        W31413   7.575   3.439  15.104  0.0198  0.1664  0.3356
11880W        W31414  10.379  13.807   0.856  0.0746  0.1884  0.1290
11881W        W31415  16.961  10.122   1.950 -0.1924 -0.0095 -0.0459
11882W        W31416  15.991   1.668  14.539 -0.1096 -0.2862  0.0664
11883W        W31417   4.017  16.407   4.823 -0.2157  0.1962  0.3253
11884W        W31418  13.539   7.015   3.983 -0.1706  0.1132 -0.0587
11885W        W31419   1.994   1.684  13.348 -0.2574  0.0650  0.0379
11886W        W31420   2.305   5.876   1.467  0.3000 -0.0685  0.0009
11887W        W31421   6.721   6.728   5.420  0.0314 -0.1071 -0.1108
11888W        W31422  10.146  15.263   2.112 -0.2145 -0.1537  0.0063
11889W        W31423   8.984  17.472   4.278 -0.1947 -0.1750 -0.0858
11890W        W31424   8.485   0.301  14.057  0.0548  0.0845 -0.0529
11891W        W31425   0.957   5.072   2.065 -0.0720 -0.0294 -0.0188
11892W        W31426  15.528  13.722  12.520  0.2841 -0.2067 -0.1288
11893W        W31427   2.922  16.804   4.498  0.1732  0.0635  0.1103
11894W        W31428  13.826  15.694  12.419 -0.0789 -0.3835  0.0184
11895W        W31429  12.876  15.327  15.339  0.1138  0.1082 -0.0213
11896W        W31430   1.852  12.488   2.720  0.2184  0.3626  0.0411
11897W        W31431   3.277  16.878   0.028  0.2541  0.1710 -0.1472
11898W        W31432   7.241   8.352  16.738  0.0530  0.1046  0.2531
11899W        W31433   6.409   6.526   6.509 -0.1857 -0.0915  0.0367
11900W        W31434  15.082  11.934   0.040  0.0984  0.1209  0.0750
11901W        W31435  17.533   5.445   4.516 -0.0294  0.0747  0.0731
11902W        W31436   2.946   9.071   2.133  0.0936  0.1315 -0.1005
11903W        W31437  14.664  15.257  15.235  0.0751  0.0538  0.0922
11904W        W31438  14.923  16.789   0.625  0.0404  0.2019  0.3318
11905W        W31439  10.646  16.002  14.397  0.3089 -0.0894 -0.0908
11906W        W31440  10.776   3.707  15.549 -0.1910 -0.0232  0.0975
11907W        W31441   0.594   5.113   1.132 -0.5326  0.0363 -0.1979
11908W        W31442  14.041  16.698   3.567  0.0994  0.0515 -0.0616
11909W        W31443   1.830   3.674   0.362 -0.0836 -0.2159  0.3664
11910W        W31444   6.797  11.163  12.483 -0.1308 -0.0557 -0.1409
11911W        W31445   2.769   2.324   5.171 -0.0784 -0.1105 -0.2300
11912W        W31446   8.983   9.366   3.955 -0.0461 -0.1740  0.0125
11913W        W31447  15.310   6.183  13.863 -0.0581  0.0984  0.2492
11914W        W31448  12.987   7.389   2.284 -0.0007 -0.2731  0.3618
11915W        W31449  10.878   9.968  12.574  0.0818  0.0438 -0.0223
11916W        W31450  10.010   1.384   3.528 -0.0443  0.0884 -0.0951
11917W        W31451   2.786   2.086  12.117 -0.0145  0.2260 -0.2183
11918W        W31452   6.078  14.276   3.170  0.0028  0.0542  0.1530
11919W        W31453   1.165   8.130   2.030 -0.0844 -0.1160  0.2459
11920W        W31454  14.534  11.960   3.979  0.0976 -0.1089  0.1261
11921W        W31455  12.131   6.356   3.605  0.1409 -0.0264 -0.2321
11922W        W31456   8.008   6.438   2.935 -0.0711 -0.0207  0.0339
11923W        W31457  15.194  10.689   2.247 -0.2000  0.1787  0.3558
11924W        W31458   1.938   7.950  12.688  0.0133 -0.0505 -0.0051
11925W        W31459   8.461   0.339   2.337  0.0043  0.2528 -0.0240
11926W        W31460  12.742   6.003  16.243  0.1686  0.1753 -0.1673
11927W        W31461  11.994   8.885   2.886 -0.1539  0.4026 -0.0029
11928W        W31462   0.525   5.273   0.030 -0.2509 -0.0704 -0.1368
11929W        W31463  14.291  12.992   3.410 -0.1879  0.0643 -0.0117
11930W        W31464  10.312   3.485   0.686  0.2714  0.1185 -0.1256
11931W        W31465   2.852   0.324  16.706 -0.1316  0.2080 -0.2341
11932W        W31466   4.609  16.135  12.303  0.0185  0.1737 -0.0991
11933W        W31467  17.361  13.274   1.271  0.2599 -0.0881 -0.1710
11934W        W31468   4.926   1.578  14.637  0.1953 -0.0985 -0.3101
11935W        W31469   8.668  13.039   3.395  0.4197  0.3193  0.1819
11936W        W31470  15.009   9.311   1.269 -0.2441 -0.1734  0.2247
11937W        W31471   9.151   4.024   4.696 -0.1264 -0.0575 -0.0999
11938W        W31472  17.643   9.177  14.482 -0.0940  0.2217  0.2375
11939W        W31473   1.683   2.632   1.003  0.0598  0.0173 -0.0673
11940W        W31474   3.552   5.845  12.972 -0.1304  0.0480 -0.1623
11941W        W31475  15.984  14.912   0.620  0.0711  0.2306  0.2188
11942W        W31476   6.810  13.934  13.225 -0.3621 -0.0547 -0.0403
11943W        W31477   3.692   5.663   3.545  0.1041  0.0609 -0.0894
11944W        W31478   6.386  12.594  12.286  0.1891 -0.0346 -0.0707
11945W        W31479  13.193   7.912  11.961  0.1704 -0.1056  0.0107
11946W        W31480   5.679   0.632   5.238 -0.2912 -0.0263  0.1662
11947W        W31481  15.205   4.916  16.187 -0.0452 -0.1815 -0.1983
11948W        W31482   7.603   7.356   5.131 -0.2658  0.3832 -0.2708
11949W        W31483   5.778  12.913  14.110 -0.0553 -0.0107  0.2044
11950W        W31484   6.070  12.135   1.890  0.0168  0.3216  0.0699
11951W        W31485  16.230   2.106   4.922  0.1249  0.0134 -0.0344
11952W        W31486  16.717  13.923   1.192  0.0456  0.1470 -0.4182
11953W        W31487   9.968   9.408  11.894  0.4898  0.3417  0.2326
11954W        W31488   2.621  13.441  15.132  0.0670  0.2396  0.3000
11955W        W31489  13.588  11.172   0.933 -0.0681 -0.1003 -0.1328
11956W        W31490  10.395  17.440   4.274  0.1045 -0.2217  0.1928
11957W        W31491   4.643   2.418  11.915 -0.0051  0.1072 -0.0706
11958W        W31492   3.187   2.756   2.986 -0.3306 -0.0027  0.1629
11959W        W31493   3.521   2.442   0.917 -0.0079 -0.2038 -0.2071
11960W        W31494   1.918   9.257  14.163 -0.1905 -0.2650 -0.1851
11961W        W31495  17.793   0.764  12.512  0.4003 -0.4195 -0.0296
11962W        W31496  14.141  14.237  16.057 -0.2265  0.0681 -0.3708
11963W        W31497   5.580   2.577   2.142  0.0728  0.0807 -0.1034
11964W        W31498  17.141  11.865  11.813 -0.0910 -0.1021  0.1623
11965W        W31499   1.030  10.063   3.987  0.0848  0.4695  0.2131
11966W        W31500   7.025   9.166  13.703  0.1083  0.0672 -0.1012
11967W        W31501  12.106   0.378   3.146 -0.1418 -0.0915 -0.1013
11968W        W31502   9.386   3.303   4.674 -0.0768  0.2535  0.1973
11969W        W31503  17.449   4.187  14.002  0.3040 -0.1790 -0.1293
11970W        W31504  12.674  15.443   0.477 -0.1237  0.1105  0.1881
11971W        W31505  13.616   1.303  13.823  0.3614 -0.0210 -0.1954
11972W        W31506  14.074  15.251  14.617  0.1504  0.0769 -0.1776
11973W        W31507   7.587   0.948  14.698 -0.0008 -0.2443 -0.0772
11974W        W31508  11.672   2.476   3.845  0.0723  0.3617  0.0063
11975W        W31509   6.994   1.002   2.978 -0.0090 -0.1271 -0.1926
11976W        W31510  11.449  11.023   2.782 -0.2523  0.0443 -0.1667
11977W        W31511  12.300   4.350  14.386 -0.0032  0.0698  0.2707
11978W        W31512  15.412   6.641  12.425 -0.0862  0.0177  0.0838
11979W        W31513   3.315  12.422   0.734 -0.0801  0.4669 -0.0576
11980W        W31514  13.971   1.692  12.896  0.0953 -0.3221  0.1745
11981W        W31515  15.316  16.206   0.177 -0.2830 -0.1204 -0.2813
11982W        W31516  14.229   1.751   5.053 -0.0210 -0.0928 -0.2080
11983W        W31517   8.339   2.222   1.365 -0.1873 -0.1424 -0.3230
11984W        W31518  11.478   4.957   4.224 -0.1312  0.1878 -0.3882
11985W        W31519   3.874   6.082  16.689  0.0935  0.1183 -0.1070
11986W        W31520   8.391   1.022  11.912  0.0916  0.1487  0.0390
11987W        W31521   5.091   2.511  15.724 -0.2080 -0.2151 -0.1195
11988W        W31522   3.497   2.306   0.446 -0.0422  0.1081 -0.1725
11989W        W31523   5.781   8.172  15.699 -0.0986 -0.1475 -0.1853
11990W        W31524   9.932   7.084  12.459 -0.3388  0.3750 -0.3245
11991W        W31525   3.225  10.931   2.495  0.1597 -0.0582 -0.0182
11992W        W31526  12.561   0.086   1.873 -0.2535 -0.2665  0.2515
11993W        W31527  17.832   3.244  13.894 -0.2280  0.4739 -0.0297
11994W        W31528   6.744  16.446  15.272 -0.0561  0.0551  0.0437
11995W        W31529   4.322   5.493   5.142 -0.2107 -0.1238 -0.1312
11996W        W31530   4.780  10.774  15.812 -0.0532 -0.0072 -0.3147
11997W        W31531  15.493  13.858  13.741 -0.0242  0.2826 -0.0185
11998W        W31532   8.058  10.001  14.805 -0.0281 -0.1532  0.1370
11999W        W31533  10.007   5.159  12.932 -0.1145 -0.0698 -0.1887
12000W        W31534   1.612   0.326  15.077  0.2505  0.0292 -0.2524
12001W        W31535  11.279  10.108   3.422  0.0411  0.0333 -0.0577
12002W        W31536  14.743  16.981  15.048  0.2625  0.1226 -0.1487
12003W        W31537   1.251  17.282   3.797  0.1721  0.0374 -0.0481
12004W        W31538   0.420  13.035  12.121 -0.0096  0.0184 -0.1626
12005W        W31539  17.009   3.529   4.408  0.0303 -0.0053 -0.0283
12006W        W31540  16.326   9.332  16.666 -0.0591 -0.1125 -0.0503
12007W        W31541  16.402  11.147   2.480  0.0119  0.0538 -0.1017
12008W        W31542  12.038   6.194  13.959  0.1435  0.0381 -0.0154
12009W        W31543   6.750  14.167  14.335  0.0384 -0.0652  0.0365
12010W        W31544  15.073  12.550  14.472  0.0583  0.0680 -0.2163
12011W        W31545  17.255   4.959  14.654  0.0407 -0.1050  0.1176
12012W        W31546   5.246   5.219   3.667  0.2272 -0.0261  0.3147
12013W        W31547   3.223   4.504   3.901 -0.0699  0.1138  0.0267
12014W        W31548  16.045   9.087  11.848 -0.0101 -0.1379  0.1938
12015W        W31549   4.214  11.970  14.106 -0.2556 -0.2570 -0.1646
12016W        W31550   5.755   0.092  14.014  0.0495 -0.2040  0.2015
12017W        W31551   2.857   3.382   1.093  0.2536  0.4719 -0.0539
12018W        W31552   8.860  16.437   1.116 -0.0600  0.4738  0.0124
12019W        W31553  16.337   3.798  16.208  0.0367 -0.1385  0.3010
12020W        W31554   1.307   4.799  15.331 -0.0668 -0.0026  0.1713
12021W        W31555  12.613   7.978  12.835  0.3721  0.1496 -0.3113
12022W        W31556  10.673  10.907  14.009 -0.1692  0.2350  0.1839
12023W        W31557  11.034   0.507  15.509  0.0049 -0.0767 -0.1680
12024W        W31558   5.583   2.682  15.739  0.2085 -0.0679  0.1214
12025W        W31559   2.245   7.513   0.656  0.3611  0.2808 -0.0843
12026W        W31560   6.934   5.210   3.399 -0.3463 -0.0682 -0.2091
12027W        W31561   1.620   0.822   4.094 -0.1770  0.0850  0.0065
12028W        W31562  16.047  10.673  13.318 -0.0629 -0.0908 -0.1617
12029W        W31563   6.507   6.734  12.960 -0.0298  0.1241 -0.1391
12030W        W31564  13.130   5.812   2.623  0.1664 -0.1197  0.1039
12031W        W31565   2.262  12.437  16.648 -0.0181  0.1609 -0.2383
12032W        W31566   9.074   3.235   2.134 -0.0591 -0.0664  0.1528
12033W        W31567   3.193   7.677  12.164 -0.2584 -0.0427  0.0724
12034W        W31568  11.794  16.723  15.103  0.0522 -0.0743  0.1048
12035W        W31569   9.466  17.425   3.283 -0.0283 -0.1606 -0.1786
12036W        W31570   6.463   4.396  11.813 -0.1270 -0.1123  0.1323
12037W        W31571  12.183  13.329  14.887 -0.5320 -0.2089 -0.1339
12038W        W31572   2.542  10.237   2.452 -0.2122 -0.2636 -0.0704
12039W        W31573  15.470   6.490   1.477 -0.0178 -0.1026  0.0671
12040W        W31574   2.188  17.545   2.896 -0.0979  0.1640 -0.0915
12041W        W31575   5.897   2.032   0.429  0.1030 -0.1921 -0.0260
12042W        W31576   9.943  17.701   2.542 -0.1858 -0.1552  0.1681
12043W        W31577   2.432  11.814  16.658  0.0553  0.2285  0.0588
12044W        W31578   3.293  14.474   5.063 -0.0980  0.0214  0.1283
12045W        W31579   2.530   6.130   0.464 -0.1271  0.0103  0.1720
12046W        W31580   1.599  16.054  16.601 -0.3532  0.3604 -0.0794
12047W        W31581  14.673   2.203   1.402 -0.3157 -0.2068  0.0827
12048W        W31582  10.661  10.211  14.566  0.0224 -0.0397 -0.3637
12049W        W31583  14.832  15.982   3.727  0.0192  0.4850  0.0108
12050W        W31584  14.371  12.175  14.517 -0.2437  0.1199  0.3478
12051W        W31585   7.475   0.003  15.565  0.2623 -0.3119  0.0121
12052W        W31586  10.345   6.021  14.593 -0.4612  0.1331  0.0047
12053W        W31587  14.644  10.522   0.028  0.0694 -0.1618 -0.0272
12054W        W31588   7.587  15.411   0.134 -0.1494 -0.1265  0.2137
12055W        W31589  15.247   5.195   0.526  0.2997 -0.0754 -0.0715
12056W        W31590   2.001  17.814   0.480 -0.0243  0.0060 -0.0008
12057W        W31591  12.647  11.237  14.292  0.1696 -0.2097  0.2165
12058W        W31592  11.860   5.020   2.303 -0.0204  0.0190  0.2075
12059W        W31593   2.868  13.021  15.269  0.3383 -0.0708 -0.1207
12060W        W31594  11.227   7.682  16.678 -0.4381 -0.0860  0.0620
12061W        W31595   2.595  15.453  14.506  0.0596 -0.1651  0.1913
12062W        W31596   3.773  15.922   0.692 -0.1831 -0.0752 -0.1197
12063W        W31597  16.593   1.799   1.364 -0.0530 -0.1467 -0.3798
12064W        W31598  16.519  10.247  15.807  0.0771  0.1322  0.3293
12065W        W31599  12.602  11.607   0.050 -0.1497 -0.2073  0.0413
12066W        W31600  13.064  10.464  12.744  0.0710  0.3433  0.0589
12067W        W31601   7.758   8.951   6.136  0.5499 -0.1028  0.1721
12068W        W31602   7.874   9.672   3.803 -0.1141  0.0872  0.1443
12069W        W31603   0.625   7.162  12.329 -0.2562  0.1660 -0.1390
12070W        W31604  10.104  13.340  13.721 -0.0574 -0.0390 -0.1641
12071W        W31605  11.609  13.061   3.252 -0.1095 -0.1425 -0.1742
12072W        W31606  14.123  10.046   2.916  0.3245  0.1579 -0.0718
12073W        W31607  14.974   3.188   4.117 -0.2142 -0.2237  0.0616
12074W        W31608   4.754  17.790   2.274 -0.0018  0.0195  0.1262
12075W        W31609   3.049  17.788   1.873 -0.2025 -0.2999  0.2621
12076W        W31610  15.598  17.561   4.793  0.0941  0.2047 -0.1542
12077W        W31611   1.055  12.102   3.339  0.2881 -0.3232 -0.2714
12078W        W31612  16.421  10.216  11.611  0.0284  0.2794 -0.0965
12079W        W31613  11.314  15.873   0.965 -0.1011 -0.2808  0.0960
12080W        W31614   0.198   1.178   0.879  0.0567 -0.0249 -0.2529
12081W        W31615  13.822  17.727  14.455  0.2769  0.2477  0.1380
12082W        W31616  15.482  14.353   3.539 -0.1153  0.2177 -0.1943
12083W        W31617   9.810   8.553  15.101  0.0338 -0.3049  0.3107
12084W        W31618   8.730   4.138  15.555  0.1391  0.2518  0.0858
12085W        W31619  11.186  16.608   3.812  0.0906  0.0542  0.0642
12086W        W31620  13.055  12.858   1.169 -0.1950 -0.2488  0.0309
12087W        W31621  12.623   0.177  13.980  0.0120 -0.1536  0.1610
12088W        W31622   5.092   8.905   3.390  0.3777  0.0314 -0.0298
12089W        W31623   3.866  15.587  13.599  0.0618 -0.0699  0.0362
12090W        W31624  15.847  14.774  15.540 -0.1560 -0.0060 -0.1172
12091W        W31625  10.538  11.940  12.625 -0.0786  0.2411  0.1268
12092W        W31626   0.219  11.622  12.213  0.1428 -0.1232  0.1261
12093W        W31627  12.698  16.641  14.472 -0.0011  0.2079  0.1449
12094W        W31628  17.080   7.890   3.438 -0.1145  0.0532  0.2654
12095W        W31629  10.504  17.083  13.591 -0.1233  0.1023 -0.2514
12096W        W31630  16.542  12.268  15.062  0.0764  0.3318  0.0192
12097W        W31631  17.303  17.187  13.972  0.0557  0.0895 -0.0649
12098W        W31632   5.148   0.592  15.947  0.0989  0.0860 -0.1619
12099W        W31633   7.955   2.663  14.658 -0.0143 -0.2715  0.2513
12100W        W31634  16.646   8.129   3.735 -0.2863 -0.1416  0.1207
12101W        W31635  14.028  12.612   4.347  0.2597 -0.0405 -0.3683
12102W        W31636   4.915   9.878  15.332 -0.0776  0.1656 -0.0853
12103W        W31637  17.064  11.284   2.412 -0.4256  0.0498  0.1055
12104W        W31638   7.444  11.048   1.170  0.2241  0.0004  0.3046
12105W        W31639   6.379   7.266  13.232  0.2211  0.3448 -0.2236
12106W        W31640   4.845  12.026  14.453  0.3557  0.0110 -0.0763
12107W        W31641   5.693   6.700  12.745 -0.0846 -0.1358 -0.0203
12108W        W31642   6.228  10.084   2.112 -0.2083 -0.2553 -0.1763
12109W        W31643   9.912   1.064  13.153  0.3751  0.1899 -0.1973
12110W        W31644  13.204   8.098  14.244 -0.0740  0.1053  0.2704
12111W        W31645   4.918   7.492   2.944 -0.4077  0.0272  0.1805
12112W        W31646  13.214   3.888  14.914 -0.4286 -0.0549 -0.2927
12113W        W31647   7.934   5.392  11.893  0.0512 -0.2069  0.1846
12114W        W31648  15.339   5.081   2.290 -0.2529 -0.1029  0.0475
12115W        W31649   7.842   4.680  14.879 -0.2277 -0.3015 -0.1354
12116W        W31650   5.608  12.510   3.361 -0.1418 -0.3438  0.1080
12117W        W31651  10.742  11.832   1.296  0.5396  0.4987 -0.2248
12118W        W31652   3.802   5.743   4.566 -0.0446 -0.0216 -0.3312
12119W        W31653   4.701  15.287  14.010 -0.0269  0.3662 -0.0607
12120W        W31654   7.972   7.794  16.458 -0.2146  0.3475 -0.1721
12121W        W31655  15.540  11.621  12.272  0.3718 -0.1464 -0.0670
12122W        W31656  15.500  16.043  12.017 -0.0291 -0.1131 -0.3133
12123W        W31657  10.348  17.434   3.272  0.1340  0.0767 -0.1438
12124W        W31658  15.794   3.928  15.512 -0.0249 -0.0034 -0.0563
12125W        W31659  11.364  10.296  15.152 -0.2795 -0.2305 -0.3027
12126W        W31660  12.771   1.378   1.861 -0.0177 -0.0522 -0.3939
12127W        W31661   3.881  16.698  12.172  0.0437  0.0826  0.0424
12128W        W31662   5.164  10.426  15.882  0.4432  0.1542 -0.1507
12129W        W31663  17.141  14.148   2.241  0.4246 -0.2543  0.2327
12130W        W31664  17.107   0.549   3.459  0.0400 -0.0757  0.0585
12131W        W31665  11.671   1.366  14.067  0.0511  0.1322  0.0603
12132W        W31666   2.197  14.230  16.541 -0.0414  0.3719 -0.0865
12133W        W31667  11.880   5.957  15.907  0.0663  0.0270  0.1219
12134W        W31668   2.217   5.699   0.470 -0.0821  0.0948  0.1196
12135W        W31669   8.506  14.409   3.839 -0.1350 -0.1906 -0.0291
12136W        W31670  12.401  16.525  16.381  0.2080 -0.2220  0.1934
12137W        W31671  15.496  13.780  11.863  0.0719 -0.0435 -0.0843
12138W        W31672   7.187  12.861   3.999  0.0524  0.3008  0.1552
12139W        W31673   9.934   3.204   1.583  0.2439 -0.3147  0.1622
12140W        W31674   8.579   1.198   0.196 -0.0851  0.0484  0.0855
12141W        W31675   6.460   8.021  12.014 -0.0427  0.0320 -0.1762
12142W        W31676   8.022   7.332  15.354 -0.1277 -0.1522 -0.0004
12143W        W31677  17.690   9.509   2.478 -0.2261 -0.1676  0.0608
12144W        W31678  11.544  13.684  15.467 -0.1007  0.3026  0.4620
12145W        W31679   8.550  12.860  16.222 -0.0820 -0.1206 -0.2535
12146W        W31680   4.343  14.637  15.849 -0.2880 -0.1279 -0.2686
12147W        W31681  13.016  13.354   1.008  0.1822  0.2562 -0.1086
12148W        W31682   2.171   6.435   1.298  0.2689 -0.0914  0.2310
12149W        W31683  15.556  16.500   1.132 -0.1049  0.0560  0.2824
12150W        W31684  14.374   1.451   0.205  0.0638 -0.1073 -0.1588
12151W        W31685   9.259  13.518   4.101  0.1949  0.2493 -0.2100
12152W        W31686   2.969   2.139  15.083 -0.2176  0.0966  0.0944
12153W        W31687   6.638   4.995  16.176  0.0440 -0.1229  0.0624
12154W        W31688   4.172   4.790  12.015  0.1974  0.1839 -0.1484
12155W        W31689   6.212  14.870   3.132 -0.2269 -0.2595 -0.3320
12156W        W31690  15.159   2.673   2.719  0.0553  0.1532 -0.0350
12157W        W31691   9.661   4.551  14.982  0.0445  0.1163 -0.0827
12158W        W31692   7.004   4.549  12.516 -0.1441 -0.0119  0.0706
12159W        W31693  11.082   3.730   0.950 -0.3545 -0.3008  0.1500
12160W        W31694   6.565   3.435   5.944 -0.1119 -0.1749  0.2904
12161W        W31695  10.989   7.891  13.045 -0.0352  0.2851 -0.1699
12162W        W31696  15.827   6.711   3.124 -0.0301 -0.1898 -0.3149
12163W        W31697   2.088  16.988  15.387  0.5212 -0.0729 -0.0534
12164W        W31698   3.358   7.902   3.235 -0.0558 -0.2793 -0.0569
12165W        W31699  15.514  12.715   3.824 -0.0167 -0.0017  0.3559
12166W        W31700  17.599  15.624  12.552  0.0284  0.2510 -0.0479
12167W        W31701  14.471   8.428   1.296 -0.3030 -0.3824 -0.1709
12168W        W31702   1.804  17.041  15.808 -0.1532 -0.1345 -0.1196
12169W        W31703   4.890  17.404   3.061 -0.3016 -0.0807  0.0863
12170W        W31704   7.354   5.448   3.178  0.1407 -0.1673 -0.0868
12171W        W31705   0.644  11.433   3.981 -0.0391  0.1986  0.0993
12172W        W31706  16.891  14.527  15.241 -0.0276 -0.1573 -0.0612
12173W        W31707   1.580   9.127  11.611  0.4613  0.0240  0.1637
12174W        W31708   3.590  14.085   4.783 -0.1058  0.1669  0.0984
12175W        W31709   1.103  15.455   3.983 -0.0096 -0.0146  0.0336
12176W        W31710  10.847   8.291   3.914  0.1287  0.0952 -0.2203
12177W        W31711   4.177   6.095   0.431  0.1817  0.2003  0.2454
12178W        W31712  13.085   1.760   2.715  0.2326  0.3217 -0.1421
12179W        W31713  15.673  16.735  12.598  0.1359  0.0118  0.1134
12180W        W31714   7.837  11.134  15.504  0.1562  0.4392  0.2819
12181W        W31715   0.697  16.824   4.608  0.3195 -0.1897 -0.1689
12182W        W31716  17.209  15.883   2.894 -0.0894 -0.3971  0.1394
12183W        W31717  16.963   9.713  14.484 -0.0509  0.0862  0.5579
12184W        W31718   3.286   1.470  14.122 -0.0440 -0.0335  0.1615
12185W        W31719  15.088  10.965  13.920 -0.1637 -0.0737 -0.2566
12186W        W31720  10.105  16.196   2.889 -0.0359  0.1363 -0.2055
12187W        W31721   0.247  13.111   4.078 -0.1519 -0.2075 -0.4511
12188W        W31722   2.359   6.233  15.934 -0.0894  0.0709  0.0041
12189W        W31723  13.604  15.056   2.883  0.2111 -0.0826  0.0561
12190W        W31724   2.718   8.219   0.013  0.1855 -0.0503 -0.0447
12191W        W31725   0.158   3.467   3.885 -0.1611  0.0435 -0.3102
12192W        W31726  14.283  12.701  15.834 -0.0905  0.0364  0.0460
12193W        W31727   4.656   0.132  14.698 -0.2969 -0.0017 -0.2292
12194W        W31728  11.812   4.016   5.071 -0.1613  0.0153  0.3358
12195W        W31729  11.867  17.099   2.414  0.0708  0.4832  0.1178
12196W        W31730   5.173   4.975  12.954 -0.1387 -0.0728 -0.4158
12197W        W31731  15.463  13.995   4.180  0.0269  0.0520 -0.1130
12198W        W31732  16.206   7.977   2.559 -0.2676  0.1389 -0.0750
12199W        W31733  17.798   3.134   0.364 -0.3301 -0.0078 -0.0120
12200W        W31734   9.409  17.562  16.531 -0.0117  0.1019  0.3101
12201W        W31735   3.737  15.801   1.883  0.1579  0.3369 -0.3907
12202W        W31736   6.843   3.322   3.953 -0.1233  0.1688  0.1177
12203W        W31737  13.099  15.428  16.291 -0.1104 -0.0597 -0.4142
12204W        W31738  16.001   3.957  16.520 -0.0481  0.0780 -0.2869
12205W        W31739   9.472  10.677   3.780 -0.3469  0.1663  0.1308
12206W        W31740   2.026   6.456   2.273  0.3046  0.1253 -0.2642
12207W        W31741   3.676   6.187   0.418 -0.1445 -0.1962 -0.0067
12208W        W31742  14.068   9.152   2.584 -0.0868 -0.1098 -0.1572
12209W        W31743   1.380   9.587  12.818 -0.1616 -0.1389 -0.2292
12210W        W31744   7.195  14.496   1.805 -0.3447  0.2053 -0.2241
12211W        W31745   6.927  17.557   1.651 -0.2904  0.1533 -0.1709
12212W        W31746   9.174   2.424  12.152 -0.2805  0.1242 -0.1332
12213W        W31747   9.982   9.598  13.522  0.0666 -0.1958  0.1488
12214W        W31748   8.970   1.999   2.543 -0.2533  0.1504  0.2429
12215W        W31749  13.198  16.530   4.181  0.1128 -0.0468 -0.0530
12216W        W31750   0.983  12.743  13.300  0.1506 -0.0335  0.2712
12217W        W31751   4.994   7.377   4.696  0.0663 -0.2011 -0.0782
12218W        W31752  14.323  12.860   0.609 -0.0118  0.1685 -0.0858
12219W        W31753   7.331   6.752  13.183 -0.1165 -0.0318  0.0515
12220W        W31754   8.139  11.950  16.210  0.0106  0.0970  0.0037
12221W        W31755  14.744  13.363   2.341  0.4100  0.1031 -0.0245
12222W        W31756  10.440  13.764   4.536 -0.2212  0.0704 -0.0182
12223W        W31757  16.381  17.421   4.350 -0.2656 -0.0540 -0.0775
12224W        W31758  17.688   2.995  13.245 -0.1586 -0.0489  0.0992
12225W        W31759  15.320  16.091  14.721 -0.0851 -0.1757  0.1266
12226W        W31760   4.418   2.370   5.020  0.1231  0.2357 -0.0098
12227W        W31761   7.644   3.325   0.860  0.1569  0.0033 -0.2412
12228W        W31762  14.163   2.587  12.079  0.2282 -0.0020 -0.0757
12229W        W31763  12.329   9.519   0.935 -0.0386  0.0099 -0.0193
12230W        W31764   9.282  12.725   1.744  0.0599 -0.3017 -0.0328
12231W        W31765  11.186  12.162   0.911  0.1569 -0.0116 -0.2009
12232W        W31766   3.325   2.750  12.416 -0.1198  0.1088  0.3972
12233W        W31767   3.396   6.874  14.438 -0.0189  0.1978 -0.1731
12234W        W31768   1.815  17.812  15.337 -0.1105 -0.0104  0.2201
12235W        W31769  10.239  11.863   0.636  0.1230 -0.1732  0.0015
12236W        W31770  12.986  17.466   1.145  0.0239 -0.0000 -0.0991
12237W        W31771   1.806   6.098   1.305  0.2146 -0.0654 -0.1394
12238W        W31772  17.558   2.301  12.882 -0.1221  0.0612 -0.4619
12239W        W31773   4.169  11.655  15.608 -0.1169  0.3389  0.1313
12240W        W31774  11.846  14.805   3.848  0.0072  0.1091  0.0405
12241W        W31775  14.650  14.995   4.230 -0.0806  0.2346  0.1601
12242W        W31776  17.208   4.600   0.229  0.0812  0.3040  0.1211
12243W        W31777   9.195   7.709   2.217 -0.1403  0.3903  0.0388
12244W        W31778   0.092   4.307  16.210 -0.2818 -0.0625 -0.2897
12245W        W31779   7.037  12.797   1.654  0.1520 -0.3123  0.0258
12246W        W31780  15.636   5.526  12.217  0.0216 -0.3267 -0.0441
12247W        W31781  12.634  13.842   3.433  0.1463  0.0360  0.2708
12248W        W31782   9.734   2.173   0.996  0.1065 -0.0904 -0.0194
12249W        W31783  14.666   6.095   4.197 -0.0077 -0.2861  0.1074
12250W        W31784   4.918   2.916  16.105 -0.3100 -0.1878 -0.0913
12251W        W31785   6.762   9.490   1.760 -0.0534  0.1441  0.0542
12252W        W31786   4.330   4.349   2.457 -0.0228 -0.2993 -0.2818
12253W        W31787  14.193  12.715   1.949  0.2812 -0.2031 -0.1106
12254W        W31788   7.542  15.891   0.621 -0.1444 -0.0978  0.1417
12255W        W31789  12.679   5.515   4.844  0.0731 -0.1189  0.2146
12256W        W31790   4.631   5.176  10.949  0.0988 -0.0893 -0.1898
12257W        W31791   5.143   4.768   0.924 -0.2595 -0.1725 -0.0999
12258W        W31792   4.095   0.234   4.217 -0.1396  0.0358 -0.2449
12259W        W31793   8.666   8.136  14.601  0.0239 -0.0034 -0.0492
12260W        W31794  17.757   1.482  12.048  0.0900  0.3862  0.1292
12261W        W31795  10.422  12.936  14.395  0.2198  0.2266 -0.0745
12262W        W31796   2.087   0.495  14.957  0.0786  0.2697 -0.0117
12263W        W31797  12.071  13.398   1.852  0.0555  0.1904  0.0181
12264W        W31798   6.161   9.043  12.905  0.1185  0.2510  0.2051
12265W        W31799   1.692   1.731   1.295  0.2349 -0.3282  0.1344
12266W        W31800   7.290  14.680   6.151 -0.1938  0.0599 -0.1544
12267W        W31801   0.846   0.907   1.573  0.0137  0.2282 -0.2438
12268W        W31802  17.781   5.328  13.214  0.1495  0.0123 -0.0983
12269W        W31803   7.605   8.273   1.684  0.2281  0.0090 -0.0023
12270W        W31804   1.157  15.054  14.515 -0.0742  0.0348 -0.0655
12271W        W31805   4.081  14.663   0.653 -0.0793  0.0154  0.2257
12272W        W31806  17.637  13.961   4.897  0.1620  0.1763  0.0338
12273W        W31807   8.310  11.783  16.697 -0.0464 -0.4830 -0.1505
12274W        W31808  11.125   0.183  13.728  0.3883  0.1363  0.0280
12275W        W31809  10.787   1.018  15.613  0.0282  0.2829  0.0157
12276W        W31810   3.242  12.554  12.525 -0.2025 -0.0678  0.1019
12277W        W31811  12.402   9.077  12.444 -0.2016  0.0840  0.0354
12278W        W31812   2.320  15.776  12.167 -0.2978  0.1393 -0.0475
12279W        W31813   8.317  11.084   3.204  0.0549  0.2135  0.0305
12280W        W31814   2.119  17.502   5.023  0.0142  0.0935  0.3434
12281W        W31815  16.749   8.753   1.622 -0.0777 -0.1905  0.1253
12282W        W31816   9.985  15.630   5.199 -0.0427  0.0615 -0.0425
12283W        W31817  11.252   8.022   0.816  0.1538  0.1501 -0.1228
12284W        W31818  14.355   1.584   4.596 -0.2375  0.1603  0.1157
12285W        W31819   6.659   7.579   2.497 -0.3183 -0.2269  0.0678
12286W        W31820   4.968   1.086  16.694  0.2439  0.1877 -0.1636
12287W        W31821   4.425  15.567  12.477 -0.2237 -0.0802 -0.0624
12288W        W31822   5.287   9.099   4.831  0.3268  0.4139  0.1106
12289W        W31823   1.074   2.811  13.935 -0.1897 -0.1577 -0.1039
12290W        W31824  16.721  14.480   2.851  0.2015  0.0620 -0.3087
12291W        W31825   3.297   4.680   1.511  0.1809 -0.1857  0.3192
12292W        W31826   4.981   0.029   4.776  0.3206  0.1866  0.0235
12293W        W31827   7.565  13.719   2.043 -0.0675  0.1262  0.3229
12294W        W31828   8.395   6.471   3.194 -0.2195 -0.1233 -0.1017
12295W        W31829  16.831  12.085  12.593 -0.0660  0.1498  0.0383
12296W        W31830   6.143   5.082   5.219  0.2246 -0.1666 -0.1456
12297W        W31831   8.428   7.224  13.491 -0.3732 -0.0938  0.3671
12298W        W31832  17.833  10.562   1.708  0.0512  0.2694 -0.0086
12299W        W31833  14.246   2.446   1.266 -0.1695 -0.1566 -0.1570
12300W        W31834   4.175  17.876  14.746 -0.0985  0.0521 -0.4857
12301W        W31835   7.399   0.216  14.737 -0.2617 -0.1647  0.0039
12302W        W31836  12.582   8.370   4.227 -0.0351  0.2287 -0.1564
12303W        W31837   9.087   6.570  13.277  0.0012  0.0691  0.0244
12304W        W31838  16.982  15.884  14.866  0.1572 -0.1882 -0.3649
12305W        W31839  12.606  12.305  12.426  0.1068  0.2402  0.0053
12306W        W31840  14.048  17.893   0.729 -0.1955 -0.1635 -0.0591
12307W        W31841  10.118   1.915   1.068  0.1134  0.2547  0.0200
12308W        W31842  13.464   9.324  13.454 -0.1429 -0.0895 -0.0051
12309W        W31843   2.331   6.917  15.025 -0.2545 -0.3008 -0.1689
12310W        W31844  15.208   4.603  12.969  0.2914 -0.0407 -0.0398
12311W        W31845  12.676  10.509  12.406  0.2687  0.2841  0.1551
12312W        W31846  14.706   1.892   4.322  0.0499 -0.0925 -0.0617
12313W        W31847  12.985  17.706  16.213  0.0919  0.1340 -0.2382
12314W        W31848   5.091  10.723   3.507  0.3273 -0.0937 -0.0517
12315W        W31849  10.654   8.799  15.011  0.1273 -0.2556  0.0917
12316W        W31850  16.150  13.490   0.642 -0.0526 -0.1556  0.2356
12317W        W31851  13.287  13.665   2.445  0.3293  0.1497  0.0595
12318W        W31852  17.178   5.168   1.856 -0.0989 -0.0461 -0.0892
12319W        W31853  10.059   1.106   0.448 -0.0387  0.0721 -0.2635
12320W        W31854   1.709  13.495   1.095  0.0526  0.1971  0.0383
12321W        W31855  10.984   3.534   2.587 -0.0855 -0.0081 -0.0939
12322W        W31856   9.089  15.303  16.012  0.0623 -0.1032  0.1416
12323W        W31857   9.970   1.964   2.294  0.3183 -0.0010  0.2705
12324W        W31858   9.065   7.253   1.895  0.1112 -0.1271 -0.3954
12325W        W31859  12.043   2.132   1.205  0.0555 -0.0215 -0.0229
12326W        W31860   9.972   6.841   2.810 -0.3459  0.0939 -0.0331
12327W        W31861  14.461   4.586  12.475 -0.1360 -0.3302  0.1262
12328W        W31862   6.556   0.806   4.443  0.3159 -0.3215 -0.0343
12329W        W31863   2.307  13.370  14.278  0.0814 -0.0676 -0.1240
12330W        W31864   8.272   0.277   2.879  0.0501 -0.0539 -0.2703
12331W        W31865   8.588   5.542  15.908  0.2118  0.2527 -0.0129
12332W        W31866   3.885   3.176   0.778  0.0936 -0.1736 -0.0221
12333W        W31867  10.800   1.775  13.248 -0.2208  0.2781 -0.5184
12334W        W31868  10.032   4.215  15.119  0.0086  0.0087 -0.0027
12335W        W31869   0.280   7.422   0.403  0.1042 -0.0890 -0.1877
12336W        W31870  10.447   6.895  15.501 -0.0738 -0.1913  0.1025
12337W        W31871  15.015  12.512   2.298  0.1185  0.0787  0.0299
12338W        W31872  10.785   9.560  15.236  0.1080  0.1593  0.1014
12339W        W31873   3.708   0.368  11.301  0.1510  0.2986 -0.0858
12340W        W31874  12.791  10.267  15.305 -0.3094  0.0781  0.2878
12341W        W31875   7.692   0.658  12.535 -0.1231  0.1297  0.4189
12342W        W31876  13.557  11.051  13.119  0.0314 -0.2666  0.1286
12343W        W31877  13.897  10.986   0.170 -0.1453 -0.3293 -0.0514
12344W        W31878   8.084  17.426  13.625 -0.2164  0.1161 -0.3731
12345W        W31879  16.164  11.638  14.982 -0.1254  0.1487 -0.1383
12346W        W31880  11.721  14.841  13.062  0.1495 -0.1572 -0.0109
12347W        W31881  16.476   5.814  12.086 -0.0273  0.3573 -0.0105
12348W        W31882  10.032  15.655   1.144 -0.3119  0.0314 -0.0803
12349W        W31883   4.666   7.204   5.150 -0.0815 -0.2594  0.3024
12350W        W31884   2.377  12.950  15.120  0.4086 -0.2234  0.0383
12351W        W31885   4.327   2.282  12.288  0.2002 -0.1429  0.0764
12352W        W31886   8.046  13.133   3.950 -0.2675  0.0981  0.0118
12353W        W31887  11.924  17.066  12.025 -0.1420 -0.4207  0.2122
12354W        W31888   1.794   8.845  16.125  0.1076  0.3031 -0.0187
12355W        W31889   6.972  13.145   2.027  0.0800 -0.1132 -0.1557
12356W        W31890   9.853  15.700   4.505 -0.2212  0.2782 -0.1047
12357W        W31891   5.285   5.756  13.490  0.0518  0.1570 -0.0684
12358W        W31892  15.228   0.224   3.451 -0.0724  0.2559  0.1535
12359W        W31893   5.122   5.448  11.727  0.0648 -0.2313 -0.3893
12360W        W31894  11.995   8.995  13.416 -0.3398  0.2014 -0.1128
12361W        W31895   7.664   2.236  13.918  0.0538  0.0539 -0.0164
12362W        W31896   8.551  13.969   0.880  0.0660  0.0589 -0.0735
12363W        W31897   6.660   5.712  11.770  0.1087  0.2330 -0.1308
12364W        W31898   6.537  16.491  15.828 -0.2483  0.3037  0.1117
12365W        W31899  12.080   4.821   4.054 -0.2590  0.3925 -0.0524
12366W        W31900  16.351   9.034  14.120 -0.1293  0.1507 -0.0965
12367W        W31901   9.429   3.329   2.986  0.0711 -0.1453 -0.3763
12368W        W31902   7.164  15.186  13.797 -0.0404  0.0302  0.4864
12369W        W31903   7.164  11.557   0.466 -0.3773  0.0648  0.1948
12370W        W31904   4.053  11.191   0.909  0.0628  0.0897 -0.1175
12371W        W31905   8.922  13.943  14.207  0.2606  0.1783  0.1888
12372W        W31906   3.562  14.302   2.824  0.0979  0.0520 -0.3200
12373W        W31907   9.951  15.494   5.703 -0.2552  0.1167 -0.1612
12374W        W31908   3.641   3.965   2.171  0.3857 -0.0386  0.1702
12375W        W31909   7.395   7.392   1.846 -0.1573 -0.0970  0.3822
12376W        W31910   9.894  15.094  15.362 -0.0681 -0.1476  0.0686
12377W        W31911   1.474   3.753   3.867  0.0508 -0.0470 -0.1106
12378W        W31912   8.821   9.764   2.785  0.0605  0.1108 -0.0140
12379W        W31913   9.204   2.050   0.039  0.3161  0.2372 -0.1682
12380W        W31914  16.827  16.612   3.610 -0.4491  0.0703 -0.0012
12381W        W31915   0.139   1.080  16.403 -0.0040 -0.1333  0.1053
12382W        W31916   8.453   8.948  14.908  0.2408  0.1840 -0.0805
12383W        W31917  17.590  10.247   0.603  0.0716 -0.1285 -0.0129
12384W        W31918  11.197  17.747   0.741 -0.2125  0.1810  0.3850
12385W        W31919  15.148   0.052  15.988 -0.1079 -0.1380 -0.0093
12386W        W31920  11.627  14.360  13.421  0.1387  0.0646 -0.1258
12387W        W31921   0.716  13.725  16.316  0.1159  0.0203 -0.2384
12388W        W31922  16.005  10.316  14.495 -0.1580 -0.5008 -0.0519
12389W        W31923  16.049   9.119   1.740 -0.0988 -0.1484  0.1988
12390W        W31924   9.887  15.299   4.789  0.0732  0.0580 -0.0198
12391W        W31925   0.897   4.696  16.015  0.2437  0.1865 -0.1838
12392W        W31926   8.744   3.737  14.515  0.0612 -0.0016  0.2314
12393W        W31927  12.972   8.487   1.874  0.2885  0.1856 -0.0593
12394W        W31928  17.876   7.100   1.898 -0.2734 -0.1957  0.1151
12395W        W31929  13.165  16.164  13.108 -0.0764  0.1660 -0.0196
12396W        W31930   6.948   7.972   2.515  0.2644  0.0913  0.0291
12397W        W31931   8.518   3.048   1.269  0.0261  0.1215 -0.3535
12398W        W31932   1.040  13.943   0.973  0.0597 -0.1072  0.0101
12399W        W31933  11.902   0.821   1.959  0.0362  0.2742  0.2490
12400W        W31934   5.077   1.431  14.043 -0.1342  0.1800  0.1459
12401W        W31935   8.561  15.203  13.759  0.1131  0.0453  0.0433
12402W        W31936   0.549  12.830   3.116  0.1279  0.0928  0.2954
12403W        W31937   5.804   1.916  12.163 -0.1072  0.2035 -0.1013
12404W        W31938  16.563   1.078  12.052  0.1812  0.1507  0.0906
12405W        W31939   5.132  15.823   4.526 -0.1682 -0.1918  0.2848
12406W        W31940  13.469   6.282   3.586 -0.1955 -0.0562  0.0797
12407W        W31941  12.659   4.823   1.910  0.1498  0.2013  0.2478
12408W        W31942   5.138   1.090  14.950  0.1528 -0.1012  0.2606
12409W        W31943   7.052  11.992  12.149 -0.2454 -0.2565 -0.2971
12410W        W31944   6.333   4.317  15.235 -0.1416  0.2602  0.0649
12411W        W31945   9.541  13.121   2.289  0.0443 -0.0763 -0.2258
12412W        W31946   8.409  10.921  16.266 -0.5035  0.1285 -0.1561
12413W        W31947   1.662  13.282   2.752 -0.4109  0.1745 -0.0048
12414W        W31948   1.619  12.955  16.182  0.0869  0.1839  0.2934
12415W        W31949  14.641  12.540   4.721  0.1954 -0.3074 -0.1372
12416W        W31950  16.072   6.747  11.776  0.0326  0.2316 -0.0991
12417W        W31951  11.891  15.319  12.816  0.1244  0.0279  0.2358
12418W        W31952   0.231   7.424  12.348  0.1791 -0.2835 -0.3211
12419W        W31953   6.516   4.920   3.084  0.0090  0.0450 -0.1747
12420W        W31954   2.502   7.336   2.377 -0.2197  0.1581 -0.1949
12421W        W31955  17.588  17.648   3.396  0.1685  0.4120  0.2464
12422W        W31956  17.485   3.418  14.839  0.2222  0.0372  0.1996
12423W        W31957  16.108   8.999  16.183  0.0589  0.1914  0.0611
12424W        W31958   8.211  10.146  15.673 -0.1101 -0.2160 -0.3928
12425W        W31959   7.864  10.864  13.624 -0.0215 -0.2878  0.0705
12426W        W31960   8.663  15.495   2.916 -0.2361  0.1867  0.0998
12427W        W31961   2.916   9.427   3.440 -0.1066  0.1286 -0.0612
12428W        W31962  15.808  13.817   3.825  0.1252 -0.1914  0.0036
12429W        W31963  14.654   8.623  14.024 -0.0514 -0.0281 -0.2669
12430W        W31964   4.451   3.638  16.719 -0.0881 -0.0014  0.0275
12431W        W31965   0.192   9.630   1.251  0.1060  0.1607  0.2062
12432W        W31966  16.828   4.167   1.471  0.3188  0.1620  0.1082
12433W        W31967  11.843   9.085  15.721 -0.1025  0.1051 -0.1492
12434W        W31968  12.201  16.923  12.744 -0.1847 -0.1007  0.1197
12435W        W31969  16.590  17.750   3.550  0.1331 -0.1018 -0.1798
12436W        W31970   6.492  13.068   1.715 -0.2289 -0.3339 -0.1594
12437W        W31971  16.826  14.922   0.924 -0.0534  0.1802 -0.0299
12438W        W31972   5.595   4.607  12.794  0.0305 -0.0055 -0.0364
12439W        W31973   7.817  14.823   4.004  0.1204  0.0752  0.3447
12440W        W31974  17.502   6.557   3.223 -0.2401 -0.2125 -0.0401
12441W        W31975   7.190   1.057  16.333 -0.0208  0.1790 -0.2792
12442W        W31976  16.142   3.445  14.234 -0.2440 -0.0347 -0.1458
12443W        W31977   3.145   6.924  11.603 -0.0406 -0.0608 -0.1415
12444W        W31978   9.103   0.153   1.582 -0.0466 -0.0077  0.2263
12445W        W31979   8.950   0.792  14.717 -0.1425 -0.0770  0.1762
12446W        W31980   6.383  10.404   1.760  0.3041 -0.1851 -0.0894
12447W        W31981   6.422   0.327  12.250  0.1706  0.2519  0.1807
12448W        W31982   4.805  10.517   0.696  0.1363 -0.2903  0.3263
12449W        W31983   1.046  13.806  15.104  0.1090 -0.0421  0.0161
12450W        W31984   3.645  14.899  15.959 -0.1594 -0.3076 -0.0433
12451W        W31985   2.556   0.459  13.298 -0.4001 -0.1114 -0.0630
12452W        W31986  14.172   5.105   3.966  0.1609  0.0296  0.0182
12453W        W31987   7.682   4.547   3.552  0.2582  0.0325 -0.1127
12454W        W31988   6.272  12.011   4.321  0.2034  0.0668  0.0109
12455W        W31989   2.614  11.894   1.071  0.0718  0.0852  0.0224
12456W        W31990   9.426   1.409  13.446 -0.0293  0.2378  0.0480
12457W        W31991   1.317  10.156  13.487  0.1129 -0.0963 -0.0595
12458W        W31992  12.408   1.101   4.141 -0.0075 -0.0066 -0.0298
12459W        W31993  15.614   6.814   0.076 -0.1897 -0.0845  0.2838
12460W        W31994  11.807  12.634   1.431 -0.0670  0.0478  0.2953
12461W        W31995   9.530   5.742  11.536 -0.2498  0.1081 -0.0264
12462W        W31996   1.886  16.120   3.683 -0.1739 -0.0546  0.4867
12463W        W31997   1.791   5.422  15.497  0.0982  0.3058  0.1072
12464W        W31998  11.716   3.157  14.080 -0.0838 -0.1827  0.0248
12465W        W31999   3.070   9.028  16.257  0.1311 -0.2005  0.4498
12466W        W32000   6.107   2.895  13.211  0.0906 -0.2055 -0.0756
12467W        W32001   6.877  11.042  14.159 -0.0335 -0.2820  0.2031
12468W        W32002   2.653  17.637   2.651 -0.2189 -0.0255 -0.0363
12469W        W32003   6.497   6.284   5.268 -0.2255 -0.0247 -0.1170
12470W        W32004   0.878   6.984   0.836  0.2815 -0.0560 -0.2200
12471W        W32005  13.737   1.348  14.375 -0.1645 -0.0327  0.0651
12472W        W32006   7.087   3.548  13.627  0.3080 -0.0138 -0.0125
12473W        W32007   5.240   1.035  14.460 -0.2203 -0.0470 -0.1597
12474W        W32008  11.427  11.156  13.892  0.0114  0.0632  0.0179
12475W        W32009  16.795   2.912  14.021  0.0946 -0.0687  0.0823
12476W        W32010   2.934   5.682   3.078 -0.0308 -0.0084 -0.1229
12477W        W32011  13.278  11.723   3.728  0.0883  0.1898  0.1265
12478W        W32012  13.020  13.904  11.874  0.3651 -0.2100 -0.0000
12479W        W32013  11.709   2.690  12.046  0.0864  0.1107 -0.2649
12480W        W32014   8.668  15.546  13.392  0.2175  0.1857  0.1820
12481W        W32015  10.680   6.626   0.989  0.1830 -0.1380 -0.1414
12482W        W32016  11.429  14.406   3.594 -0.0814 -0.2704 -0.0036
12483W        W32017  10.942  17.348   2.719  0.1858 -0.0316 -0.0169
12484W        W32018   4.109  16.761  15.706 -0.0676  0.0228 -0.0082
12485W        W32019   4.844   5.232   0.263 -0.0149 -0.2181 -0.1797
12486W        W32020   2.568   7.595  14.244 -0.2134 -0.3121  0.2257
12487W        W32021  14.364  10.960   0.584  0.0219 -0.1809  0.0062
12488W        W32022  14.203  10.320  14.773  0.1077 -0.4530  0.1131
12489W        W32023   1.556  13.259  11.882 -0.0794 -0.0632 -0.3290
12490W        W32024  17.904  10.245   3.310 -0.0232 -0.0184 -0.0251
12491W        W32025  14.517   1.131   0.558  0.2060 -0.0354 -0.1799
12492W        W32026   5.383  14.739  12.383  0.4009  0.1642 -0.2249
12493W        W32027  17.537  11.523  13.029 -0.1638  0.0566 -0.1784
12494W        W32028  17.792   0.632   2.525  0.1327  0.1301  0.2739
12495W        W32029  17.628   0.690   0.591 -0.2161  0.5556  0.1730
12496W        W32030   7.522  14.788   2.408 -0.0550 -0.1088  0.2754
12497W        W32031  17.424  16.959   4.114  0.1438 -0.1197 -0.5164
12498W        W32032   3.399  16.053  14.049  0.0088  0.0743  0.1295
12499W        W32033   5.729   9.185  14.361  0.2768 -0.0950  0.0816
12500W        W32034  16.265   5.101   4.191 -0.0970 -0.3876  0.3260
12501W        W32035  16.202   5.139  14.134 -0.1955  0.0394  0.2113
12502W        W32036  13.245  15.735   4.300 -0.0855  0.1472 -0.0099
12503W        W32037   6.669   1.190  12.851  0.1764 -0.0118 -0.1535
12504W        W32038  17.869   3.651   4.740 -0.0329 -0.1242  0.3297
12505W        W32039   4.552   4.342  13.513 -0.0569 -0.2777 -0.0091
12506W        W32040  12.616   1.728   0.453  0.1761  0.1462  0.0021
12507W        W32041   6.110   4.071   3.555  0.1057  0.0193 -0.0628
12508W        W32042   6.941  15.491  13.441 -0.2149 -0.1306  0.5093
12509W        W32043   7.805  15.645   1.611 -0.1157 -0.0190 -0.0255
12510W        W32044   5.995   4.138   4.867  0.1827 -0.1985 -0.0395
12511W        W32045  16.923   1.644  12.088  0.2270  0.0631 -0.1148
12512W        W32046  17.235   9.109  14.172  0.3105  0.1517 -0.0295
12513W        W32047  15.038  11.389  16.245 -0.4241 -0.1424  0.1708
12514W        W32048  12.624   9.098  16.191 -0.0452 -0.2472 -0.0133
12515W        W32049  11.695   0.023   3.781  0.1819  0.0908 -0.1802
12516W        W32050   3.617  11.795  15.056  0.0851 -0.2589  0.0853
12517W        W32051   9.821   0.994   0.035 -0.1489 -0.1601 -0.0030
12518W        W32052   1.987  10.136  16.469  0.2695  0.2719  0.1943
12519W        W32053  11.300   3.142   1.159  0.0782  0.4819 -0.2632
12520W        W32054  13.480  10.357  14.026 -0.1176 -0.0450  0.0944
12521W        W32055  17.538  17.228  11.966 -0.1886  0.0202  0.0295
12522W        W32056   2.850  14.456   0.332  0.0227  0.1521  0.2388
12523W        W32057   7.227   4.596   5.415  0.0849  0.0474 -0.0468
12524W        W32058  11.014   4.706  11.951 -0.1037  0.0701  0.1822
12525W        W32059  17.508   5.545   2.118 -0.0292 -0.1152 -0.0159
12526W        W32060  12.718  11.285  14.864  0.0419  0.1360 -0.4533
12527W        W32061  10.988   5.188   2.027  0.2231  0.0882 -0.0399
12528W        W32062  12.148  17.618   4.617 -0.1479  0.0240 -0.2436
12529W        W32063   7.817   2.262   1.360  0.0863 -0.2132  0.0045
12530W        W32064   8.528   9.226   0.995 -0.0821  0.2138 -0.0203
12531W        W32065   9.180  17.612   1.277 -0.2698  0.0510  0.0644
12532W        W32066  13.602   3.013   3.234  0.1031 -0.0072  0.0936
12533W        W32067   3.672   5.179   1.404 -0.0321  0.0374  0.1511
12534W        W32068  11.325   6.159   3.692 -0.1052 -0.0662  0.2331
12535W        W32069   6.628   9.739   2.167 -0.0365 -0.1507 -0.0659
12536W        W32070  14.075  16.118  14.191 -0.1347 -0.5022  0.0557
12537W        W32071   6.482   8.714   2.099  0.2166 -0.1937 -0.1637
12538W        W32072   6.723  10.787  16.627  0.1105 -0.0854  0.3535
12539W        W32073  16.579   1.372   1.609  0.0877  0.3020  0.1327
12540W        W32074   9.458   4.443  13.336 -0.0675 -0.0793 -0.5171
12541W        W32075  11.952  12.536  15.650  0.0637  0.3179 -0.3935
12542W        W32076   9.927   5.690   5.423 -0.2875  0.1363 -0.1081
12543W        W32077   7.020  11.976   0.082 -0.0748 -0.1559  0.1851
12544W        W32078  17.674   5.018  15.132 -0.0057 -0.0622 -0.5067
12545W        W32079   3.569   7.971   3.663  0.3196 -0.2634 -0.0424
12546W        W32080   9.716  12.083   3.897  0.3329 -0.0238 -0.2478
12547W        W32081   6.825   4.792   3.659 -0.1366 -0.2540  0.0645
12548W        W32082   9.182  10.726   1.325 -0.2012  0.0542 -0.0285
12549W        W32083  15.589   3.888   1.827 -0.1147 -0.0554 -0.1378
12550W        W32084  14.803  13.846  14.354  0.0036 -0.1485 -0.1465
12551W        W32085  13.837   9.754  12.523 -0.2614 -0.1216  0.1676
12552W        W32086   9.596   5.228   2.506  0.0760 -0.0189 -0.0445
12553W        W32087  14.511   1.748  15.744 -0.0706  0.1599  0.0262
12554W        W32088  12.537   7.379  16.544  0.1839  0.0109 -0.1181
12555W        W32089  14.212  14.678   4.368 -0.0838 -0.1898 -0.0378
12556W        W32090   4.672  16.498  12.644  0.0794  0.1064 -0.2089
12557W        W32091  10.527   8.796  13.194 -0.1367 -0.0079 -0.3188
12558W        W32092  11.937  16.890  13.334 -0.2013 -0.4236  0.1445
12559W        W32093   1.906   8.144  12.123 -0.0422  0.1069 -0.3927
12560W        W32094   9.809  14.161  12.489  0.1310 -0.0581  0.0867
12561W        W32095   3.118  15.058   2.911  0.2655  0.1085 -0.2968
12562W        W32096   7.361   0.518  16.091  0.2543  0.2239  0.1227
12563W        W32097   6.782   0.435  13.281 -0.1714 -0.1861  0.0999
12564W        W32098  10.374   2.570   4.862 -0.4654 -0.0697  0.0355
12565W        W32099   3.279   4.264  11.867  0.3450 -0.1623 -0.2697
12566W        W32100   6.207  11.789   0.996  0.1097 -0.0880 -0.0856
12567W        W32101  14.131   2.709  13.643 -0.0807  0.2627 -0.0246
12568W        W32102  15.784   2.580   2.028 -0.2908 -0.0509  0.0506
12569W        W32103   4.772  13.367   1.816  0.1523  0.3215  0.3231
12570W        W32104   3.109  11.207   4.397 -0.2024  0.0528 -0.1414
12571W        W32105   3.764   3.654   4.623 -0.4300  0.1302  0.1928
12572W        W32106   7.735   1.715  16.388 -0.1029  0.1246 -0.0568
12573W        W32107  10.895   0.798   1.027 -0.0824  0.0414  0.0784
12574W        W32108   7.430   1.256  14.294 -0.3155  0.1285 -0.0286
12575W        W32109   5.345   7.116   2.064  0.1850  0.0445 -0.3026
12576W        W32110   7.327   7.063   4.706 -0.0210  0.2251 -0.0783
12577W        W32111   7.225   7.126  15.718 -0.2059 -0.0419 -0.3819
12578W        W32112  10.339  14.919   1.387 -0.4341 -0.0654  0.2161
12579W        W32113   8.333   0.133  14.969  0.0506  0.1956 -0.0996
12580W        W32114  12.773  17.072  11.803 -0.1149 -0.0221 -0.0148
12581W        W32115   8.634  13.615  15.059  0.1297  0.0263  0.1826
12582W        W32116  17.769   0.934  12.959  0.0951  0.3121 -0.2410
12583W        W32117  15.292   7.757   3.830 -0.0249 -0.3379  0.0699
12584W        W32118  13.333   0.379   0.200  0.1890 -0.1618 -0.0135
12585W        W32119   4.540   1.508   3.747  0.0528  0.1238  0.0349
12586W        W32120  10.150   4.031  11.354 -0.1576  0.1042 -0.1232
12587W        W32121  10.257   6.872   4.700  0.0294  0.3003  0.2072
12588W        W32122  11.830   2.918   1.778 -0.0438 -0.1570  0.3490
12589W        W32123   1.774   3.053   2.494 -0.0934 -0.0140 -0.0887
12590W        W32124   1.474  15.611  15.169 -0.0127 -0.1306 -0.1132
12591W        W32125  12.927   3.286   4.383 -0.0453  0.1460  0.0267
12592W        W32126   5.111  11.964   0.247  0.2640  0.0099  0.0732
12593W        W32127   7.852   0.305  11.932 -0.0415 -0.0115  0.3331
12594W        W32128   0.020  14.601   4.646 -0.0143  0.0526 -0.1287
12595W        W32129   5.285   5.950  11.596  0.0144  0.2113  0.0074
12596W        W32130  13.211   9.733   1.928  0.2361  0.1313 -0.5062
12597W        W32131  14.323  11.399   0.177  0.1150 -0.1723  0.0915
12598W        W32132   9.356  14.737   1.861 -0.1830  0.0701 -0.2592
12599W        W32133  15.346  12.041   1.100 -0.1553 -0.3706  0.1714
12600W        W32134   8.096   3.486  15.184 -0.1392 -0.1469 -0.1904
12601W        W32135   0.437   8.226  15.695 -0.1015 -0.4899  0.2749
12602W        W32136   3.077  14.764  15.787  0.0799  0.0979  0.3137
12603W        W32137  10.887   2.669  15.352  0.1349 -0.0380 -0.1610
12604W        W32138  14.786   7.224   1.553  0.1717  0.3403 -0.2960
12605W        W32139  12.705  11.775  14.989  0.2021 -0.0119  0.2519
12606W        W32140  12.595  15.025  13.414  0.2199 -0.1240  0.1194
12607W        W32141   4.579   6.599   2.670  0.1297 -0.3976  0.1206
12608W        W32142  12.667  12.206   3.226 -0.0170 -0.2106 -0.2873
12609W        W32143   1.252  12.643   1.210 -0.0811  0.0029 -0.1914
12610W        W32144   6.114  17.171   2.719 -0.2750 -0.0784 -0.2066
12611W        W32145   3.531  17.727   0.576 -0.3570  0.1616  0.2728
12612W        W32146   9.923   2.928  12.772 -0.1043 -0.1889 -0.1097
12613W        W32147   1.231   4.378  16.713  0.2257  0.1779 -0.1214
12614W        W32148  16.304  17.276  13.801 -0.2666  0.1477  0.0853
12615W        W32149   2.464  13.761   1.259  0.2182  0.0344  0.2411
12616W        W32150   1.495   4.879  14.896 -0.1269 -0.1887 -0.3902
12617W        W32151  16.066  11.111   4.474 -0.1555 -0.1205  0.1692
12618W        W32152  11.892  10.480   3.518 -0.2884  0.0059  0.1096
12619W        W32153   0.652   2.541  14.114  0.0190 -0.2357 -0.0566
12620W        W32154   6.708   6.559  13.894  0.1841 -0.0540  0.0988
12621W        W32155  12.599   3.158  12.662  0.3165 -0.1952 -0.0511
12622W        W32156  13.460   4.511   2.243  0.3357  0.2002  0.2717
12623W        W32157   7.578  15.189  15.220  0.0312  0.3600 -0.1334
12624W        W32158   9.919  14.938   2.366 -0.2428 -0.1613 -0.0748
12625W        W32159  10.883   5.390  12.560 -0.1720 -0.1369  0.0898
12626W        W32160  15.120   0.331   0.467 -0.0430  0.0164  0.3221
12627W        W32161   6.855   5.526  14.974 -0.2143 -0.1049  0.0276
12628W        W32162   8.993  13.432  15.468  0.5044  0.4260  0.0674
12629W        W32163   1.983   5.365   1.497 -0.2354 -0.1578  0.3556
12630W        W32164   1.393  14.569   5.363 -0.0343  0.1784  0.2192
12631W        W32165   8.270   0.569   0.809 -0.1071 -0.1439  0.1744
12632W        W32166  17.069   3.784  16.002 -0.2193  0.0552  0.1289
12633W        W32167   5.134   2.516   1.902 -0.0202  0.2822  0.2711
12634W        W32168   1.555  10.675   4.618  0.0834  0.0198 -0.2041
12635W        W32169   3.373  14.554   4.584 -0.0508  0.2054  0.2158
12636W        W32170   9.886   2.327  12.628 -0.2464  0.2435 -0.1660
12637W        W32171  10.304  16.076   3.845 -0.3237  0.3543  0.0936
12638W        W32172   7.855   1.205   3.530 -0.1360 -0.2290 -0.1717
12639W        W32173   4.180   5.246  11.745 -0.0869 -0.1469 -0.0211
12640W        W32174   1.040   7.595  13.716  0.1094 -0.0017 -0.2664
12641W        W32175   3.436  17.845  15.970  0.2367  0.1935  0.1222
12642W        W32176  14.871   9.274   3.434  0.2624 -0.0357 -0.1893
12643W        W32177   6.699   4.136  12.829 -0.0610  0.1037 -0.1566
12644W        W32178  17.155   3.719  14.129 -0.1563 -0.0313  0.1168
12645W        W32179   9.455   1.722   4.250 -0.1561  0.0629 -0.0278
12646W        W32180   3.146   7.066  13.441 -0.1386 -0.3754  0.1137
12647W        W32181  13.637  14.855  12.941  0.0160 -0.1689 -0.3676
12648W        W32182  12.867   8.520  14.998 -0.3073 -0.1818  0.2910
12649W        W32183   0.001   0.038  14.109 -0.0048 -0.0366  0.2233
12650W        W32184  10.369   9.705  13.857  0.2933  0.0840  0.2230
12651W        W32185  16.281   9.252   2.908 -0.0170  0.0584 -0.0172
12652W        W32186   6.504   4.523   2.163 -0.0115 -0.0966 -0.1336
12653W        W32187  10.282   2.783   2.929 -0.2755 -0.1839 -0.1392
12654W        W32188   4.138  16.000   1.699  0.1186  0.1340 -0.2178
12655W        W32189   9.299  16.355  14.964  0.4227  0.0119 -0.1455
12656W        W32190  11.025  17.688  13.079  0.4193  0.1324  0.1383
12657W        W32191  15.815  13.086   3.644  0.0293  0.2056 -0.3295
12658W        W32192   1.188   1.222   1.822  0.0886  0.1838 -0.4862
12659W        W32193   4.130   4.291  15.450 -0.0009  0.1235  0.0222
12660W        W32194  10.303  16.713  12.290 -0.1629 -0.2489 -0.1602
12661W        W32195   5.555   0.764   1.220  0.1013  0.2420  0.0869
12662W        W32196  12.763  14.642  16.729  0.0401  0.0055  0.1289
12663W        W32197   6.030   5.880   2.412 -0.0513  0.0415 -0.0586
12664W        W32198  11.065   3.262   4.380  0.0920  0.0351  0.0898
12665W        W32199   0.915  16.123  14.364  0.0209 -0.1413  0.2058
12666W        W32200  12.001  13.186  14.002  0.0525  0.1893  0.4264
12667W        W32201  16.703  13.507   2.674 -0.2644 -0.2146  0.2167
12668W        W32202  12.627  10.730   1.697 -0.0696  0.1566  0.0458
12669W        W32203  13.292  17.223  15.313  0.4780  0.2364  0.0886
12670W        W32204   0.628   0.365   0.771  0.1941 -0.2311  0.0933
12671W        W32205   0.020   8.301   3.453  0.0259  0.0226 -0.4455
12672W        W32206  11.450  16.071   1.418  0.0723  0.1483 -0.2474
12673W        W32207   2.360  10.580   4.576  0.0915  0.0565  0.1062
12674W        W32208  12.510  10.344  13.946  0.3762 -0.0696  0.1432
12675W        W32209  16.522  12.935   4.631  0.1733  0.5064 -0.0538
12676W        W32210   3.275   8.575  13.395 -0.0902  0.1149  0.1188
12677W        W32211   1.851  13.373  15.702 -0.2117 -0.0308  0.1876
12678W        W32212   7.213   0.949  15.825  0.2841  0.2528 -0.0252
12679W        W32213  17.529   6.387  12.313  0.2230  0.1976 -0.0656
12680W        W32214   7.648  11.379  13.446 -0.1107 -0.0529  0.1039
12681W        W32215   3.516  14.147   4.248  0.2018  0.0574 -0.2420
12682W        W32216   2.907  17.216  14.265 -0.0762  0.2263 -0.1874
12683W        W32217  14.752  11.577   2.220  0.0120  0.0348  0.0961
12684W        W32218   3.001   9.463   1.876 -0.2792  0.1639  0.2085
12685W        W32219   3.746   6.495  15.464 -0.1070 -0.0017 -0.0174
12686W        W32220   5.773   4.885  15.861 -0.1002 -0.0453 -0.0020
12687W        W32221   8.688   2.280   3.825  0.0388  0.2258  0.1812
12688W        W32222   3.360   3.246   0.373  0.1629 -0.0099 -0.1570
12689W        W32223  15.092   6.180   1.792 -0.2810  0.1406  0.1590
12690W        W32224   3.380   7.039   1.741  0.1048  0.0961  0.0298
12691W        W32225  15.266   1.796  12.767  0.0653 -0.5326  0.2147
12692W        W32226  17.751   8.292  14.295  0.0930  0.0923  0.3563
12693W        W32227   0.607  15.448  14.888 -0.2290 -0.0901  0.0119
12694W        W32228   0.550  16.189   2.271  0.1311  0.1179 -0.1687
12695W        W32229   1.397  13.311  15.881 -0.0410 -0.0874  0.0280
12696W        W32230   2.704  11.199  13.752  0.1816  0.0097  0.1904
12697W        W32231   0.878   3.292  13.950  0.1150  0.2276  0.0630
12698W        W32232  14.035  14.884  11.010 -0.0922 -0.0065 -0.0956
12699W        W32233   2.058   6.571  14.811  0.0829 -0.4893 -0.1005
12700W        W32234  16.796  16.741   2.564 -0.0176  0.1459  0.1546
12701W        W32235  13.264   6.411   0.251  0.0243 -0.2585 -0.0925
12702W        W32236   4.003  10.501   2.149 -0.1051  0.2192  0.4064
12703W        W32237  14.981  15.066  15.574  0.1895 -0.3534 -0.2029
12704W        W32238   0.174  14.121   4.747  0.2684 -0.1013  0.1816
12705W        W32239   2.902  15.870   0.227  0.0822 -0.2371 -0.0921
12706W        W32240  16.439   8.397  12.400  0.0664  0.1774  0.0316
12707W        W32241  10.124  14.468  12.780  0.1588  0.1688  0.2548
12708W        W32242   9.305  11.663   4.458 -0.1791  0.2293  0.0751
12709W        W32243  11.702   6.142  16.746 -0.1230  0.2659  0.2551
12710W        W32244  10.017  13.590   3.092 -0.0072  0.2899  0.2938
12711W        W32245  11.086  11.703   0.924 -0.2036  0.2380 -0.2267
12712W        W32246   4.721  11.665   2.772  0.1135 -0.2048  0.1366
12713W        W32247   1.186   6.705  14.872 -0.1437 -0.2307  0.1687
12714W        W32248   2.708   3.049  14.156  0.0550  0.0598  0.0045
12715W        W32249  12.429  16.810   4.249  0.1453 -0.1204 -0.4689
12716W        W32250  15.853  16.972   3.580 -0.0469  0.3637  0.2936
12717W        W32251  10.971  16.129  14.900  0.0225 -0.3109 -0.0695
12718W        W32252   4.112  17.457  13.527  0.0562 -0.0886 -0.0833
12719W        W32253  11.614  11.208  12.844  0.1159 -0.1366  0.3067
12720W        W32254   1.714  17.825  16.358 -0.4965  0.1446 -0.3546
12721W        W32255  17.223  11.760  12.307 -0.2612  0.0432  0.2863
12722W        W32256   9.296   3.305  14.493 -0.0944  0.1107  0.1999
12723W        W32257  14.343   8.301   2.610  0.0770  0.0552  0.0015
12724W        W32258  15.446  13.348  13.633 -0.0519  0.1304 -0.0776
12725W        W32259   8.977  11.583  14.186 -0.0371  0.2509 -0.0961
12726W        W32260  17.520  17.607   2.117 -0.0917 -0.2793 -0.0043
12727W        W32261  11.866   0.200  14.391  0.2395 -0.1316  0.2103
12728W        W32262   8.277   9.706   2.862  0.1264  0.0511 -0.1909
12729W        W32263  13.162   3.432   5.609  0.1020  0.1088  0.2486
12730W        W32264  10.823  11.535  12.569  0.0464  0.1175 -0.0858
12731W        W32265   3.116   2.600  14.933 -0.1481  0.0453 -0.0316
12732W        W32266   9.721   5.259  13.910  0.0722 -0.0648  0.1037
12733W        W32267  13.483  17.830  15.361 -0.2450 -0.0056  0.0687
12734W        W32268   9.567  15.541  16.000 -0.1793  0.0925 -0.4006
12735W        W32269   4.000  10.292  15.393  0.2265 -0.3051 -0.0739
12736W        W32270  16.061  17.200   4.815  0.0941 -0.0581  0.2965
12737W        W32271   6.923   7.963  16.594 -0.0419 -0.0640 -0.3989
12738W        W32272   4.301   0.515  15.425 -0.3291  0.1368 -0.2690
12739W        W32273   2.987  15.723  14.777 -0.0459  0.0002  0.1438
12740W        W32274  14.574  17.556   0.238  0.1146  0.0353  0.1550
12741W        W32275  14.231   7.606   2.095  0.3239  0.1387 -0.0344
12742W        W32276  12.822  12.320  11.936 -0.0756  0.0630  0.0637
12743W        W32277  14.876   5.518   3.133 -0.0678  0.0671 -0.3215
12744W        W32278   6.069   7.990  12.304  0.2719 -0.4245 -0.2248
12745W        W32279  13.589   9.612  13.070 -0.0995  0.0741 -0.0424
12746W        W32280  16.272   0.954  13.201 -0.0113  0.0943 -0.3073
12747W        W32281   3.210  11.798  15.355 -0.0876  0.2012  0.0680
12748W        W32282   8.778  12.596   1.730  0.0138  0.1736 -0.4046
12749W        W32283   1.020  17.097   1.982  0.0887  0.3021  0.2385
12750W        W32284   4.628  10.216  16.642 -0.0687 -0.0258 -0.0665
12751W        W32285   6.122   8.394  15.404 -0.1252 -0.0461 -0.0432
12752W        W32286  13.032  13.950   4.143 -0.2267 -0.1453  0.1194
12753W        W32287  13.033   7.445  15.651  0.2646  0.1893 -0.0360
12754W        W32288   6.047   5.678  15.349 -0.0337 -0.1409  0.0686
12755W        W32289   3.714   4.035  12.077  0.1596 -0.1395  0.1143
12756W        W32290  15.320  17.222   1.368 -0.2191  0.0063 -0.1211
12757W        W32291  15.494   2.373   3.791 -0.1268  0.3162  0.0559
12758W        W32292  15.923  10.260  11.913  0.0081 -0.1759 -0.3189
12759W        W32293  13.732  15.551   4.246 -0.1356  0.0458 -0.0468
12760W        W32294   7.400  12.167  13.910  0.0200 -0.1732 -0.0248
12761W        W32295  16.450   7.779   1.223 -0.0990 -0.0044  0.1213
12762W        W32296   1.357   3.772   1.752 -0.2273 -0.3086  0.1985
12763W        W32297   3.287   1.774  15.148  0.0858  0.0891  0.5318
12764W        W32298   5.493   8.550  15.591 -0.3846 -0.2682  0.4203
12765W        W32299   5.847   8.426  13.202 -0.0159 -0.0256 -0.0295
12766W        W32300   3.240  11.441  15.755  0.4078 -0.1050 -0.0573
12767W        W32301  13.619   1.568   3.489  0.1838  0.0891  0.2760
12768W        W32302  15.826   6.920  12.261 -0.0974  0.0763  0.2387
12769W        W32303  14.864   2.458   2.341  0.0663 -0.1759 -0.0183
12770W        W32304  16.077   9.389  11.481 -0.2825  0.0594  0.0064
12771W        W32305  17.071  14.650  13.244  0.1745  0.2497  0.2873
12772W        W32306   1.767   4.906   2.716 -0.2177 -0.0840 -0.0074
12773W        W32307   5.112   2.916  14.873  0.1200 -0.1843  0.2859
12774W        W32308   3.528   4.031  14.513  0.2495  0.0807  0.1546
12775W        W32309   9.599   4.625   3.347 -0.0171  0.2174 -0.0312
12776W        W32310   7.969  11.775  14.934  0.1135  0.2743  0.1727
12777W        W32311   8.372  12.894  14.337  0.1279 -0.1827  0.1020
12778W        W32312  10.430   4.164  10.447 -0.2499  0.2365 -0.0219
12779W        W32313  17.861   9.858   3.547  0.0103 -0.1824 -0.5057
12780W        W32314   7.043  12.833  13.431 -0.1192  0.1926  0.0053
12781W        W32315   6.004  14.167  13.733 -0.1213  0.3264  0.0993
12782W        W32316   3.553  12.183  16.233  0.1024 -0.0398  0.0707
12783W        W32317   8.153   5.238   5.507  0.2386 -0.0214 -0.0394
12784W        W32318   9.348   1.550   0.666  0.2778 -0.2705 -0.1116
12785W        W32319  16.450   9.577  13.565  0.1434 -0.1757 -0.2582
12786W        W32320   6.219   3.006  14.499 -0.3511  0.1757 -0.0465
12787W        W32321  10.907  13.034   5.112  0.0103 -0.1442  0.1894
12788W        W32322   0.988   8.392   3.162 -0.2435  0.2428  0.2299
12789W        W32323   3.240   4.465  14.610 -0.1202  0.0943 -0.1680
12790W        W32324  10.150  16.950   1.374 -0.0029 -0.0769 -0.2598
12791W        W32325   6.935   0.716   1.935 -0.0903 -0.2175 -0.0495
12792W        W32326  16.152  12.372   2.413 -0.2633 -0.2715  0.0751
12793W        W32327   0.662   3.652   0.535 -0.0642 -0.1808  0.2554
12794W        W32328  16.641   7.139  14.909  0.0223 -0.0052  0.0256
12795W        W32329  13.969   3.608   2.464  0.1484 -0.0852  0.3412
12796W        W32330   9.006   2.765   0.832  0.2038 -0.1398 -0.1686
12797W        W32331   6.106   5.042  13.430 -0.0980 -0.1791  0.1452
12798W        W32332  10.315   6.138  11.695 -0.0033 -0.0198 -0.0645
12799W        W32333   3.898   7.490  13.560 -0.1297 -0.2115  0.1552
12800W        W32334   1.202   2.355  15.729  0.3508 -0.0523  0.2944
12801W        W32335  13.881  17.780   2.488 -0.1916 -0.4666  0.0618
12802W        W32336  12.555   2.857  14.031 -0.0928 -0.2039 -0.1784
12803W        W32337   0.783  10.652   4.321 -0.1705 -0.0889 -0.1886
12804W        W32338   2.907   6.859  12.861 -0.0187  0.1114  0.3940
12805W        W32339   5.321   5.463  15.583  0.0001 -0.1940 -0.1245
12806W        W32340   0.365  13.029  15.832  0.1366  0.1702 -0.3724
12807W        W32341   2.316   5.831   2.845  0.0738 -0.0488 -0.2035
12808W        W32342   7.590  14.425   3.769  0.2165  0.2308  0.0926
12809W        W32343  12.562   9.226   0.527  0.2043 -0.1133  0.0406
12810W        W32344   6.897   6.655  15.221 -0.2093  0.1164  0.1670
12811W        W32345  11.670   0.086   0.834  0.1218 -0.0711  0.1598
12812W        W32346   3.596  13.569  15.453  0.1568 -0.2045 -0.0298
12813W        W32347   4.621   0.497  13.829  0.2338  0.1012  0.0656
12814W        W32348   8.293   6.736  13.614  0.0103  0.2816 -0.0135
12815W        W32349   9.208  10.385  13.479  0.1394  0.4300 -0.1412
12816W        W32350   8.837  17.042   2.034  0.0383 -0.0823  0.2760
12817W        W32351  16.393  12.751   1.677 -0.0780 -0.5078  0.1901
12818W        W32352   0.087  13.392   1.745 -0.1525  0.1620  0.3517
12819W        W32353   8.650  11.329   4.971 -0.3624  0.1579  0.0343
12820W        W32354   0.779   6.791  12.630  0.1736 -0.0462  0.1599
12821W        W32355  10.939   1.396  12.400 -0.2225  0.0018  0.3360
12822W        W32356  16.822  10.465  16.189 -0.0879  0.2114  0.2724
12823W        W32357   0.674   3.104  14.842  0.2804 -0.3391  0.2296
12824W        W32358   8.454   5.313  16.359  0.0944 -0.1800 -0.2335
12825W        W32359   7.183  17.005  14.434  0.1970 -0.1040  0.2270
12826W        W32360   4.474   1.156  15.567  0.4033  0.0133  0.3668
12827W        W32361   6.971   1.525  13.454  0.1099  0.0538 -0.1707
12828W        W32362   5.599  10.269   3.796  0.0238  0.1852  0.1830
12829W        W32363  14.068   4.520   2.302 -0.2559 -0.2118 -0.3050
12830W        W32364   3.577  12.175  13.274  0.1874 -0.1352 -0.1414
12831W        W32365  12.414   5.927  13.684  0.1156  0.1291  0.1439
12832W        W32366  12.806   6.505   4.365 -0.1791 -0.0782 -0.0520
12833W        W32367   2.075   0.020   1.594 -0.0259  0.2006 -0.0857
12834W        W32368  16.873  13.866   4.510 -0.0207 -0.1263 -0.0078
12835W        W32369   5.635   9.513   2.460  0.0745  0.1384  0.1090
12836W        W32370   4.339  12.802   5.022 -0.1415  0.0447 -0.2498
12837W        W32371  15.943   0.142  14.158  0.0392 -0.0453 -0.0323
12838W        W32372   4.884  14.782   4.136  0.0812 -0.1403 -0.1336
12839W        W32373   9.356  12.032   2.568  0.1273  0.2016 -0.1748
12840W        W32374   2.355  16.843  13.943 -0.2550 -0.0521  0.1671
12841W        W32375  17.113   2.782  16.474  0.0312 -0.2029 -0.0745
12842W        W32376   4.126   9.179   4.268  0.2075 -0.1516 -0.0477
12843W        W32377   9.321   5.640  14.594 -0.1513 -0.1627 -0.4196
12844W        W32378   2.480  11.083  14.367 -0.1975 -0.0833  0.1937
12845W        W32379  11.848   2.173  14.260 -0.0180  0.0604 -0.1242
12846W        W32380   9.076  12.623  12.771 -0.2877  0.2957  0.1487
12847W        W32381   7.512   1.765  12.995 -0.0038  0.2894  0.2725
12848W        W32382   6.760  17.468  13.836 -0.3124  0.3480  0.1259
12849W        W32383   8.883   0.604   4.399  0.0971  0.1158  0.0755
12850W        W32384  10.286   8.970  14.672 -0.3195 -0.0762 -0.0959
12851W        W32385  15.025   9.316  13.894 -0.1551  0.0887 -0.0619
12852W        W32386  13.533  16.762  16.258  0.1382 -0.1834  0.0845
12853W        W32387   3.097   5.566  15.759 -0.2581 -0.0457 -0.1734
12854W        W32388   6.650   1.354   0.947  0.0833 -0.0913  0.0540
12855W        W32389   0.556  13.890   4.536  0.1689 -0.2148  0.2114
12856W        W32390   0.365   7.604   3.917  0.2886  0.1360  0.0012
12857W        W32391  14.690  16.543   4.762 -0.1742  0.0586 -0.2410
12858W        W32392  15.149  13.086   3.943  0.1608 -0.1628  0.1900
12859W        W32393  16.730   8.511  11.918 -0.2683 -0.2144 -0.0274
12860W        W32394   9.607  15.235   1.367  0.0266  0.3422  0.3320
12861W        W32395   0.699  16.348  16.605  0.1861 -0.2022 -0.1421
12862W        W32396  15.650   2.494   2.498 -0.0352  0.3951 -0.0512
12863W        W32397   4.046   9.944  12.804  0.0595  0.0713  0.1855
12864W        W32398   8.349  10.572   3.022 -0.0321  0.1951  0.4626
12865W        W32399   8.661   2.143  12.252  0.1839  0.3643 -0.0053
12866W        W32400   7.663   8.024  15.003 -0.1357  0.3082  0.2042
12867W        W32401  12.691  16.754   3.818  0.0840  0.0485 -0.0003
12868W        W32402  10.536   8.922  15.776 -0.2822 -0.1156 -0.1186
12869W        W32403  10.839   7.695  15.844  0.2929  0.0365  0.2335
12870W        W32404   4.522   5.578  13.929 -0.0086  0.0963 -0.1699
12871W        W32405  16.543  14.500  16.056  0.0147 -0.1815 -0.2438
12872W        W32406  11.559   1.457   1.816 -0.2382  0.0578 -0.0894
12873W        W32407  12.767   6.918  12.751  0.1788 -0.0230 -0.0180
12874W        W32408   8.751  11.474  12.787  0.2880  0.1611  0.0832
12875W        W32409   5.959  13.974  11.421  0.0067 -0.0599 -0.2130
12876W        W32410   9.032  15.512   4.390 -0.3761  0.1463 -0.0293
12877W        W32411   9.736  13.555   3.999  0.0264  0.1251 -0.2252
12878W        W32412   4.991  10.769   4.513 -0.0168 -0.0572  0.2705
12879W        W32413   7.258  15.123   3.065  0.1512  0.3094  0.0098
12880W        W32414  15.119  13.822   1.037 -0.2057  0.1815  0.4840
12881W        W32415   9.704  14.303  12.961 -0.0701 -0.0345 -0.0724
12882W        W32416  10.709  13.305   2.972  0.0125  0.1143 -0.1301
12883W        W32417   2.679   4.015   0.789  0.2360  0.1059  0.1362
12884W        W32418  12.710   1.796  13.299 -0.0139  0.0348 -0.1242
12885W        W32419  17.055   6.632   1.731 -0.1627 -0.0549 -0.0339
12886W        W32420   4.250   4.333   1.551 -0.0445 -0.0798  0.0533
12887W        W32421  14.806   6.027  14.164  0.2876  0.1944 -0.0588
12888W        W32422  14.862   5.752   0.161  0.3515  0.2279  0.0280
12889W        W32423  17.712  16.989  15.262 -0.0058 -0.2262  0.1844
12890W        W32424   5.575  13.275   3.851  0.1145 -0.2408 -0.0568
12891W        W32425  10.072  13.051  14.101 -0.0056  0.1057 -0.1856
12892W        W32426   5.426   4.272   4.681  0.0012 -0.1430  0.0664
12893W        W32427  16.269  15.698   2.783  0.2158 -0.0537 -0.4825
12894W        W32428   9.717   4.895   2.017  0.3818 -0.1978  0.0573
12895W        W32429   7.956  16.132   1.680  0.5061  0.2486  0.3269
12896W        W32430   0.592   0.635   4.540  0.1113 -0.2802  0.1940
12897W        W32431   3.585   6.148   1.696  0.0011  0.3422  0.1477
12898W        W32432  12.511   4.393   0.237  0.2049  0.1491  0.2611
12899W        W32433   0.709   1.243   3.786 -0.1369  0.0611 -0.2089
12900W        W32434  12.916   6.156  15.795 -0.1613 -0.0171  0.0571
12901W        W32435   9.926  10.020   0.232 -0.0098 -0.3788  0.1386
12902W        W32436  13.939   2.613  14.429 -0.0472 -0.0623 -0.1541
12903W        W32437  16.890   1.641  15.454  0.2392  0.0115  0.3595
12904W        W32438   8.458  10.331  13.104  0.2720  0.1235 -0.0934
12905W        W32439  15.278   4.998  12.622  0.4763  0.1077 -0.0940
12906W        W32440  10.801   4.337   1.231  0.0043 -0.3266 -0.1102
12907W        W32441  10.545   9.678   4.491 -0.3470  0.1696 -0.2532
12908W        W32442   5.673   9.234   1.132 -0.0702  0.2131  0.1116
12909W        W32443   3.182  16.676   0.474  0.0770  0.1218 -0.1767
12910W        W32444   8.031   7.976   2.881 -0.1100  0.1915 -0.2661
12911W        W32445   5.612  17.257   0.039  0.2372 -0.0619  0.0529
12912W        W32446  17.172  10.684   1.281  0.1185 -0.3015 -0.2757
12913W        W32447  10.358   3.826  15.268 -0.2453 -0.0023  0.5581
12914W        W32448  10.528   4.186   4.419 -0.0228  0.0409 -0.2184
12915W        W32449  16.210  11.980   1.629  0.2233 -0.1325 -0.0331
12916W        W32450   5.227   3.777  15.841  0.0457  0.2088  0.0336
12917W        W32451  14.467   9.199  11.790 -0.1949 -0.0030 -0.0180
12918W        W32452   9.161   4.783   3.519  0.3425  0.0346  0.4420
12919W        W32453   1.887   1.308  15.263  0.1321 -0.3394  0.0066
12920W        W32454  11.206  16.629   2.487 -0.0324 -0.1491  0.0934
12921W        W32455   1.302   4.338  12.995  0.0902  0.1440  0.0306
12922W        W32456  10.586   6.398   3.556  0.2315  0.0121 -0.1697
12923W        W32457   1.040   1.270   0.675 -0.0877  0.0995 -0.1433
12924W        W32458  16.882   2.517  12.355  0.2586  0.0960 -0.1782
12925W        W32459   8.578   8.532  15.894 -0.3720 -0.0784 -0.0132
12926W        W32460   1.341   6.661  12.441 -0.1165  0.0460 -0.0742
12927W        W32461   6.043  11.979  13.587  0.1362 -0.3296  0.1755
12928W        W32462  17.547   1.221   2.625 -0.0196  0.0308 -0.1870
12929W        W32463  11.994   0.286   1.209 -0.2993  0.2165 -0.4566
12930W        W32464  11.301   8.926   2.534  0.1853  0.1863  0.0406
12931W        W32465  13.559  13.381   0.860  0.0074 -0.1448  0.1345
12932W        W32466  10.917  16.106  13.606 -0.1481  0.1103 -0.1969
12933W        W32467   0.396   0.566  13.301 -0.2786 -0.2035  0.2636
12934W        W32468   0.070   9.963  15.566  0.2364  0.0035 -0.1129
12935W        W32469   3.609  17.153   0.397  0.2589  0.0839  0.0785
12936W        W32470   7.933  16.321   0.407  0.1494 -0.1549 -0.0499
12937W        W32471  15.826   6.659  15.128  0.2869  0.0512  0.1952
12938W        W32472   2.383  15.667  15.081  0.1534  0.2632 -0.0516
12939W        W32473  14.745  12.075   2.470 -0.1119 -0.1729  0.2259
12940W        W32474   6.024   6.476  13.017 -0.1098  0.0739  0.1004
12941W        W32475  12.396  10.994  12.374 -0.1145 -0.2797  0.1572
12942W        W32476  16.899  11.563  14.118 -0.1391 -0.0903 -0.2380
12943W        W32477   9.431  11.038  14.618 -0.0356  0.0734 -0.3732
12944W        W32478   1.887  12.357   0.256  0.1652 -0.0625 -0.1397
12945W        W32479   9.265   4.454  14.101  0.1067  0.1118 -0.2195
12946W        W32480   8.602   6.871   4.326 -0.1477  0.0239  0.0969
12947W        W32481   7.574   0.161  12.393 -0.0522  0.0402 -0.0984
12948W        W32482   6.668   8.988   3.977  0.0292 -0.3816 -0.0668
12949W        W32483   2.721   7.275  15.752 -0.0852 -0.2242 -0.2052
12950W        W32484   9.395   2.461   1.284 -0.0483  0.1827  0.3530
12951W        W32485  15.333   1.591  12.261  0.3370  0.0108 -0.2688
12952W        W32486   3.196   1.268   4.647  0.0451 -0.0519  0.0716
12953W        W32487   1.361   5.701   3.729  0.0475  0.1414 -0.1725
12954W        W32488   5.634   4.491   4.227  0.0637  0.2959 -0.3166
12955W        W32489   2.336  10.865   2.899 -0.3679 -0.0449 -0.3308
12956W        W32490  10.733   0.133   0.736  0.1959 -0.1298  0.0826
12957W        W32491   0.410   0.678   1.087  0.2682  0.0601 -0.1158
12958W        W32492  11.834  10.409  12.622 -0.1515 -0.1283 -0.2137
12959W        W32493   9.315  15.276   2.993 -0.1053 -0.5453 -0.1437
12960W        W32494  17.237   6.653  13.079 -0.0931 -0.1556  0.0466
12961W        W32495  11.946  11.708  16.573  0.1137  0.3113 -0.0262
12962W        W32496   4.787   5.853   2.397 -0.1704  0.2497  0.2642
12963W        W32497  16.711  11.491   2.788 -0.0059  0.1249  0.0686
12964W        W32498   6.774  16.913   2.393  0.3815 -0.0004 -0.4386
12965W        W32499  14.047   1.748   1.930  0.5263 -0.2734  0.1073
12966W        W32500  13.349  14.910   2.319  0.1354  0.0511  0.0764
12967W        W32501  14.090   6.551  13.223 -0.1971 -0.0107 -0.3223
12968W        W32502   6.824  12.894   0.214  0.2036  0.4411 -0.1116
12969W        W32503   1.804   8.367   1.002 -0.1493 -0.1394 -0.0536
12970W        W32504  13.976   7.479  12.219 -0.4070  0.1055  0.1235
12971W        W32505   8.025  13.449   2.162 -0.0982  0.3183  0.3248
12972W        W32506   6.884  15.160  15.620 -0.2177  0.3203 -0.4024
12973W        W32507  12.171  10.695   2.661 -0.0046 -0.0828  0.1544
12974W        W32508  15.497   0.662   2.076  0.0204 -0.1484  0.2696
12975W        W32509   3.774  12.749  15.118  0.1398  0.0654 -0.1506
12976W        W32510   0.301   6.446  14.001 -0.1534 -0.0407  0.1401
12977W        W32511   6.260   0.077  13.093 -0.1284 -0.1360  0.0514
12978W        W32512   6.966   8.651  13.984 -0.1048 -0.1148  0.1103
12979W        W32513  10.839   0.233   1.307  0.1622 -0.1028  0.2136
12980W        W32514   4.359  14.216   4.358 -0.2597 -0.2318 -0.0205
12981W        W32515   4.718  10.380   4.281  0.3014 -0.0103 -0.0982
12982W        W32516   7.722   1.414   3.063  0.2131  0.0027 -0.2047
12983W        W32517  14.944  12.903   0.837  0.1149 -0.2143 -0.1211
12984W        W32518   7.211  11.246   4.736  0.1659  0.0128  0.1272
12985W        W32519  13.349  14.193  15.516  0.1243  0.0148 -0.1065
12986W        W32520   6.394   9.129   1.821 -0.1514 -0.0563  0.1885
12987W        W32521   9.781   1.235  12.252  0.0988  0.0886  0.0862
12988W        W32522   3.978  17.448   0.386  0.0338  0.0855 -0.0317
12989W        W32523  12.258  10.155  12.832 -0.1533  0.1119  0.0318
12990W        W32524  17.806   4.814  16.026  0.2998  0.0536 -0.1039
12991W        W32525  17.744   6.611   1.269 -0.1059 -0.1373  0.1821
12992W        W32526  12.569  17.730   4.767 -0.0542  0.1150  0.0419
12993W        W32527  17.189   7.628  11.989 -0.1647  0.2739  0.2109
12994W        W32528  13.527   2.742   0.069  0.1948 -0.0933 -0.1746
12995W        W32529   0.735  10.538   3.842  0.0770 -0.2975  0.0744
12996W        W32530   0.185  14.516  12.058 -0.2114 -0.3752 -0.1071
12997W        W32531   9.830   9.071  14.972  0.1832  0.0095 -0.0601
12998W        W32532  17.169  15.679  15.794  0.3829  0.1517  0.0541
12999W        W32533  11.705  10.858   1.868 -0.0425  0.1007 -0.0358
13000W        W32534   8.811   3.246  11.485  0.0202  0.3952 -0.0024
13001W        W32535   7.346   6.528  12.658  0.0130 -0.1548  0.1003
13002W        W32536   7.164  12.202  15.930  0.3053 -0.0886 -0.0532
13003W        W32537  11.680   5.676  12.218 -0.0521  0.3335 -0.1297
13004W        W32538   0.556  15.414   2.719  0.1107 -0.3032  0.1011
13005W        W32539   2.606  15.900  13.959 -0.1336 -0.1990 -0.2639
13006W        W32540   4.123   1.742   0.514  0.0576 -0.0586  0.1244
13007W        W32541  11.962  11.743  15.637  0.2258 -0.0244 -0.2033
13008W        W32542  12.912  12.685  15.296 -0.2074  0.0087  0.2786
13009W        W32543   3.823  17.834   0.139  0.1152  0.0959  0.0225
13010W        W32544   6.349  17.025  16.001 -0.2030  0.0758 -0.1229
13011W        W32545   6.665   8.657   5.116 -0.1105 -0.0629 -0.1378
13012W        W32546   7.024  11.994   4.621  0.1483 -0.1788  0.0466
13013W        W32547  16.075  16.199  13.080  0.2401 -0.0147  0.2060
13014W        W32548   8.922  13.430   3.322 -0.2007  0.1633  0.1930
13015W        W32549  14.400  10.775  16.209 -0.3343  0.1503  0.0671
13016W        W32550  11.898  15.983  13.373 -0.0976  0.2347 -0.1028
13017W        W32551  10.885  12.435   0.664 -0.1642  0.1055  0.1494
13018W        W32552   3.864  14.422  16.032  0.2551  0.4073 -0.0483
13019W        W32553   2.700  10.673  12.779 -0.0580  0.0130 -0.2288
13020W        W32554   5.677  10.557   2.941  0.1549 -0.0038  0.1449
13021W        W32555   2.984  12.349   4.380  0.2232  0.1228  0.2106
13022W        W32556  14.017   8.724  16.489  0.0592 -0.0700 -0.0010
13023W        W32557  14.228   0.519   4.876  0.0510  0.1528 -0.0829
13024W        W32558   7.037   8.873  14.498  0.0968 -0.1242  0.0260
13025W        W32559  12.321   3.040   3.011  0.0345 -0.1238 -0.3060
13026W        W32560   9.820   7.521   4.593 -0.2413 -0.1241  0.1109
13027W        W32561  13.781  10.752   2.495 -0.0489 -0.0991 -0.0643
13028W        W32562  15.592   4.554  16.134 -0.3683  0.0133 -0.3066
13029W        W32563   3.028   4.030   5.547  0.0000  0.0979 -0.2457
13030W        W32564   5.601   2.075  15.179  0.0583 -0.0072 -0.0617
13031W        W32565  17.310  13.569   3.019  0.0508  0.0477  0.0033
13032W        W32566   0.094   8.571   2.370  0.2814 -0.1470 -0.2826
13033W        W32567  14.362  17.021  14.666 -0.2039 -0.0510  0.0248
13034W        W32568   6.136  11.731   0.175  0.1618  0.0253  0.0504
13035W        W32569   1.289   1.035  14.446 -0.1373  0.1179  0.1185
13036W        W32570   3.658   2.770  11.921  0.1900  0.2071 -0.0487
13037W        W32571  12.038  12.246   1.995  0.2777 -0.3149 -0.1142
13038W        W32572   8.050  10.842   4.415 -0.3396  0.0310 -0.1208
13039W        W32573  14.512  11.060   3.452 -0.0657  0.2099  0.0685
13040W        W32574  14.541   1.703   1.182  0.0944  0.3236 -0.4722
13041W        W32575  13.807   5.562  16.312  0.0869  0.1531 -0.1740
13042W        W32576  15.090  17.220   0.457 -0.2079 -0.3599  0.1312
13043W        W32577  12.433  11.982  16.510  0.4418  0.3265  0.0820
13044W        W32578  14.833  14.830   0.711  0.2323  0.0301 -0.3450
13045W        W32579   1.544  16.032  14.115  0.3536  0.0828  0.0858
13046W        W32580   4.686  10.728  14.954 -0.1830 -0.2324 -0.0876
13047W        W32581   5.915  11.311   3.368 -0.0581  0.0717  0.1254
13048W        W32582   1.604   6.903  15.547  0.1343  0.0596 -0.0317
13049W        W32583   4.833   1.911  16.427  0.0056  0.1699 -0.0707
13050W        W32584   8.094  14.372   3.535 -0.3348 -0.0639  0.1920
13051W        W32585   2.172   1.672   1.861  0.1644 -0.1373 -0.0864
13052W        W32586   7.153   7.969   3.100 -0.0835 -0.0218 -0.2146
13053W        W32587  11.788   0.161  13.470  0.2356  0.0666  0.0696
13054W        W32588  15.765   1.272   4.542  0.0245 -0.3575  0.1394
13055W        W32589  13.684  16.653   0.935 -0.1076 -0.1711 -0.2814
13056W        W32590  13.194  14.526   4.156  0.2034  0.0011 -0.0280
13057W        W32591   7.027  11.648   5.025  0.0413 -0.0738  0.3141
13058W        W32592  16.283  14.155  13.366  0.0402  0.4154 -0.0041
13059W        W32593  12.739   6.389   0.257 -0.3879  0.0816 -0.0625
13060W        W32594   8.506   5.285   2.259 -0.1134  0.0830  0.1850
13061W        W32595  16.230   7.231   1.610  0.1887  0.0497 -0.0063
13062W        W32596   8.308   9.327   0.174  0.2274  0.6844  0.2576
13063W        W32597  15.388  12.078  12.521 -0.4782 -0.2378 -0.1385
13064W        W32598   0.785   2.369   1.630 -0.1504  0.1064  0.1262
13065W        W32599  10.092  17.284  14.506 -0.0958  0.0352 -0.0412
13066W        W32600   2.277   3.363  11.821  0.2484 -0.1186  0.0259
13067W        W32601   0.967   9.484   1.698  0.2153 -0.0666  0.1016
13068W        W32602   5.379   2.009  11.123  0.0996 -0.1208  0.0996
13069W        W32603  16.852   5.797  16.584 -0.0915  0.4919  0.1236
13070W        W32604   1.527   6.108  13.304 -0.0623 -0.0785 -0.1204
13071W        W32605   8.520   4.661  14.332  0.0650  0.3992  0.3145
13072W        W32606  17.439   0.383   1.397 -0.0199 -0.2511 -0.0930
13073W        W32607  11.979   0.874   3.028  0.0289  0.0878  0.1342
13074W        W32608   1.690   6.605   1.123  0.1967 -0.2400  0.0736
13075W        W32609   5.398   0.701   0.285 -0.1908 -0.2493  0.1191
13076W        W32610  15.952  13.786  12.112 -0.0063  0.1339 -0.0426
13077W        W32611   5.908  11.434  15.891 -0.2828 -0.0099 -0.0642
13078W        W32612  12.235   1.226   4.574  0.2169 -0.1504  0.0346
13079W        W32613  15.827   2.506   0.192 -0.1421  0.0001 -0.0193
13080W        W32614   1.718   5.052   1.717 -0.3903  0.2320  0.0932
13081W        W32615   5.994   8.704   1.864 -0.2716  0.0804  0.1999
13082W        W32616   7.343   6.845   2.534 -0.1115 -0.0410  0.0343
13083W        W32617   0.551  12.388   2.256 -0.0423 -0.2220  0.0251
13084W        W32618  11.657   1.184   2.209 -0.1108  0.2438 -0.0048
13085W        W32619   1.081  15.066  13.018  0.2541 -0.0518  0.1788
13086W        W32620   4.486   2.423   3.900  0.2990 -0.1479  0.0122
13087W        W32621  13.437   3.217   4.295  0.1579 -0.0224 -0.0010
13088W        W32622  15.647  15.303   0.295 -0.1223  0.1335  0.3123
13089W        W32623  14.017   5.621   1.180 -0.0499  0.1262  0.2435
13090W        W32624   6.529  15.162  15.100  0.0886 -0.0225 -0.1423
13091W        W32625   2.046  14.720  12.281  0.1241 -0.0208 -0.1005
13092W        W32626   6.963   1.238   3.888  0.2015  0.5117  0.0120
13093W        W32627   3.392   9.698   0.568  0.3356  0.0974 -0.2049
13094W        W32628  13.664   3.129   2.674  0.3859  0.1468 -0.0798
13095W        W32629  17.431  11.544   3.835 -0.0461 -0.3250  0.0582
13096W        W32630   6.255  10.023  12.536 -0.1745  0.0776 -0.2852
13097W        W32631   6.233   6.476  15.649 -0.0527 -0.2439  0.0087
13098W        W32632   6.915   9.729  12.999  0.1945  0.1371 -0.0799
13099W        W32633   6.137  14.603  14.507  0.1269  0.0217 -0.0434
13100W        W32634   3.029   0.564   3.453  0.4504  0.1338 -0.1242
13101W        W32635  14.877  17.216  13.976  0.2648 -0.0409  0.1977
13102W        W32636   1.094   8.085  13.614 -0.2159  0.3212 -0.0237
13103W        W32637   0.180  12.129   1.397 -0.1296 -0.0353 -0.0558
13104W        W32638   5.309   1.671   1.728 -0.2433  0.0926  0.0322
13105W        W32639  11.928   4.295  12.614  0.1497  0.1839 -0.1783
13106W        W32640   5.739  17.581  16.429 -0.2634  0.1171 -0.0957
13107W        W32641   7.237  16.910   4.869  0.4202  0.1652 -0.0320
13108W        W32642  16.267   4.539  12.687 -0.1184  0.0286 -0.3276
13109W        W32643   5.980   5.983  13.125 -0.4028  0.0334  0.0550
13110W        W32644  14.345   9.411  14.574  0.0235  0.2139 -0.4340
13111W        W32645   7.158   4.081   2.092 -0.2856 -0.1797 -0.0067
13112W        W32646   8.932  15.547   3.908 -0.6389 -0.0377 -0.1949
13113W        W32647   7.796  17.874   1.300  0.2711 -0.0933  0.1218
13114W        W32648   9.527   9.918   4.558  0.4272  0.0775  0.0736
13115W        W32649  17.193  11.358  15.527 -0.4565 -0.0555 -0.2644
13116W        W32650  13.215   2.884   4.617  0.1723  0.2785  0.2216
13117W        W32651   1.813   4.582   1.593  0.0174 -0.5597 -0.0039
13118W        W32652   1.497   8.095  14.742 -0.0346  0.1358 -0.1474
13119W        W32653   5.539  10.006   4.827  0.1037  0.0334  0.2562
13120W        W32654   4.294   7.903   0.722 -0.2821  0.0803  0.3429
13121W        W32655   0.718  16.650   3.500  0.2138  0.1066  0.1049
13122W        W32656  10.053   4.300   2.167 -0.0490  0.0451 -0.2213
13123W        W32657   0.655   1.331   0.058  0.0612 -0.2284  0.1218
13124W        W32658   5.956  16.537   0.993 -0.2011  0.0419 -0.0924
13125W        W32659  15.294  15.713   3.530  0.2634  0.2897 -0.0482
13126W        W32660   5.504  15.295  12.489 -0.3950  0.1930 -0.1407
13127W        W32661  13.863  17.791  13.047 -0.1406  0.2759 -0.1222
13128W        W32662  14.849   3.897  15.926  0.0847  0.0472 -0.0105
13129W        W32663  15.085   5.270  15.724  0.1844 -0.1973  0.0121
13130W        W32664  13.336  16.239   1.633 -0.3145  0.2411  0.3523
13131W        W32665   7.982   9.492   4.734  0.3031 -0.1793  0.0366
13132W        W32666   1.100   7.824   4.254  0.2008  0.4651  0.1928
13133W        W32667   2.890   1.951  14.555 -0.1026  0.4710  0.1870
13134W        W32668   6.115  13.822  14.688 -0.0535  0.5169 -0.1233
13135W        W32669  15.803  17.435   5.238  0.3147 -0.0093  0.0824
13136W        W32670  16.491   9.415   1.979  0.1105  0.3600  0.0766
13137W        W32671  13.517   5.620   3.951 -0.2157  0.1506 -0.0373
13138W        W32672   7.659  13.722  15.009  0.1099  0.4597  0.0450
13139W        W32673  11.157   0.607  13.971 -0.0555 -0.0041  0.0384
13140W        W32674   5.685   8.289  12.159 -0.0118  0.2826 -0.1715
13141W        W32675  11.428  11.657  16.473  0.3398 -0.3541  0.2752
13142W        W32676   5.873   4.463  13.766 -0.2982 -0.2993  0.3327
13143W        W32677   3.790  14.120   1.182 -0.1742 -0.0142  0.2189
13144W        W32678  14.980  17.094   2.436 -0.0625 -0.1118  0.1285
13145W        W32679  17.852   5.677  14.564  0.0937  0.3081  0.0399
13146W        W32680  14.759   4.608  16.321  0.2757  0.3064  0.0759
13147W        W32681   8.798  10.394   2.410  0.0593  0.2832  0.3411
13148W        W32682   5.899   1.453  15.041 -0.3729  0.0056 -0.0013
13149W        W32683   6.675   3.007   5.489 -0.1451  0.0308 -0.1648
13150W        W32684  13.273   4.053   2.060  0.2577 -0.1282  0.0767
13151W        W32685  17.779   0.366  14.535  0.1550  0.3477  0.2769
13152W        W32686   8.689  12.080  14.869 -0.1425 -0.1036  0.1185
13153W        W32687  10.959   4.269   4.765  0.4274  0.0022 -0.0116
13154W        W32688  16.011  10.717  16.186 -0.0650 -0.1664  0.1161
13155W        W32689  11.558  11.369   0.612  0.1211 -0.0447 -0.0009
13156W        W32690   7.072   9.494   3.513  0.1506  0.2173  0.2198
13157W        W32691  14.765   3.058  15.672 -0.0532  0.0546 -0.1587
13158W        W32692   5.853  14.651  15.324 -0.0845  0.3324 -0.4913
13159W        W32693   6.697  17.346  15.314  0.3747  0.0660  0.1753
13160W        W32694  11.291   2.284  11.929  0.1350 -0.0837  0.0403
13161W        W32695  17.265   4.077   2.727  0.2482 -0.1179 -0.3174
13162W        W32696  14.971   0.237   4.387 -0.2511 -0.0932 -0.0287
13163W        W32697  15.491   3.049  13.701 -0.1482  0.0055 -0.1000
13164W        W32698   9.102   6.153  12.358 -0.2086  0.1989  0.0694
13165W        W32699  13.061  17.552   4.213  0.3260  0.0246 -0.0770
13166W        W32700  13.259  17.179   0.351  0.1443  0.1893  0.1330
13167W        W32701   7.293   2.301   1.279  0.1621  0.1391 -0.0489
13168W        W32702  15.930   2.952   4.705 -0.0530 -0.0876 -0.3146
13169W        W32703  14.635   5.929  13.659  0.0651  0.3472 -0.0968
13170W        W32704   6.527   7.986   4.332 -0.0293 -0.1314  0.4544
13171W        W32705   4.057   9.134   3.063  0.3009  0.0778  0.1978
13172W        W32706  11.863   9.438  11.654 -0.1882  0.0891  0.0567
13173W        W32707  16.119  17.172   0.071  0.0761 -0.1857  0.1891
13174W        W32708   0.776   8.361   1.771 -0.0914 -0.0515 -0.1876
13175W        W32709   1.940  13.831   2.786 -0.2340  0.1120  0.1377
13176W        W32710  10.558   3.809  12.927 -0.2428  0.3567  0.0626
13177W        W32711   2.428   8.310   0.997 -0.0708  0.0546 -0.1807
13178W        W32712   8.817   2.724   3.514  0.0477  0.0929  0.0412
13179W        W32713   1.106   7.531  16.271  0.3262  0.0549  0.1567
13180W        W32714  13.131  11.724  16.188  0.0952  0.1973 -0.0087
13181W        W32715   9.671   2.219  12.123 -0.0539  0.0613  0.0681
13182W        W32716  12.028   4.106   2.399  0.1798  0.0425 -0.0952
13183W        W32717   1.885  13.059   1.353  0.1926 -0.0606  0.2255
13184W        W32718  17.655   4.989   0.886  0.2014 -0.4106 -0.2786
13185W        W32719   6.341  14.617   2.251  0.1878 -0.0645 -0.1285
13186W        W32720   4.913  14.654  15.022 -0.1964 -0.2615 -0.0460
13187W        W32721  10.024  13.266  14.583 -0.0825 -0.1901 -0.1455
13188W        W32722   3.725  16.887   4.166  0.1130 -0.3174  0.0219
13189W        W32723   3.683   0.513  12.672  0.2025 -0.3733  0.1267
13190W        W32724   9.467   8.312  15.387 -0.0718 -0.2091 -0.0357
13191W        W32725   1.624   6.572   0.361  0.1047  0.0632 -0.1404
13192W        W32726  16.085   1.863   0.974 -0.2687  0.1467 -0.3204
13193W        W32727  12.098  15.845  12.417 -0.2057  0.3833 -0.2456
13194W        W32728   7.600   8.170   2.701 -0.2586 -0.0836 -0.1516
13195W        W32729   1.957   3.713  13.979  0.1850  0.2105  0.0160
13196W        W32730   6.543  15.460  13.735 -0.0258 -0.0529 -0.0741
13197W        W32731  12.953  10.977   4.821  0.0546 -0.1890 -0.0778
13198W        W32732  13.347   2.058  15.564  0.0690  0.0549  0.3313
13199W        W32733  14.517   6.890  12.329  0.1320  0.1415  0.0617
13200W        W32734  11.962   5.233   1.861 -0.1455 -0.3520  0.0415
13201W        W32735   2.861   9.477   2.871  0.0899 -0.3374  0.2202
13202W        W32736  14.993   3.028   3.174  0.0575 -0.1932  0.1104
13203W        W32737   9.212  13.643   2.899 -0.0501 -0.2558 -0.2414
13204W        W32738   4.612   1.394   4.887 -0.4048  0.1559 -0.0767
13205W        W32739   1.026   3.017  16.228 -0.2344  0.1155  0.0777
13206W        W32740   7.941   9.299   4.173 -0.1935 -0.3263 -0.0501
13207W        W32741   6.570   4.451  12.345  0.0848 -0.1633 -0.0834
13208W        W32742  17.432   9.186   2.864  0.1301 -0.0366  0.1362
13209W        W32743   0.975  14.810   3.077  0.2291  0.2454  0.0890
13210W        W32744   8.184  17.836   4.690  0.2923 -0.1566 -0.3114
13211W        W32745  10.687  11.968   2.037  0.1794 -0.0975  0.1833
13212W        W32746   6.960  13.558  11.266 -0.1694  0.0957 -0.0876
13213W        W32747  11.177  17.552  12.610  0.0657  0.0429 -0.0803
13214W        W32748  16.018   3.241   4.236 -0.0118 -0.0094  0.0619
13215W        W32749  16.405  13.838  13.852  0.1522 -0.3346  0.0074
13216W        W32750  17.692   5.913  13.324 -0.3270 -0.0624  0.0685
13217W        W32751   6.738  11.290   2.672  0.3187 -0.3219 -0.1583
13218W        W32752  11.551  10.757  13.104 -0.1030  0.2985  0.1024
13219W        W32753  15.241   5.739  14.311 -0.0942  0.0453  0.2052
13220W        W32754  10.242  11.782  13.547  0.2029 -0.1620 -0.0445
13221W        W32755   3.243   9.460  12.856  0.0205  0.0076  0.2660
13222W        W32756   0.083  12.472   2.490  0.0141 -0.1889  0.0828
13223W        W32757   9.163  11.718   0.957 -0.0249  0.0847 -0.0354
13224W        W32758  14.188  17.309  12.534 -0.1768 -0.0008  0.1272
13225W        W32759  14.115   9.736  16.537 -0.1349  0.0254 -0.3011
13226W        W32760   2.698  17.577   3.723  0.0157 -0.4771  0.1127
13227W        W32761  13.988  12.170  12.157 -0.1502  0.0011  0.0568
13228W        W32762   3.922   3.083  16.360 -0.1379 -0.0866 -0.0626
13229W        W32763  15.536   9.689   3.837  0.5231  0.1470  0.2108
13230W        W32764  14.188  16.912   2.084  0.1644 -0.0624 -0.4293
13231W        W32765  16.130  15.653   3.773 -0.1782  0.1840 -0.0536
13232W        W32766   8.332   2.387   5.750  0.0578  0.2240 -0.0663
13233W        W32767  17.284   3.949  12.277  0.1765  0.0509 -0.0327
13234W        W32768   8.736   5.231   4.306 -0.0349  0.1252 -0.2484
13235W        W32769   5.987   8.138  16.629  0.1858  0.0709 -0.0514
13236W        W32770  15.120   2.719  13.437  0.1140  0.0335 -0.0634
13237W        W32771   8.664   2.621   5.245  0.2913 -0.1054  0.0255
13238W        W32772  15.132   8.997   1.644  0.0959 -0.0574 -0.1608
13239W        W32773   8.508  12.615   2.301 -0.1668 -0.2015  0.0641
13240W        W32774   2.701  16.206  15.063 -0.0903  0.1263 -0.0639
13241W        W32775  11.370   0.372   4.971 -0.0660  0.1523  0.1084
13242W        W32776   9.248   3.608   3.932 -0.0525 -0.2756 -0.2782
13243W        W32777  10.143  14.075   0.303 -0.1866 -0.0433  0.5462
13244W        W32778   8.945  10.430   3.430 -0.1160  0.0461 -0.3294
13245W        W32779   9.219   2.037   3.879 -0.0041 -0.0289  0.1700
13246W        W32780   9.403  10.803  15.479  0.2463  0.0095 -0.0691
13247W        W32781  11.061  13.077  13.480 -0.0328  0.1030  0.2013
13248W        W32782   5.735   8.445   0.453 -0.1956  0.3536 -0.3652
13249W        W32783  11.141  13.281   5.579 -0.1160  0.3296  0.4217
13250W        W32784  14.351   3.661   1.671  0.0853 -0.1622 -0.1967
13251W        W32785   6.493   7.082   2.081  0.3760 -0.0315 -0.1707
13252W        W32786   7.563   2.026  11.588  0.0310  0.1627  0.0838
13253W        W32787   8.282  13.914   3.934  0.0609 -0.1970  0.2236
13254W        W32788   2.247  11.324  13.992  0.1928 -0.4168 -0.1226
13255W        W32789  16.517  17.096  13.400  0.2448  0.1917  0.1638
13256W        W32790   0.724   3.840   2.738 -0.0857 -0.1336  0.1110
13257W        W32791  12.223   2.931  13.678  0.0441 -0.1333  0.1224
13258W        W32792  15.135   3.467  15.744 -0.1302  0.0993  0.2462
13259W        W32793   8.284   2.351  15.709 -0.1285  0.2012 -0.1005
13260W        W32794  11.227   1.019  13.705  0.3555  0.3456  0.2155
13261W        W32795   9.747  13.078  14.941  0.3172  0.1341 -0.1382
13262W        W32796   8.741  11.357   0.792  0.1437  0.2687 -0.5192
13263W        W32797   3.439   0.011   1.020  0.3034 -0.1128 -0.0771
13264W        W32798  16.143  10.904  12.180  0.2601  0.0932 -0.0401
13265W        W32799   0.415  13.055   1.371 -0.3122 -0.0327 -0.1645
13266W        W32800  13.085   8.080  13.578  0.0580 -0.0856  0.3151
13267W        W32801  17.880   0.174   4.762 -0.3844  0.0708 -0.0532
13268W        W32802  11.059   4.311   2.233 -0.3242  0.0225  0.1727
13269W        W32803  16.905   9.194  15.647 -0.0183 -0.0553  0.2565
13270W        W32804   3.528  14.729   3.629 -0.2333  0.0071 -0.1150
13271W        W32805   7.489  15.096  13.066 -0.1224  0.0123  0.0599
13272W        W32806  17.061   3.341   3.976  0.1957 -0.2260  0.3509
13273W        W32807   8.617  13.678   4.509 -0.1625  0.0550 -0.2418
13274W        W32808  10.729  12.180  11.794  0.3540 -0.0363 -0.0997
13275W        W32809  13.783   4.658  11.904  0.4338 -0.0634 -0.0314
13276W        W32810  15.659   5.652  15.187 -0.0119  0.1662  0.0090
13277W        W32811  11.925   7.356  15.470 -0.0236  0.1178 -0.0632
13278W        W32812  13.003  10.897  15.803  0.0872 -0.3232  0.0679
13279W        W32813   9.434   5.733  13.148  0.0637 -0.2768  0.2551
13280W        W32814  14.436   0.645  12.923 -0.0267  0.2468 -0.1216
13281W        W32815   2.042   5.934  12.437 -0.4185 -0.0975 -0.0878
13282W        W32816   2.342   2.412   1.605 -0.2746  0.1200 -0.1579
13283W        W32817   2.745   0.392   2.219  0.0512 -0.0759  0.4115
13284W        W32818  12.110   2.002  14.675  0.2499  0.0431 -0.0472
13285W        W32819  14.746  10.594   0.856 -0.2370  0.1134  0.0171
13286W        W32820   6.109   8.949  14.091 -0.0108  0.1685 -0.0916
13287W        W32821   8.939  15.366   4.924 -0.2319 -0.2744 -0.1734
13288W        W32822  12.408   1.872   2.089  0.0377  0.0188  0.0551
13289W        W32823  16.254   4.615   0.144  0.2665 -0.0664  0.0509
13290W        W32824   9.668  11.640   0.693  0.0809  0.1473  0.0684
13291W        W32825  13.656  14.029   2.409 -0.0582  0.0417 -0.0575
13292W        W32826   4.251   4.393   0.113  0.2226  0.0349  0.3483
13293W        W32827  12.019  11.682  12.285 -0.0320 -0.1097  0.4081
13294W        W32828   1.101  16.381  11.183  0.0365  0.2639  0.1475
13295W        W32829   0.850  10.939  14.325 -0.0629  0.1234 -0.1407
13296W        W32830   2.393   5.578   3.270 -0.0607 -0.0817  0.3381
13297W        W32831   4.469  16.581  12.208  0.0926 -0.3403  0.3617
13298W        W32832   1.614   5.899  15.598  0.0770  0.0346  0.1254
13299W        W32833  11.376  12.342  13.076  0.1013 -0.0593 -0.1899
13300W        W32834  11.241   6.928  15.930 -0.2341  0.1801 -0.0190
13301W        W32835   9.878   1.443   3.004  0.1244 -0.1132  0.1190
13302W        W32836   7.658  11.287  16.539  0.1952 -0.2211 -0.1549
13303W        W32837   5.014   4.076  13.414 -0.2423 -0.2820  0.1098
13304W        W32838   4.684  14.396   3.954 -0.2795  0.0969 -0.3596
13305W        W32839   0.784   2.934   2.739 -0.0222 -0.4401  0.3537
13306W        W32840  14.167  16.110   2.910 -0.0104  0.5327  0.3958
13307W        W32841  13.235   9.696  14.283  0.1556  0.1795  0.1609
13308W        W32842  15.233   5.263   4.338  0.0688 -0.2064 -0.3000
13309W        W32843   2.378   7.556  11.805 -0.0141 -0.0329  0.1344
13310W        W32844  12.855  12.258   4.334 -0.2347  0.0934 -0.2753
13311W        W32845  17.472   4.452   3.000 -0.0268  0.4614  0.2018
13312W        W32846  17.778  13.320  15.543  0.0655  0.0555 -0.2561
13313W        W32847   3.969  14.076   2.615  0.0582  0.3132 -0.2266
13314W        W32848  16.771   9.363   1.116 -0.3484 -0.3702 -0.1364
13315W        W32849   1.615   0.941   4.553  0.1571  0.2114  0.0773
13316W        W32850  11.075   0.689  16.538 -0.1027  0.0257 -0.0271
13317W        W32851  10.998  13.153   4.604  0.1505  0.0538  0.0746
13318W        W32852  14.312  16.587   3.122 -0.0534 -0.1589  0.0341
13319W        W32853   7.978   8.062  11.780  0.1740  0.1795  0.1791
13320W        W32854  12.789   9.469  16.455  0.1811 -0.1178 -0.0242
13321W        W32855   7.114   6.726   0.095  0.0113 -0.0406 -0.0885
13322W        W32856   0.447   2.624   2.028  0.2537  0.0861  0.1208
13323W        W32857  13.806  16.536   3.043  0.1814 -0.1407  0.1913
13324W        W32858   5.332   5.421  13.022  0.1730 -0.1361 -0.1146
13325W        W32859  10.576   5.245  13.901  0.3434  0.1086 -0.0602
13326W        W32860  16.230  11.650   2.538 -0.0419 -0.1213 -0.0748
13327W        W32861   4.999   4.774   5.694 -0.3787 -0.3376  0.2046
13328W        W32862  13.820   7.581   2.396 -0.3184  0.0750  0.0370
13329W        W32863   2.837  13.914   2.367 -0.2679 -0.1370 -0.1236
13330W        W32864  14.401   5.546  13.431  0.1283  0.1479  0.1235
13331W        W32865   2.656   9.813   5.091 -0.4213 -0.1195 -0.0225
13332W        W32866   4.362   2.262  16.549  0.1528  0.0537  0.2126
13333W        W32867   4.369   2.451   0.980 -0.3024 -0.3795  0.1759
13334W        W32868   4.185   4.391   1.049  0.1645  0.2411 -0.1910
13335W        W32869   5.064   0.631  13.581  0.0053 -0.0212  0.3383
13336W        W32870  14.465  11.552   3.697  0.0877 -0.2573 -0.0303
13337W        W32871  10.064  16.128  12.732  0.0563  0.0894 -0.0347
13338W        W32872  16.633   8.619   2.868  0.2266  0.2233  0.0443
13339W        W32873   9.277  12.074  15.401 -0.1245 -0.1665 -0.1550
13340W        W32874   5.590  12.992   2.254  0.1536  0.1774  0.2741
13341W        W32875   5.724   4.775   1.131  0.1839  0.0625 -0.0448
13342W        W32876   1.971   3.548   2.899  0.2382  0.1629  0.3254
13343W        W32877   3.438   8.469  14.384  0.2646 -0.0457 -0.2705
13344W        W32878  15.397  14.739  13.121  0.1843  0.3991 -0.0200
13345W        W32879  13.498  15.667  15.678  0.1492 -0.0291 -0.4695
13346W        W32880   8.340   8.293   4.297  0.3111  0.0249  0.1889
13347W        W32881   5.951   2.449  15.432  0.0597  0.1015  0.0169
13348W        W32882  15.861  16.157  15.657  0.3008  0.1853  0.0992
13349W        W32883  10.675  17.876  12.747 -0.1155 -0.1910 -0.0324
13350W        W32884   3.322   6.038   1.259 -0.1678 -0.1068 -0.0686
13351W        W32885  11.785   1.933   0.114  0.1825 -0.0351  0.0129
13352W        W32886   5.246   3.943   0.452 -0.2294 -0.0099 -0.2571
13353W        W32887  13.152   5.726   4.710 -0.1281  0.3124  0.1185
13354W        W32888  11.020  11.181   2.602  0.3821 -0.0684  0.4047
13355W        W32889   8.947   4.989   4.766 -0.3751 -0.1991  0.0801
13356W        W32890   1.688  16.044  16.066  0.0800 -0.0517 -0.0536
13357W        W32891   9.207  16.757  13.054 -0.2664 -0.0420 -0.0393
13358W        W32892  16.329  14.572  15.571  0.1420  0.0390 -0.1474
13359W        W32893   0.800   2.693   0.705  0.1875 -0.0700  0.1172
13360W        W32894  17.747   1.657  14.141 -0.1248  0.0289  0.0279
13361W        W32895  10.713   3.845   3.915 -0.0262 -0.1937 -0.0808
13362W        W32896   8.065   1.892   6.501  0.0057 -0.2145  0.2000
13363W        W32897  10.561   7.167   2.566  0.1852 -0.1068  0.0121
13364W        W32898  11.100   3.254   0.562  0.0559 -0.0204 -0.0980
13365W        W32899   9.174   6.563  12.667  0.2709 -0.1631  0.0624
13366W        W32900  12.651   2.752   1.840 -0.0024  0.1401 -0.1486
13367W        W32901  14.345  16.899  13.193  0.4807  0.0430  0.1597
13368W        W32902  12.768   6.397   2.458  0.0334 -0.0883  0.0011
13369W        W32903  17.695   4.157  12.040 -0.3636 -0.0697 -0.3488
13370W        W32904   3.744   8.978  14.993 -0.2098  0.1456  0.3190
13371W        W32905  13.848   3.045  16.575  0.1031 -0.0818 -0.2700
13372W        W32906   3.092  16.481   1.690 -0.1471  0.2045 -0.0655
13373W        W32907   4.907  11.326   4.365  0.0100 -0.1791 -0.0634
13374W        W32908   7.234   3.585   2.200 -0.1707 -0.0075 -0.1181
13375W        W32909  16.664  14.100   2.081 -0.1010  0.2392  0.1244
13376W        W32910   5.503  12.776   1.318 -0.5078 -0.2064  0.3645
13377W        W32911  10.486   0.280  14.457  0.0722  0.0773  0.0053
13378W        W32912   4.036  13.813   2.174 -0.0350  0.1331 -0.0576
13379W        W32913  13.499   3.800   1.596 -0.1757 -0.1088  0.0243
13380W        W32914   5.507   5.761  11.980 -0.1936  0.2925 -0.0826
13381W        W32915   5.723  11.898  13.911 -0.1181  0.1802 -0.2819
13382W        W32916   2.845  16.729   2.919 -0.1617  0.1296 -0.0262
13383W        W32917   3.779  11.723  13.082  0.0352 -0.1719 -0.0466
13384W        W32918   0.749   9.133  15.453  0.2507  0.1858  0.1539
13385W        W32919  15.514  10.996   2.013  0.1702 -0.1272 -0.0652
13386W        W32920   7.157   8.013   3.557 -0.1348  0.1618 -0.2024
13387W        W32921   4.537   1.026   1.404 -0.2131 -0.1575 -0.1940
13388W        W32922   1.445   7.013  12.768 -0.0145 -0.2257 -0.1878
13389W        W32923   4.761  12.725  13.668  0.0241  0.2144  0.0978
13390W        W32924   3.413  15.674   0.316 -0.1867  0.0810 -0.0548
13391W        W32925   1.199  11.748   1.335 -0.1450  0.1716  0.1998
13392W        W32926   4.468   5.738  15.489  0.0854  0.1278 -0.1093
13393W        W32927   6.064   4.416   2.504  0.0542  0.1832  0.3796
13394W        W32928   0.413   4.092  14.279  0.0590  0.0757  0.2712
13395W        W32929  16.218  16.964   4.372 -0.2958 -0.2313 -0.2668
13396W        W32930  17.420  15.012  13.232 -0.1308 -0.2655  0.1282
13397W        W32931  13.069   7.573  13.340 -0.2178 -0.0043 -0.0255
13398W        W32932   7.363   5.398  14.406  0.0532 -0.1864 -0.2028
13399W        W32933  11.977  10.522  14.086  0.2314 -0.4783 -0.0462
13400W        W32934   8.316  17.510  15.833  0.1153  0.0170  0.2568
13401W        W32935   5.072   9.953   5.168  0.2208 -0.0598  0.0071
13402W        W32936  17.555   9.622  12.765 -0.1634 -0.1746 -0.1153
13403W        W32937  10.824  14.616   3.917 -0.1653  0.1034  0.3145
13404W        W32938  11.529   1.332  12.993 -0.3019  0.1365 -0.3096
13405W        W32939   5.559   0.481  12.569 -0.0115  0.0049  0.0343
13406W        W32940   9.733  10.963  13.027  0.0313 -0.1832 -0.1719
13407W        W32941  14.680  10.008  16.027 -0.1883  0.0701  0.1161
13408W        W32942   0.828   9.379  13.081  0.1459 -0.0140  0.0477
13409W        W32943   6.815   1.329   3.333  0.2469  0.0542  0.0295
13410W        W32944   6.973  10.097   2.929 -0.1135 -0.2640 -0.0067
13411W        W32945  11.691   3.490   2.003 -0.2685 -0.0119 -0.0830
13412W        W32946  17.598  14.118   2.303  0.1540 -0.2039 -0.4093
13413W        W32947   3.908  11.411   0.001  0.2148  0.1503 -0.0347
13414W        W32948   3.232   6.556  13.176  0.0992 -0.1228 -0.3946
13415W        W32949  14.622   7.849  16.502  0.0971  0.0902 -0.0036
13416W        W32950   3.720  17.804  13.863 -0.0070 -0.2657 -0.0064
13417W        W32951  14.926   9.453   2.876 -0.4915 -0.0404  0.2800
13418W        W32952   6.046   7.477  15.747  0.0292  0.1002 -0.2745
13419W        W32953   1.218  16.481  13.420 -0.2091  0.1266  0.4225
13420W        W32954   6.472  11.133   4.070  0.1302 -0.2274  0.3523
13421W        W32955  16.116  16.725   3.929  0.3012 -0.1133  0.0618
13422W        W32956  17.781  10.375  15.748 -0.1758  0.2972  0.0954
13423W        W32957   3.685  12.208   4.889 -0.2573 -0.0976 -0.1920
13424W        W32958  16.760   4.460  12.737 -0.3304  0.1054  0.0971
13425W        W32959  10.339  12.020  14.647  0.2008  0.0005 -0.0040
13426W        W32960   8.903   0.330   0.125 -0.1281 -0.1251  0.0497
13427W        W32961  13.068  12.188   1.020 -0.0548 -0.2230  0.0052
13428W        W32962  11.500   6.085  12.592  0.0878  0.0224 -0.0199
13429W        W32963   3.702  15.454  15.772 -0.2641  0.0461  0.1979
13430W        W32964  11.164   6.444  12.754  0.0620 -0.1352  0.2786
13431W        W32965   3.216  12.042  16.566  0.1739 -0.0583  0.0253
13432W        W32966  13.586  15.109   4.145  0.1902 -0.0091 -0.1956
13433W        W32967  17.748   0.079   1.241 -0.0958  0.0259 -0.4286
13434W        W32968   9.452   1.547   2.525  0.3970  0.2845  0.2554
13435W        W32969   5.398  11.253  12.784 -0.1710  0.4519  0.1227
13436W        W32970   0.121  12.702  12.873  0.1153  0.3407 -0.0309
13437W        W32971   7.073   2.336   4.857  0.0564 -0.0952  0.3714
13438W        W32972   9.224  14.648  13.695  0.0337  0.0990 -0.0255
13439W        W32973   9.336   2.994   0.506  0.1151 -0.0873  0.0710
13440W        W32974  10.512  14.349  12.565 -0.0229 -0.0004  0.0105
13441W        W32975  15.482  10.008   0.087  0.0707 -0.1371 -0.0245
13442W        W32976   5.898   1.328   0.478  0.1671 -0.1491  0.3422
13443W        W32977   9.045  11.565   3.723  0.5445  0.3182 -0.0841
13444W        W32978   4.893  11.110  15.246  0.3274 -0.1784  0.3473
13445W        W32979   9.191  14.994   0.565  0.1076 -0.0709  0.0789
13446W        W32980   1.615  13.268   0.610  0.0751  0.1069  0.0256
13447W        W32981  10.917   6.946  14.518 -0.0704  0.1865 -0.2431
13448W        W32982   7.060   0.914   3.468  0.2784 -0.2698 -0.1325
13449W        W32983   5.110   5.699  16.109 -0.2786  0.0751  0.1544
13450W        W32984  17.596   7.967   3.545  0.0199  0.1809  0.1060
13451W        W32985   2.112   7.495   1.280  0.0270 -0.2254  0.0503
13452W        W32986   8.964  10.862   2.593  0.1829  0.2267  0.1871
13453W        W32987   7.680  14.111   2.857  0.1179  0.4145  0.0863
13454W        W32988   3.726   2.408  16.169  0.1832  0.4841 -0.3644
13455W        W32989  16.446   2.532   2.959 -0.2732  0.1414  0.0637
13456W        W32990  12.311  14.279   5.056 -0.0815 -0.1584 -0.0640
13457W        W32991   8.669   4.821   3.558 -0.0631  0.3104  0.0164
13458W        W32992   8.253  10.669  12.365  0.0097  0.0506 -0.1171
13459W        W32993  17.201   0.439  15.184 -0.0741  0.0478  0.0860
13460W        W32994  13.324   4.201   3.525  0.1847  0.0274 -0.3696
13461W        W32995   8.666  14.114  12.597  0.1009  0.2793  0.0838
13462W        W32996  17.809  13.771   1.978  0.0469 -0.0178 -0.2726
13463W        W32997  11.372   6.792  13.645  0.2693 -0.1111  0.1623
13464W        W32998   7.159   3.463   0.837  0.0477 -0.0382 -0.0431
13465W        W32999  12.970   4.638   0.213 -0.0124  0.1225 -0.1044
13466W        W33000  12.339  11.703  13.596 -0.0714 -0.0802 -0.0172
13467W        W33001  13.086   3.615   2.459 -0.1756  0.3103 -0.0105
13468W        W33002  15.394   9.786   0.494  0.0696 -0.1402 -0.2492
13469W        W33003   4.456  14.818  13.250  0.0133  0.1201  0.1967
13470W        W33004  16.453  17.477  15.634 -0.4835 -0.0070  0.2755
13471W        W33005  15.362  11.923   1.557 -0.1754  0.0760 -0.2427
13472W        W33006  15.311   1.656  13.960  0.0226 -0.0515  0.0827
13473W        W33007   4.499  12.723   4.152  0.2461 -0.2317 -0.0925
13474W        W33008   5.550  15.550  13.712 -0.0230 -0.2472 -0.3034
13475W        W33009   3.065  13.474   3.248 -0.0128  0.0007  0.2748
13476W        W33010   3.746   0.249   0.548  0.2974 -0.1204 -0.0865
13477W        W33011   7.486  13.414   2.422 -0.3950 -0.0780 -0.0250
13478W        W33012  17.756  11.264   2.769 -0.2641 -0.1646  0.2964
13479W        W33013  11.910   5.846   5.941 -0.3648  0.0169  0.0447
13480W        W33014  16.475   4.055   0.139  0.2085  0.1329 -0.2296
13481W        W33015  13.721  14.819   4.513  0.3089 -0.0939 -0.0376
13482W        W33016   9.443  17.656   4.199  0.1949  0.5262 -0.1065
13483W        W33017   9.481   8.201   2.495 -0.0295 -0.1467  0.0145
13484W        W33018   3.674   6.345  13.308 -0.3992 -0.0856  0.0190
13485W        W33019   7.407  12.916   4.510 -0.1692 -0.0659  0.3686
13486W        W33020  15.436  13.702   0.177  0.0590 -0.2330  0.3307
13487W        W33021   0.697  14.131  12.718  0.1038  0.2348 -0.0213
13488W        W33022  12.015   1.593  15.494 -0.0339 -0.0567 -0.2618
13489W        W33023  15.964  11.345  12.510  0.1388  0.1382  0.0332
13490W        W33024   2.114  15.340  16.614  0.0710 -0.0388 -0.0458
13491W        W33025  17.529   1.155   4.446 -0.0818 -0.2443  0.1808
13492W        W33026   6.566   2.419   3.522 -0.3674 -0.1249 -0.1066
13493W        W33027   9.269   7.656   3.229  0.2499 -0.2806 -0.0096
13494W        W33028   0.235   2.366  12.196  0.0962 -0.1126  0.1278
13495W        W33029  10.913   4.097  12.009 -0.2604  0.1543 -0.0017
13496W        W33030  10.257   0.618  13.959  0.3929  0.2253 -0.0370
13497W        W33031  12.968   4.279  15.724 -0.3116  0.1667  0.0945
13498W        W33032  11.382  10.281  13.817  0.1713 -0.1937 -0.1112
13499W        W33033  14.182   8.282   0.913 -0.1150 -0.0182 -0.2753
13500W        W33034   1.554  13.657  14.828  0.0767  0.1106  0.0016
13501W        W33035  16.868   3.280  16.649  0.2253  0.0334 -0.0662
13502W        W33036   9.166  16.330   0.708 -0.0310 -0.2365  0.1059
13503W        W33037   6.478   5.356  13.617  0.0308  0.0784  0.4944
13504W        W33038   6.484  17.299   4.412  0.1551 -0.0433  0.2934
13505W        W33039   1.960   7.646  15.824 -0.2331 -0.1010 -0.0364
13506W        W33040  13.282  17.123  12.855  0.0338  0.1134 -0.0159
13507W        W33041  13.723   5.629   0.759  0.0584 -0.3027 -0.0912
13508W        W33042   4.488  11.361   0.824 -0.0335 -0.1591 -0.0216
13509W        W33043   5.194   9.352  12.366  0.0913 -0.1399 -0.0785
13510W        W33044   6.478   6.179   1.120  0.1460  0.1463 -0.1517
13511W        W33045  17.072   1.970   4.630  0.0064 -0.0689 -0.2053
13512W        W33046  15.754   8.201  15.005 -0.2070  0.1813 -0.2793
13513W        W33047   2.233  17.751  16.036  0.0104  0.0817  0.0129
13514W        W33048  13.898   5.604   0.292  0.0037  0.2052 -0.0547
13515W        W33049  15.027   7.579   1.896  0.2991  0.0432  0.0586
13516W        W33050  16.850  14.774  13.943 -0.0855  0.1254 -0.0494
13517W        W33051  15.029   4.185  12.085  0.0671 -0.0694  0.2405
13518W        W33052  11.592  11.762   1.630 -0.1096  0.1585  0.0311
13519W        W33053   6.207  14.290   3.742 -0.1653 -0.0913  0.2509
13520W        W33054   2.742  17.774  15.546  0.0341  0.0934  0.3276
13521W        W33055  15.727  10.590   0.128  0.0652  0.2975 -0.0129
13522W        W33056   9.340  16.398   2.251 -0.3343  0.1313 -0.2347
13523W        W33057   1.727   4.376  16.475  0.1750 -0.2793  0.0015
13524W        W33058   7.235   4.329   0.192 -0.0451 -0.2338 -0.0941
13525W        W33059   8.347   2.241  14.778  0.3660 -0.2001 -0.0894
13526W        W33060   1.617   3.203   0.084 -0.0743  0.1649  0.1314
13527W        W33061  12.560   4.773  14.488 -0.1512 -0.1787  0.1542
13528W        W33062  14.494   3.130  13.372  0.0492  0.1104 -0.0175
13529W        W33063   3.591  13.512  16.356 -0.3312  0.1492 -0.1380
13530W        W33064   7.234   6.777   3.341 -0.2005 -0.0466 -0.2880
13531W        W33065   0.231   3.913   2.085 -0.1347 -0.0406  0.1409
13532W        W33066  13.434   8.823   1.092  0.2274  0.3388  0.1564
13533W        W33067   6.391   0.100   1.795 -0.4832 -0.1082 -0.0201
13534W        W33068   5.266   1.053   4.331  0.1203  0.3305  0.1702
13535W        W33069  14.588  13.313   0.527 -0.2982 -0.2489 -0.1034
13536W        W33070  17.773  10.734   2.237 -0.0648  0.0036  0.1836
13537W        W33071  13.676   6.391  13.602  0.1374 -0.2327 -0.1093
13538W        W33072  14.511  10.266   3.204  0.2240  0.2425  0.0659
13539W        W33073   2.498  11.282   1.946  0.1530 -0.0050 -0.0315
13540W        W33074  11.936   7.483  14.983 -0.1620 -0.3216 -0.0530
13541W        W33075   7.141   4.015   0.872 -0.1097  0.3047 -0.3825
13542W        W33076   7.927  15.507  15.023  0.0357  0.0051  0.1258
13543W        W33077   4.677  16.752  14.088  0.3623 -0.0887  0.1324
13544W        W33078  17.755  14.744   3.743 -0.0367 -0.1837  0.2000
13545W        W33079  11.525   2.284  13.476  0.4522 -0.1129  0.0355
13546W        W33080  16.183   1.636  16.083  0.3250  0.1481  0.1528
13547W        W33081   2.993   8.106  14.129 -0.1330 -0.0303  0.0501
13548W        W33082  12.276  14.626  16.049 -0.1856  0.2243  0.0842
13549W        W33083   1.714   2.133  13.377  0.1199 -0.0927  0.1323
13550W        W33084  11.914  13.180   0.344 -0.0760  0.0992 -0.2541
13551W        W33085   9.896   2.883   2.472  0.1356 -0.3791 -0.1187
13552W        W33086  15.839   6.476  13.223 -0.1120  0.1253 -0.2833
13553W        W33087   8.430   3.390  14.635  0.1694 -0.0210  0.4279
13554W        W33088   4.997   3.528   1.429  0.2578  0.1098 -0.1146
13555W        W33089  10.370   9.181   2.161  0.1590  0.1086  0.1048
13556W        W33090   0.329  12.569   1.203 -0.3088  0.1847 -0.1069
13557W        W33091   7.052  10.747   0.313  0.0731 -0.0632  0.2436
13558W        W33092  10.383   0.380   0.449 -0.2229 -0.1871  0.0831
13559W        W33093   9.020  15.531   3.448  0.0315 -0.2823  0.3713
13560W        W33094  15.838  14.763   2.333  0.0515  0.1331  0.0334
13561W        W33095   4.504  16.518   2.379 -0.0193 -0.0937  0.2492
13562W        W33096   8.295  12.090  15.139 -0.1069 -0.1402  0.3501
13563W        W33097  13.441   5.000   2.259 -0.0560  0.1968  0.0431
13564W        W33098  14.457   3.114   4.080 -0.2797 -0.1725  0.2258
13565W        W33099   0.147   7.888  15.852 -0.0614 -0.0415 -0.0610
13566W        W33100   2.224   6.271   3.907  0.1056 -0.0743  0.0619
13567W        W33101   1.297  16.657  12.121  0.1007  0.4016 -0.2566
13568W        W33102   3.167   3.212  13.415  0.1880  0.1820  0.4069
13569W        W33103   2.914   9.202   3.980  0.1035  0.5282 -0.4157
13570W        W33104   9.440  10.903   1.709 -0.1928 -0.1506  0.0661
13571W        W33105   5.943  11.051   1.028 -0.0997 -0.0617 -0.0480
13572W        W33106  16.395  15.796   3.304 -0.3247 -0.3487  0.1788
13573W        W33107   6.189   7.264  13.705  0.2550  0.1517  0.0504
13574W        W33108   9.637   2.282   3.316  0.1590  0.0108 -0.2672
13575W        W33109   6.501   7.793  13.628 -0.1186  0.1174 -0.1293
13576W        W33110  15.835  15.664   1.779  0.1028  0.2244  0.0152
13577W        W33111   6.332   5.971  15.664  0.0942 -0.0612  0.0895
13578W        W33112   0.388   5.112   3.319 -0.0403  0.1100  0.1206
13579W        W33113   4.643  16.279   1.719  0.1800  0.0069 -0.0105
13580W        W33114   0.929   2.432  13.321  0.0678 -0.1369 -0.2052
13581W        W33115  13.510   1.147  14.773 -0.1370  0.0426 -0.0266
13582W        W33116   5.666  10.490  12.132  0.2577 -0.0079 -0.0361
13583W        W33117   4.545  12.929  12.325  0.1646 -0.1362 -0.0324
13584W        W33118   3.196   8.198  12.534  0.0814 -0.2943  0.2576
13585W        W33119   0.441  11.861   2.026 -0.2538  0.0525 -0.0192
13586W        W33120   9.776   6.911  11.591  0.0873  0.0195  0.1622
13587W        W33121  16.957   6.757   0.184  0.3958 -0.2751  0.0797
13588W        W33122   1.645   3.746  14.324 -0.1513 -0.0420 -0.0733
13589W        W33123  11.814  15.157   1.136  0.0118 -0.0315 -0.1341
13590W        W33124   1.799   2.327  16.120 -0.1371 -0.2356  0.1145
13591W        W33125   6.703   5.470   1.089  0.1963  0.1597  0.0530
13592W        W33126  11.488   5.450   4.075  0.2025 -0.1954  0.0610
13593W        W33127   0.171  15.382   4.847  0.0219  0.1493  0.0644
13594W        W33128   2.853  13.934   3.391 -0.5612  0.0804 -0.1417
13595W        W33129   2.306  12.602  14.570 -0.0542  0.0476 -0.0645
13596W        W33130   7.217  12.576   2.098  0.2393  0.3805  0.1322
13597W        W33131  14.343   5.978   1.437 -0.0601 -0.3354  0.0572
13598W        W33132   7.909  12.667   0.777 -0.1419 -0.4291 -0.3106
13599W        W33133   7.091   4.087  16.364  0.0088  0.2973 -0.0091
13600W        W33134   1.499   5.548  15.918  0.0953  0.2986  0.1670
13601W        W33135  13.691  10.358  15.301  0.0380 -0.1729 -0.0829
13602W        W33136   5.317  10.335  12.484  0.0997  0.1838  0.0588
13603W        W33137   1.225   3.240   4.648 -0.1132  0.1873  0.0983
13604W        W33138   6.332  10.829  13.412 -0.2742 -0.0020 -0.0209
13605W        W33139   7.476   2.018   1.656  0.0819  0.2592  0.4382
13606W        W33140  11.559  16.672  13.129 -0.2539 -0.1866 -0.1319
13607W        W33141  15.832  14.685   3.458  0.1333 -0.1592 -0.1032
13608W        W33142  10.043   2.179  15.982  0.0801 -0.1459  0.1535
13609W        W33143  11.143   0.311   3.062 -0.0043  0.0659  0.1305
13610W        W33144  10.367   5.294  16.584 -0.1768 -0.0291 -0.0505
13611W        W33145   1.474  12.123   0.565 -0.2446 -0.1113 -0.1091
13612W        W33146   1.034   9.175   0.316 -0.6144  0.0424 -0.2937
13613W        W33147   0.054   6.605  16.579 -0.0346 -0.0587 -0.0013
13614W        W33148   0.609   4.898   1.604  0.0127  0.0073 -0.0692
13615W        W33149  12.414  12.603  12.078 -0.0829 -0.0600 -0.3185
13616W        W33150  15.409   6.104  13.306 -0.3521  0.0588  0.1889
13617W        W33151  14.436   6.020  15.175 -0.0394 -0.0284 -0.1498
13618W        W33152   6.884   5.109  14.576  0.2437 -0.1013 -0.2194
13619W        W33153   7.712   9.142  14.289  0.1340 -0.1083  0.0859
13620W        W33154  10.381  15.364  12.789 -0.1429  0.1534 -0.0335
13621W        W33155  11.098   6.375   1.445  0.2088 -0.1320  0.1205
13622W        W33156  12.567  14.200   1.688  0.0413 -0.3238 -0.1110
13623W        W33157  11.899   6.655  14.018  0.2166  0.2485  0.1389
13624W        W33158  12.236  14.478  13.986 -0.0103 -0.2190  0.2728
13625W        W33159   7.315   4.131   5.237 -0.0769  0.1025  0.0522
13626W        W33160  11.648   8.985   0.444  0.1585 -0.0244 -0.1350
13627W        W33161  16.096  15.296   2.622 -0.2859 -0.1132 -0.1257
13628W        W33162   1.957   6.473  12.644 -0.0309  0.4968 -0.0012
13629W        W33163  10.016  17.639  12.848  0.2108  0.0343  0.0093
13630W        W33164   2.865   3.697  12.377 -0.0854 -0.3085 -0.0335
13631W        W33165  17.730  12.079  15.188  0.0790 -0.0925  0.0020
13632W        W33166  11.531   5.673   0.321  0.1980  0.1563  0.0149
13633W        W33167   7.267   9.279  11.416 -0.1242  0.0216  0.1680
13634W        W33168  12.029   2.606  15.948  0.0445 -0.1104 -0.0005
13635W        W33169  10.305  10.168  14.093 -0.2945 -0.2086 -0.0674
13636W        W33170  12.105  10.487   1.731  0.0136  0.0326 -0.1454
13637W        W33171  14.369   4.094  12.832  0.0220 -0.2853 -0.0883
13638W        W33172   6.229   7.001   2.541  0.0608 -0.0840 -0.0851
13639W        W33173  14.117   4.113   3.327  0.3518  0.0359 -0.0877
13640W        W33174   3.183  10.951  12.208 -0.1162 -0.0154  0.0168
13641W        W33175  15.816  15.583  16.235 -0.2907 -0.2352  0.0726
13642W        W33176   4.059  15.070   2.617  0.3737  0.0513 -0.1247
13643W        W33177   0.346   3.151   2.562 -0.1021  0.0562  0.1262
13644W        W33178  11.054  13.167   3.405  0.0256 -0.1104 -0.0817
13645W        W33179   7.092   2.677   0.943 -0.0875  0.0751  0.2699
13646W        W33180  14.667   2.857   3.501 -0.1581 -0.2107 -0.3009
13647W        W33181   0.302   2.121  14.429 -0.1196  0.1989 -0.0251
13648W        W33182  16.122  11.931  16.254 -0.1004  0.0752  0.0619
13649W        W33183  15.737   3.358   2.955 -0.1548 -0.2245  0.0127
13650W        W33184   6.250  11.285  15.073  0.3311  0.4534 -0.1019
13651W        W33185   9.966  17.822  13.849 -0.1174  0.2148 -0.0702
13652W        W33186  16.759   6.002   2.389  0.0966  0.0785  0.1111
13653W        W33187   1.934   7.842   5.418  0.4352  0.1672 -0.0827
13654W        W33188   8.805  15.573  14.639 -0.3627 -0.4085 -0.1458
13655W        W33189  11.032  12.029  13.270  0.0450 -0.0159 -0.0137
13656W        W33190   6.473   3.356  12.314 -0.2182  0.1848 -0.1332
13657W        W33191   0.010   4.938  13.581 -0.0724  0.1611  0.3763
13658W        W33192   9.423  16.576  16.111  0.1103  0.2212 -0.1227
13659W        W33193   0.369  13.659  11.996 -0.3119  0.0918 -0.2800
13660W        W33194  10.903  10.028  15.405  0.3192 -0.1238  0.0380
13661W        W33195   8.061   7.825   4.237 -0.0090 -0.2068  0.1112
13662W        W33196  17.204   4.865  15.155  0.0712  0.1215  0.3945
13663W        W33197   4.329   7.821  16.337 -0.0216 -0.2078 -0.1460
13664W        W33198   9.205   4.753  14.942 -0.2602 -0.1052 -0.1747
13665W        W33199  10.055   8.025   4.112  0.0982  0.0053  0.1975
13666W        W33200  15.218  15.150  12.142  0.1138  0.1381  0.2959
13667W        W33201  17.618   7.180  10.998  0.0747 -0.0664  0.3011
13668W        W33202   7.478   1.366  11.945 -0.2998 -0.3434  0.0340
13669W        W33203   3.030   8.067  14.983  0.0674  0.3655 -0.0515
13670W        W33204   0.019   9.555   4.413 -0.1310 -0.0003 -0.0778
13671W        W33205   2.482  17.614  12.730  0.0543 -0.2143  0.2475
13672W        W33206   0.184   2.071   1.408 -0.1364 -0.1210  0.1166
13673W        W33207   6.193   7.677  15.330  0.1140  0.1956 -0.2236
13674W        W33208   9.504   7.208   3.073 -0.1560 -0.0162  0.1559
13675W        W33209  15.284   2.729   4.099 -0.2063 -0.1500 -0.3002
13676W        W33210   0.183  11.211   3.106  0.4052  0.2165  0.0939
13677W        W33211   3.298   6.454  16.332 -0.2047 -0.0997 -0.2354
13678W        W33212  10.842   9.160  13.052  0.1265  0.0279 -0.0869
13679W        W33213   9.119  12.726   1.282 -0.1105 -0.2890  0.2012
13680W        W33214   5.448  16.686  15.759 -0.2306  0.2595  0.1707
13681W        W33215  15.617   9.558   2.329  0.0169 -0.0240 -0.2370
13682W        W33216   1.198   3.732   2.888  0.1466 -0.0219  0.0576
13683W        W33217  17.404   1.693  14.546  0.0783  0.1579 -0.0981
13684W        W33218  17.890   3.779  14.086  0.0360  0.3262  0.3228
13685W        W33219  11.350  15.170  11.942  0.3651  0.1055 -0.2295
13686W        W33220  12.230  13.687  14.545 -0.3602 -0.0397  0.3222
13687W        W33221   2.362  14.347  15.426 -0.2381 -0.1582 -0.1608
13688W        W33222   9.649   5.573  14.998  0.3003 -0.0372 -0.1764
13689W        W33223  16.501   9.929   2.015 -0.0412  0.1707 -0.1118
13690W        W33224  13.231   0.720   4.770  0.1093  0.2849 -0.3588
13691W        W33225  13.160   0.786  12.892  0.0765  0.1727  0.3285
13692W        W33226  11.219  16.241   0.576  0.1659 -0.1833  0.3216
13693W        W33227  13.074  15.219  14.477 -0.1016 -0.2806  0.0064
13694W        W33228  12.519   5.282  11.986 -0.1540  0.1354 -0.0349
13695W        W33229  13.846  14.312  14.054 -0.3208 -0.2715  0.1056
13696W        W33230  14.390  15.230  13.167 -0.1905 -0.0215 -0.1477
13697W        W33231   5.146   1.219  16.274 -0.3816  0.0740  0.4761
13698W        W33232   1.841   0.307   0.725 -0.2757 -0.1593 -0.0484
13699W        W33233  11.791  13.847  12.245 -0.0567 -0.1876  0.1646
13700W        W33234   8.360  17.557  13.276 -0.0576 -0.1419 -0.1224
13701W        W33235   5.107  16.682  16.626  0.2601 -0.2431  0.2286
13702W        W33236   8.243   3.843   4.235 -0.1726  0.1831 -0.3210
13703W        W33237   8.828  17.138   4.821  0.3288  0.0499  0.2148
13704W        W33238   4.840  13.927   4.171 -0.2448  0.0638 -0.0496
13705W        W33239   1.875   1.844   0.729  0.0115 -0.0932  0.2472
13706W        W33240  15.129  12.995  14.680 -0.1087 -0.1560 -0.0454
13707W        W33241   4.901   9.065   1.506 -0.3949  0.1567 -0.0198
13708W        W33242  14.880   9.713  13.535  0.0422  0.3190 -0.0284
13709W        W33243   3.807   9.424  16.659 -0.2184  0.1823  0.5846
13710W        W33244   4.479  10.351  12.160 -0.1688 -0.1347  0.1093
13711W        W33245   4.475  10.248   0.372 -0.1562  0.0918  0.1778
13712W        W33246  16.831   2.577   3.469 -0.0628  0.0765  0.2685
13713W        W33247  16.515  15.335   3.261 -0.1441  0.1799 -0.2406
13714W        W33248   9.950   4.356   1.171 -0.1926  0.1586 -0.2765
13715W        W33249   6.694   2.294   1.194 -0.1229 -0.1292  0.0195
13716W        W33250   2.791   3.476  11.741 -0.0343 -0.0403 -0.0682
13717W        W33251  17.404  11.472  14.292 -0.2762 -0.2395  0.1230
13718W        W33252  17.390   8.875   0.294 -0.1705  0.1842 -0.0161
13719W        W33253   5.394   2.367  16.207 -0.2374  0.0278  0.1078
13720W        W33254  10.655  11.466   0.907  0.2801  0.3085  0.1925
13721W        W33255   9.477   5.647   4.769 -0.1317  0.2381  0.3396
13722W        W33256   9.244  12.287   1.976 -0.1333 -0.0446  0.1911
13723W        W33257  16.860  12.519  14.751  0.0774 -0.2851 -0.3219
13724W        W33258   6.204  17.715  15.204  0.2102 -0.1471 -0.3359
13725W        W33259  16.246   5.692  14.339 -0.0952 -0.1409  0.3801
13726W        W33260   8.347  16.070  13.310  0.1129  0.2659 -0.1282
13727W        W33261   7.501  15.459  13.489 -0.0381  0.0811  0.3672
13728W        W33262   4.128  17.330  15.491 -0.0310  0.1735 -0.1856
13729W        W33263   1.163   1.818  15.845 -0.0097  0.0840  0.3595
13730W        W33264  11.723   4.028   2.776 -0.2231 -0.2453 -0.1055
13731W        W33265   6.443  12.242   3.368 -0.2348 -0.0684  0.0382
13732W        W33266   2.474  15.769   0.489  0.3822  0.1254  0.3983
13733W        W33267  17.121  14.156   1.302 -0.1136 -0.0393  0.0077
13734W        W33268   8.699  10.433   3.856  0.1782  0.3776 -0.1395
13735W        W33269   0.370   7.899  13.003 -0.3442  0.1994 -0.3782
13736W        W33270   2.394   7.792  16.626  0.0795  0.1098  0.0459
13737W        W33271   6.479   3.359   0.181 -0.0619 -0.2030  0.2408
13738W        W33272  16.447  13.639  13.397  0.0362 -0.0055  0.2306
13739W        W33273  14.177   3.468  16.309  0.0121  0.0441 -0.0138
13740W        W33274   1.398   8.534   1.876 -0.1494 -0.0515 -0.3600
13741W        W33275  16.424   9.454   3.437  0.1492 -0.0437  0.4741
13742W        W33276  13.059  12.772   1.751 -0.0157  0.2640 -0.3936
13743W        W33277  16.528  13.206  12.312  0.2116  0.2043 -0.0246
13744W        W33278   3.567   0.583   4.025  0.0229  0.0657 -0.3633
13745W        W33279  13.002   6.123  12.367 -0.0670 -0.1151  0.3444
13746W        W33280  10.343  14.800   2.656 -0.0316 -0.0954 -0.0870
13747W        W33281   9.135   8.684   0.768  0.3500 -0.0526 -0.2704
13748W        W33282   0.270   2.542   1.471 -0.0376  0.2747 -0.0131
13749W        W33283  11.340   9.101  12.800  0.0574  0.4083 -0.1217
13750W        W33284  14.577  13.777   2.076  0.1483  0.2516 -0.2420
13751W        W33285  10.942   1.466   4.089  0.0622  0.0369  0.1200
13752W        W33286   4.790   8.121  14.608 -0.2977 -0.0273 -0.2684
13753W        W33287   9.777  16.322   2.001  0.2543  0.0051  0.0223
13754W        W33288  17.078   2.162   2.596 -0.1689  0.1658 -0.2219
13755W        W33289  10.757  13.859  15.153 -0.1735 -0.3002  0.1740
13756W        W33290  17.340  10.092   3.229  0.0177 -0.2234 -0.0150
13757W        W33291   0.592   7.164   1.216  0.0568  0.2737 -0.2332
13758W        W33292  11.553  12.028  14.780  0.0069 -0.1196  0.1847
13759W        W33293   1.974   0.959  13.933  0.3806 -0.1698  0.0432
13760W        W33294  12.392  17.344   0.162  0.0451 -0.1482 -0.0109
13761W        W33295   5.941  10.781   0.267 -0.0605 -0.1263  0.2248
13762W        W33296   6.311   3.702   4.955 -0.0428  0.1938  0.0965
13763W        W33297  14.861   3.072   0.187  0.1136 -0.5645  0.1989
13764W        W33298  11.508  11.392  15.652 -0.0888  0.0365 -0.0356
13765W        W33299   0.911   1.473  14.801  0.2910  0.0441  0.3390
13766W        W33300  17.648   7.535  12.281 -0.2396  0.0554 -0.0479
13767W        W33301   5.216  12.548   0.578  0.1164  0.1608 -0.0875
13768W        W33302   1.029  12.340   2.050 -0.2502 -0.1425 -0.2666
13769W        W33303  15.188  11.564  14.596 -0.0197  0.0177 -0.0260
13770W        W33304  14.115  16.242   3.442  0.2028  0.3230  0.2195
13771W        W33305  10.580  12.163   0.340  0.2059 -0.1636 -0.0630
13772W        W33306   7.494  12.986  13.161  0.0894 -0.0767  0.0385
13773W        W33307  14.345  15.405  15.808  0.2585  0.1697  0.0465
13774W        W33308   6.640   0.243  16.221 -0.0736  0.1783  0.1679
13775W        W33309   0.912   0.629   2.439  0.2430  0.0234 -0.0445
13776W        W33310   4.729   6.594  16.171 -0.2045  0.0418  0.0983
13777W        W33311   0.521   3.865   3.177 -0.1632  0.0653  0.0470
13778W        W33312   1.217   4.233   2.626  0.0879 -0.3324 -0.1179
13779W        W33313   4.036  14.993  11.883  0.1177 -0.3553 -0.0474
13780W        W33314   8.345  10.082  16.603 -0.2106 -0.1574 -0.2397
13781W        W33315  11.985  11.670  14.671  0.0631  0.3017 -0.0762
13782W        W33316   0.029   8.803   1.099 -0.2922  0.1635 -0.2742
13783W        W33317   3.953   8.560   1.968  0.1480  0.0262  0.1300
13784W        W33318   5.538   3.172   0.899  0.0758  0.1744  0.2324
13785W        W33319  13.956  14.250  16.576  0.0845 -0.1267  0.5111
13786W        W33320   2.157   3.197   0.634 -0.0847 -0.0712  0.3935
13787W        W33321   2.462  15.944  12.599  0.1223  0.1823 -0.0598
13788W        W33322  13.034   2.727  14.112  0.1306  0.0362 -0.0233
13789W        W33323  17.093   3.060   3.486  0.2220  0.1630  0.2527
13790W        W33324  10.340   3.111  11.900 -0.0269 -0.2287 -0.3185
13791W        W33325  13.626   6.680  12.436 -0.2118  0.0362 -0.2140
13792W        W33326  14.135  10.682  12.547  0.0219 -0.1843  0.1712
13793W        W33327   9.681   9.091  13.501 -0.0395  0.0204  0.1461
13794W        W33328   8.248   4.644   1.570  0.5351 -0.0745  0.3798
13795W        W33329  13.721  13.555  13.505 -0.0879 -0.0103  0.2189
13796W        W33330  11.715  12.657   4.321 -0.0384  0.0306  0.1240
13797W        W33331  16.316  10.281  16.235 -0.1229 -0.1486  0.0962
13798W        W33332   4.779  14.324   3.018  0.1933 -0.2772  0.1047
13799W        W33333  14.072   9.572  16.017 -0.1447  0.1370 -0.2042
13800W        W33334  14.700   3.935   0.555 -0.0001  0.1143  0.0878
13801W        W33335   4.624   1.984   4.046  0.0667 -0.3583  0.0989
13802W        W33336  10.547  16.313  12.392 -0.1754  0.3272 -0.3003
13803W        W33337  17.155   9.763   2.818 -0.0421  0.3275  0.0723
13804W        W33338   4.472  14.262   2.570  0.2153  0.1455 -0.3828
13805W        W33339  17.421  11.077   3.730 -0.1561 -0.1039 -0.0678
13806W        W33340   9.498   8.930   1.038  0.0159  0.0422  0.2281
13807W        W33341   4.798   6.173   5.359  0.1457 -0.1467 -0.1184
13808W        W33342   4.884   4.263   2.115  0.2323 -0.1328  0.2215
13809W        W33343   9.857   4.227   1.725 -0.1989  0.1419 -0.0380
13810W        W33344   2.077  11.945   3.331 -0.2565  0.0363  0.0034
13811W        W33345   2.569   0.187   1.726  0.1662  0.2641 -0.0316
13812W        W33346   5.215  14.215  14.520 -0.3164 -0.1455 -0.1305
13813W        W33347   4.754   7.982   3.026 -0.0474 -0.2428  0.2190
13814W        W33348  15.531   8.274   1.408 -0.0397 -0.0220  0.2968
13815W        W33349  11.925   5.616   4.810 -0.2259 -0.0983  0.0616
13816W        W33350  16.729  17.204  14.695 -0.2608 -0.1125  0.0806
13817W        W33351  15.228  15.182  16.319  0.1844  0.2660 -0.0573
13818W        W33352  14.766   4.140  12.525 -0.2076 -0.0001 -0.1407
13819W        W33353  14.823   2.082   2.828 -0.1632 -0.3113  0.0404
13820W        W33354  15.390   0.963  15.874 -0.1218  0.1880 -0.2549
13821W        W33355  11.195   8.495   4.208  0.0314 -0.1341  0.0679
13822W        W33356   2.838   6.943  14.986 -0.0750 -0.2963  0.3560
13823W        W33357   9.342  10.218   1.927  0.2069 -0.2195 -0.3099
13824W        W33358   0.095  12.852   5.719 -0.0901  0.0962  0.0017
13825W        W33359   0.025   7.523  11.841  0.1701  0.1119 -0.0278
13826W        W33360   3.323  10.806   4.702 -0.0650  0.1641 -0.1334
13827W        W33361  13.804   6.289   2.509 -0.1664 -0.2853 -0.2032
13828W        W33362   8.450  16.343   1.480 -0.2649  0.0284 -0.3685
13829W        W33363   8.506  16.482  15.845  0.0088  0.2325 -0.0664
13830W        W33364  13.759   0.703   4.954  0.0851 -0.0632 -0.0072
13831W        W33365   1.889  15.955   5.146  0.0480 -0.1336  0.2157
13832W        W33366   3.798  15.425   4.783 -0.1056  0.0530  0.0572
13833W        W33367   9.809   2.866   3.036  0.2914  0.1148 -0.1008
13834W        W33368  10.826   3.664   6.035 -0.2719  0.0553  0.2337
13835W        W33369  10.548   6.244  13.693 -0.3008 -0.1331  0.0058
13836W        W33370   7.941  12.131   1.593  0.0863  0.1304 -0.0442
13837W        W33371  15.957   5.614   2.528  0.1159  0.2180 -0.0712
13838W        W33372  14.944   4.787   4.539  0.0623  0.1404  0.0015
13839W        W33373  10.977  13.224   0.828 -0.3694 -0.0999 -0.0058
13840W        W33374  13.462  12.554   5.108 -0.0885  0.0457 -0.1126
13841W        W33375  13.056  16.714   0.475 -0.0683  0.0146  0.0667
13842W        W33376   0.069   4.432  15.722  0.0435 -0.1462 -0.0916
13843W        W33377   5.535   0.387   0.871  0.0006 -0.2113 -0.3290
13844W        W33378   1.849   6.537  13.404  0.0581 -0.0318  0.1323
13845W        W33379   1.900  14.603  14.768  0.2357 -0.0704 -0.0126
13846W        W33380   8.213   8.213  13.204 -0.1320 -0.3443 -0.2349
13847W        W33381   5.718  13.413  14.740  0.0258 -0.2017 -0.0926
13848W        W33382   5.198  13.505   3.045  0.0051 -0.0496 -0.2335
13849W        W33383   6.974  13.442  16.297 -0.0161 -0.1720  0.0503
13850W        W33384  15.752  17.188  14.363  0.4555 -0.0055  0.0081
13851W        W33385  17.745   8.027   1.477  0.2535 -0.0686 -0.3829
13852W        W33386  14.432  10.336  11.982  0.2494  0.1747 -0.2192
13853W        W33387  17.628   7.544   1.185  0.1533 -0.2799 -0.0163
13854W        W33388   4.105   3.544  13.193  0.0538 -0.1543  0.1141
13855W        W33389   0.907  17.152   3.376 -0.0378 -0.2280 -0.2333
13856W        W33390  13.425  10.352   3.798  0.1297 -0.1196 -0.1764
13857W        W33391   5.290   6.765   4.604  0.0888  0.2539 -0.1688
13858W        W33392   2.533  10.060   4.523  0.3157  0.0311 -0.1824
13859W        W33393  15.359   6.790  12.890  0.0381  0.1244 -0.0372
13860W        W33394   0.487   1.336   4.989 -0.3245 -0.4116  0.1538
13861W        W33395   1.718   8.796   4.133 -0.2410  0.0481 -0.1172
13862W        W33396   3.649   6.561  14.146  0.2522  0.0655 -0.3484
13863W        W33397   2.470  12.347   0.908  0.0306 -0.0101 -0.1431
13864W        W33398   8.052  16.643  12.370 -0.0178 -0.1019  0.2382
13865W        W33399  15.059   4.698   4.040 -0.1287  0.1328 -0.0550
13866W        W33400  11.504  17.352  16.424  0.2185  0.0244 -0.3056
13867W        W33401  17.262  13.484  15.512 -0.0059  0.1431 -0.1991
13868W        W33402   9.548   1.728  12.433 -0.1284 -0.1498 -0.0547
13869W        W33403   1.480  11.120  15.228 -0.1657 -0.0523  0.0747
13870W        W33404   9.815   9.676  12.727  0.1335  0.0846 -0.0137
13871W        W33405   4.641  10.952  13.433  0.2002 -0.0523  0.0725
13872W        W33406  10.013   4.473  12.776 -0.1831  0.1429 -0.0464
13873W        W33407  16.385  16.383   2.105  0.1036 -0.0676 -0.0119
13874W        W33408  17.649  16.707   3.719 -0.1694 -0.0455 -0.4232
13875W        W33409   9.282   9.208   0.310 -0.3466 -0.2212 -0.0978
13876W        W33410  13.597   3.523  14.778 -0.0475  0.0772 -0.2183
13877W        W33411  15.149   8.133  14.965  0.0166 -0.1315 -0.2389
13878W        W33412  13.264   0.906   2.495  0.0520  0.1833  0.1011
13879W        W33413   9.667   9.084   2.698 -0.0725  0.4536  0.2245
13880W        W33414  17.472  11.773  14.693  0.1643 -0.3293 -0.1984
13881W        W33415  10.162  17.823  14.657 -0.2108 -0.0983  0.0708
13882W        W33416   4.639  14.458  13.551 -0.3560 -0.2431  0.0291
13883W        W33417   7.133  15.191  12.690 -0.0569 -0.4039 -0.1283
13884W        W33418   7.331   3.662   5.105 -0.1483  0.1214 -0.1384
13885W        W33419   6.462   2.459  13.361  0.2318 -0.0739 -0.2421
13886W        W33420   4.543  15.707   1.531  0.2237  0.0788  0.1166
13887W        W33421   5.228   4.590   4.984 -0.3827 -0.2641  0.3777
13888W        W33422   4.489   3.545  15.015  0.1466  0.0438  0.1988
13889W        W33423   0.161   9.219  12.094  0.0234 -0.2253  0.0460
13890W        W33424   2.850   5.862  16.599  0.0207 -0.2095  0.0496
13891W        W33425   6.802  12.855  12.510 -0.0189 -0.1983  0.3406
13892W        W33426  15.832  13.578   3.408 -0.2845  0.0057 -0.0768
13893W        W33427   9.950   5.679   2.493 -0.2188 -0.2852 -0.0387
13894W        W33428  12.704  17.575   1.629 -0.1826  0.1421 -0.0079
13895W        W33429  15.433  14.676   3.143 -0.2813  0.0018  0.1935
13896W        W33430   9.814  14.487   2.076 -0.2639  0.1257 -0.0476
13897W        W33431   7.805   6.794  13.096  0.0004  0.0298  0.1125
13898W        W33432   9.025  15.141   1.996  0.3166  0.2061  0.1277
13899W        W33433  15.100   4.943  16.680 -0.1660 -0.0536  0.1221
13900W        W33434   6.713  17.275  15.826 -0.2129 -0.3052 -0.2466
13901W        W33435  14.341   6.093  15.653  0.0273  0.0174 -0.0018
13902W        W33436  16.023   8.092  14.178  0.0318  0.1768 -0.1321
13903W        W33437   6.673   8.493  13.122 -0.0563 -0.0718  0.0346
13904W        W33438  10.660  12.046  13.608  0.3361  0.1454  0.0061
13905W        W33439   7.043   4.669   0.478  0.0799  0.1793 -0.0340
13906W        W33440   7.237  10.643   3.212  0.0858  0.0139 -0.1028
13907W        W33441  17.483  15.234  14.280 -0.0740 -0.3242  0.1599
13908W        W33442  16.413  16.392   3.412 -0.0323  0.0645  0.1557
13909W        W33443   1.044  17.467   2.984  0.1288  0.4085  0.3558
13910W        W33444   1.568  11.913  14.965  0.1618 -0.3447 -0.0448
13911W        W33445   9.395   1.579  14.969  0.1641 -0.1180  0.1801
13912W        W33446   5.485  11.947   4.662 -0.2766  0.0494  0.0079
13913W        W33447   8.070   2.883  16.454 -0.1536 -0.3457  0.0734
13914W        W33448   1.908  16.864  12.916 -0.1848 -0.1381 -0.2324
13915W        W33449  14.391   2.719  15.752 -0.0417  0.1779 -0.0964
13916W        W33450  11.471  16.483   3.394 -0.1182 -0.0073 -0.0828
13917W        W33451   9.003   8.596  12.543 -0.2182 -0.1190 -0.1078
13918W        W33452   3.544   7.324  14.218 -0.0863 -0.0328 -0.1079
13919W        W33453  17.180   4.982   0.670  0.0929  0.1803 -0.3626
13920W        W33454   2.665   3.145  13.646  0.0205 -0.0583  0.0551
13921W        W33455  15.097   3.737  12.433 -0.1734 -0.0014  0.0208
13922W        W33456   4.233   7.100   4.419  0.0431 -0.0309 -0.0064
13923W        W33457   3.304  17.498  14.971  0.1205 -0.0897 -0.4304
13924W        W33458  12.985   0.131   2.799  0.0516  0.0703 -0.1453
13925W        W33459   6.762   7.314  12.190 -0.1736  0.0978  0.1071
13926W        W33460  12.808   5.404   4.378  0.2020  0.0526  0.0118
13927W        W33461   7.015  10.096  12.695  0.0337 -0.0077  0.0829
13928W        W33462  17.156  15.178  15.719 -0.0266 -0.0816  0.1385
13929W        W33463  12.153   3.177   2.107 -0.2045  0.1699  0.0172
13930W        W33464  13.760  11.485   3.081  0.5722 -0.0143  0.0867
13931W        W33465  15.778   8.955   0.907 -0.0086  0.1542 -0.1544
13932W        W33466   9.621  13.923   0.106 -0.2129  0.0936 -0.1017
13933W        W33467  13.067   8.517  12.982 -0.3633 -0.0199 -0.5990
13934W        W33468   8.308  11.277  13.650  0.4305  0.0079  0.2037
13935W        W33469  11.876   4.091   4.574 -0.0343 -0.0044  0.2374
13936W        W33470   9.180  13.175  15.839 -0.2785 -0.1601 -0.0342
13937W        W33471  15.528   1.274   3.135 -0.2075 -0.1469  0.0541
13938W        W33472   2.979   1.453   3.479 -0.2589  0.1050  0.2442
13939W        W33473  14.569  17.860  14.226 -0.0481  0.2735 -0.4115
13940W        W33474   5.443  11.178  16.480  0.1810 -0.2747 -0.0552
13941W        W33475  16.582  16.661  15.468 -0.1959  0.1359 -0.2603
13942W        W33476   1.779  12.986   4.390  0.2243 -0.2185 -0.0153
13943W        W33477   2.378  16.134   3.820 -0.1164  0.0293 -0.0546
13944W        W33478   0.878   2.680  15.057 -0.0061  0.0072 -0.2057
13945W        W33479  13.652  17.147   0.653  0.1280 -0.0883  0.0143
13946W        W33480  15.140  17.450   0.941  0.3035 -0.1819  0.3206
13947W        W33481   9.644  13.650  14.594 -0.1247  0.0501 -0.0340
13948W        W33482   3.693   8.224   3.014 -0.0855 -0.0573  0.2377
13949W        W33483   9.212  17.116   2.863  0.3199 -0.2431 -0.1478
13950W        W33484   8.680  13.645   0.155  0.2081 -0.1879  0.1313
13951W        W33485   6.212   7.702   4.084 -0.1341 -0.3512 -0.1256
13952W        W33486  10.637   8.630   4.191  0.2911  0.0958  0.0049
13953W        W33487  16.478  12.359   1.969  0.5769 -0.2182 -0.1550
13954W        W33488  15.312  13.348  14.996 -0.0718  0.2634  0.0287
13955W        W33489   0.098  14.652   3.169 -0.1343  0.3223 -0.2089
13956W        W33490   8.746   7.598  13.434  0.3819  0.3679 -0.0795
13957W        W33491  10.617   0.510   3.059  0.1865  0.2142  0.0376
13958W        W33492  17.671  10.351   2.505 -0.2017 -0.2074  0.3674
13959W        W33493  16.840   6.704  15.237  0.0197  0.3251  0.0479
13960W        W33494   9.612   1.003   4.235  0.1849  0.1765  0.0882
13961W        W33495  10.481   6.692   2.775 -0.1881  0.3053 -0.1794
13962W        W33496  12.502  14.645  15.586  0.2406 -0.0645  0.1244
13963W        W33497  16.097   9.576  15.222  0.1708 -0.2427 -0.1397
13964W        W33498   8.002   0.122   2.441 -0.0472 -0.2107  0.1423
13965W        W33499   4.134  11.501  14.019  0.2063  0.1773 -0.2293
13966W        W33500  17.167   4.486   3.434  0.3990 -0.0923  0.3493
13967W        W33501  15.432  10.395  12.242  0.1414 -0.2986 -0.2463
13968W        W33502   1.118  13.723  16.656 -0.1972  0.0132 -0.2849
13969W        W33503  14.978   1.912   0.014  0.1481  0.5743 -0.0542
13970W        W33504   2.003   7.925   4.084 -0.1616  0.0764  0.3272
13971W        W33505   1.164  10.532  13.770 -0.0789 -0.0356 -0.0473
13972W        W33506  16.905  17.246   2.586  0.0987 -0.4043 -0.1527
13973W        W33507   1.625  12.500   4.269 -0.0188 -0.1572  0.0469
13974W        W33508   5.962  16.158   4.618  0.1103 -0.2433 -0.0512
13975W        W33509  10.661   0.280  13.885 -0.0259 -0.2815  0.0486
13976W        W33510   3.965  14.570   2.734 -0.1809 -0.0196  0.0794
13977W        W33511  14.378   7.807   2.611 -0.2442 -0.0751 -0.0324
13978W        W33512  16.218  17.041   1.785 -0.2595  0.2512  0.1432
13979W        W33513   4.453   2.862  12.367  0.1492  0.0053  0.3353
13980W        W33514  16.142   0.624  14.297 -0.1918  0.0779  0.0662
13981W        W33515   7.020  15.637  15.819  0.3040 -0.0356  0.1592
13982W        W33516   0.718   1.094   4.336  0.0235 -0.3827 -0.0008
13983W        W33517   2.303  14.345   0.300  0.1523 -0.0871  0.1322
13984W        W33518  16.226   8.554  16.461  0.2772 -0.0143 -0.0793
13985W        W33519   1.334   3.745  13.879  0.1922  0.2077 -0.4215
13986W        W33520   9.338   6.020   3.042  0.0728 -0.0559  0.1342
13987W        W33521   6.557  13.606   1.391 -0.2266 -0.5521 -0.2628
13988W        W33522  13.849   4.093  15.559  0.5700 -0.3612  0.1995
13989W        W33523   1.701   9.849  13.134 -0.0027  0.2645 -0.1625
13990W        W33524   9.907  16.809  14.526 -0.2358  0.1932 -0.2298
13991W        W33525   7.466  16.501   4.584 -0.1307  0.0892  0.0158
13992W        W33526  14.948  12.165   1.526 -0.2033  0.4055  0.0512
13993W        W33527   7.250  13.721  15.429 -0.0875  0.0935 -0.3087
13994W        W33528   0.106   6.431   0.827  0.2101  0.2488  0.1826
13995W        W33529   8.777  11.587  14.635 -0.0268 -0.2882 -0.0976
13996W        W33530   0.087   0.649   5.105  0.2741 -0.0311 -0.2398
13997W        W33531  14.461  12.446   4.039 -0.2827 -0.0162  0.1871
13998W        W33532   4.103   0.617   3.364  0.2566  0.0877 -0.0016
13999W        W33533   0.626  16.686  13.142  0.1721 -0.1694 -0.2241
14000W        W33534   0.751  14.509   0.283  0.1783 -0.0475  0.1735
14001W        W33535   8.741  17.857  15.933 -0.0459 -0.4053  0.2121
14002W        W33536  10.949  12.835   2.709 -0.0528  0.0009  0.0801
14003W        W33537   1.758   0.782  15.159 -0.1825 -0.0028 -0.1968
14004W        W33538  16.988  12.637  15.349 -0.0575  0.3602  0.0253
14005W        W33539   4.987   4.368   0.433 -0.1203 -0.3972 -0.0479
14006W        W33540   1.096   7.236   1.243  0.1467 -0.2498  0.0188
14007W        W33541  12.245   3.874  14.294  0.1159  0.3653  0.0010
14008W        W33542   9.562   2.032   4.686  0.2235 -0.0752 -0.0334
14009W        W33543   0.553  16.474  14.706  0.2010  0.1599 -0.0767
14010W        W33544   3.346   3.361   0.973 -0.1437  0.0915 -0.0118
14011W        W33545   8.296   4.832   2.037 -0.2060  0.1589  0.0170
14012W        W33546  13.443   7.760   3.584 -0.0312 -0.0923  0.0558
14013W        W33547  10.823   3.864   1.543 -0.2466 -0.0889 -0.1423
14014W        W33548  13.420  15.467  14.232  0.3262 -0.1566 -0.1978
14015W        W33549   7.643   7.947  10.825 -0.2685  0.1084  0.3177
14016W        W33550   2.929   7.075   2.404  0.1932 -0.0888 -0.3274
14017W        W33551  10.373  15.847   0.240 -0.0522  0.0869  0.0796
14018W        W33552  15.061  13.287   4.390  0.2405 -0.1228  0.1260
14019W        W33553   0.854   7.690  14.352  0.2210 -0.0540  0.1411
14020W        W33554   7.347  11.408   1.566  0.0200  0.1864  0.0535
14021W        W33555   9.971   1.199  15.854  0.1224 -0.1398  0.1282
14022W        W33556   5.371   9.713  16.354  0.0062 -0.0109  0.1997
14023W        W33557   5.618   3.132  15.006  0.2781 -0.0924  0.0500
14024W        W33558   3.665   0.446  16.150 -0.2455  0.0699 -0.0878
14025W        W33559   5.250   5.080   1.685  0.2077  0.2066 -0.4321
14026W        W33560  15.491   8.555   0.461 -0.0191  0.0961  0.0647
14027W        W33561  12.697   6.019   4.025  0.0746 -0.1071  0.1741
14028W        W33562  17.006   1.699  13.437  0.1298  0.0451  0.0809
14029W        W33563   3.134  10.191   4.836  0.0577  0.1032  0.4640
14030W        W33564   8.370  16.733   1.087 -0.0832  0.0914  0.1688
14031W        W33565  14.199  10.692   5.027 -0.0934  0.3792  0.0112
14032W        W33566   0.041  17.724  15.895 -0.1759  0.0130  0.0832
14033W        W33567   6.848  14.436  16.529 -0.2516  0.1308  0.3914
14034W        W33568  16.096  15.934  12.231 -0.0457 -0.2225  0.3414
14035W        W33569  17.785   8.834  11.972 -0.1308 -0.2242  0.1322
14036W        W33570   1.649   7.659  11.859 -0.0509  0.2241  0.0219
14037W        W33571   4.811   2.955   5.626  0.0060  0.2524 -0.0576
14038W        W33572  11.495   8.669   4.585 -0.0090  0.1320  0.1583
14039W        W33573  14.413   9.072  14.059 -0.2513  0.4711 -0.1168
14040W        W33574  13.263  11.370   2.776 -0.0026 -0.3445 -0.3650
14041W        W33575   7.800  14.932   0.192 -0.1236  0.0174  0.3240
14042W        W33576   1.074   1.050  16.693  0.0497 -0.0753  0.0160
14043W        W33577   6.296   7.231  16.740  0.1831 -0.2819  0.3638
14044W        W33578   7.187   1.796   2.497  0.0716 -0.4228 -0.1030
14045W        W33579   6.878   0.060   3.151  0.1096 -0.1324 -0.3891
14046W        W33580   3.096  17.282  13.598  0.0897  0.3592  0.1934
14047W        W33581  10.098  15.106  14.198  0.1450 -0.0003  0.1391
14048W        W33582  16.676   6.374  13.588  0.1055 -0.1513  0.0947
14049W        W33583   3.671  12.079   0.827 -0.1544  0.0397  0.4717
14050W        W33584   4.821   8.482   0.315 -0.2807  0.2594  0.0301
14051W        W33585   6.297  14.840  11.148  0.0625  0.0667  0.2000
14052W        W33586   8.389   1.328   1.980 -0.0863  0.1546  0.1949
14053W        W33587   2.292  12.432   2.982  0.0987  0.0283  0.4642
14054W        W33588  14.372   7.291   1.227 -0.1390 -0.1358  0.0923
14055W        W33589  16.426  11.196  12.552  0.2431 -0.2657 -0.2323
14056W        W33590  13.315  12.312   2.672  0.1946  0.0133  0.1495
14057W        W33591  11.244  17.375   4.610  0.1003 -0.1062 -0.0312
14058W        W33592  10.306   5.275  11.906 -0.0810  0.0634 -0.2409
14059W        W33593   5.552  12.395  14.108 -0.2137  0.0294  0.0344
14060W        W33594   6.304  14.141  12.304 -0.0431 -0.0603  0.3226
14061W        W33595  16.900  11.717  15.754  0.3919 -0.1239  0.2643
14062W        W33596   3.432   3.344   4.403  0.2895  0.4698 -0.1135
14063W        W33597  15.839   5.046   4.458  0.0883 -0.1875 -0.1521
14064W        W33598  10.118   9.670   1.044 -0.1946 -0.0235  0.1351
14065W        W33599  14.494   4.385   2.849 -0.4158  0.1707  0.0539
14066W        W33600   5.430   1.037  16.668  0.3429 -0.2498 -0.1201
14067W        W33601  13.866   7.843   4.940 -0.2106 -0.1850  0.0458
14068W        W33602   3.214  13.031  15.615  0.4823 -0.2427 -0.0230
14069W        W33603   6.451  10.970  12.841  0.2567 -0.0199  0.0199
14070W        W33604  15.485   7.586  14.984  0.0752 -0.0025  0.0914
14071W        W33605   0.565  13.855   1.042 -0.0533  0.4335 -0.2338
14072W        W33606   3.917   2.266  15.120 -0.1755  0.0229  0.1421
14073W        W33607  15.396   7.157   0.470 -0.1253 -0.1130 -0.1587
14074W        W33608  16.826  17.496  13.217  0.0122 -0.2269 -0.0954
14075W        W33609  12.299  10.310   0.344  0.2048  0.0325  0.1015
14076W        W33610  15.150   8.044   0.648 -0.1823 -0.3460  0.0570
14077W        W33611  11.465   6.927   0.247 -0.2410 -0.1496  0.0410
14078W        W33612  13.305   5.954  14.572 -0.4732  0.0572  0.0812
14079W        W33613  10.965   3.238  15.451  0.1073 -0.0694  0.0879
14080W        W33614   9.372   4.564   2.824 -0.2039  0.1073  0.4208
14081W        W33615   5.325   4.508  13.750 -0.2001  0.3588  0.1373
14082W        W33616   2.767   4.887  13.448 -0.0064  0.1223  0.1029
14083W        W33617  10.327   4.762  13.127 -0.1851 -0.2169 -0.0471
14084W        W33618   3.976   6.927  12.208 -0.2731 -0.2135 -0.0089
14085W        W33619   5.077  14.524  12.701  0.1362  0.3255 -0.0044
14086W        W33620   5.266   6.672  13.536  0.0540  0.3493 -0.1607
14087W        W33621  15.191  10.020   4.005  0.3766  0.0758 -0.1561
14088W        W33622   8.391  13.657   2.492 -0.0114  0.1008 -0.1980
14089W        W33623   2.247  14.892  14.427  0.3108  0.3155  0.0626
14090W        W33624   7.097   8.253   5.822  0.2568  0.0650  0.0594
14091W        W33625   2.715  12.584  12.651 -0.0065 -0.2301  0.1286
14092W        W33626  15.012   7.031   1.106 -0.4988  0.0898  0.2641
14093W        W33627  16.957  17.432  15.750 -0.2697 -0.1235  0.1118
14094W        W33628   4.344  14.022   3.858 -0.1034  0.0344 -0.2447
14095W        W33629  13.939  11.327   0.536 -0.1386 -0.1022  0.2970
14096W        W33630   3.040  11.952   3.146  0.2567 -0.0426 -0.1323
14097W        W33631   4.590  12.258  15.202 -0.1039  0.1835 -0.0498
14098W        W33632  10.653  10.584   1.258 -0.2882  0.1618  0.0143
14099W        W33633  11.962  16.167   1.307 -0.1711 -0.1708  0.1342
14100W        W33634   9.455   6.914   4.322  0.0071  0.0468 -0.1904
14101W        W33635  11.450   9.352  15.991 -0.0921  0.1715  0.2471
14102W        W33636   0.462   2.163   3.518  0.0223 -0.1064 -0.1751
14103W        W33637  17.156   3.659   0.191 -0.1313  0.3122 -0.0948
14104W        W33638   9.859   6.200  12.969 -0.3818  0.0089 -0.0474
14105W        W33639  14.224  17.900   3.304 -0.0834 -0.0916 -0.0929
14106W        W33640  17.771  16.063   1.117 -0.0025  0.1854 -0.0552
14107W        W33641   8.759   9.898  12.491  0.1014 -0.0256  0.1052
14108W        W33642   8.049  17.126  12.321 -0.0769  0.1211 -0.0128
14109W        W33643   1.845  15.292   5.255  0.0603 -0.1026  0.0341
14110W        W33644  15.997  16.051  16.172 -0.1662 -0.1941  0.4682
14111W        W33645   6.782  14.875  13.753 -0.1624 -0.2042  0.0023
14112W        W33646  11.181   9.724   1.143  0.4304  0.2841 -0.0022
14113W        W33647   2.152  10.124   4.817 -0.2932 -0.3448 -0.1273
14114W        W33648  13.330  14.071  14.083 -0.1228 -0.0464 -0.1071
14115W        W33649   5.796   8.930  13.448  0.0567 -0.2875  0.3375
14116W        W33650   6.812   7.159  13.078  0.1347 -0.3298  0.1627
14117W        W33651   9.697   1.114   1.334 -0.1856 -0.1722 -0.1689
14118W        W33652  17.199   9.017  13.659  0.1367  0.0696  0.0342
14119W        W33653   1.981  10.849   4.833 -0.1048 -0.3276  0.0258
14120W        W33654   8.064   5.102  16.064  0.0247  0.3778  0.2578
14121W        W33655   9.951   7.520   5.901 -0.3573  0.2000 -0.0583
14122W        W33656   7.011  13.886   4.193  0.1857 -0.0002  0.2278
14123W        W33657   6.704   4.797  16.718  0.1438  0.0781 -0.0243
14124W        W33658  15.032  16.764  15.386  0.3677 -0.1976  0.0310
14125W        W33659  12.844   3.118   4.884  0.2468  0.1714 -0.1729
14126W        W33660  14.203   5.925   4.162 -0.0346 -0.0702  0.0364
14127W        W33661  17.831   3.000   3.964 -0.0501 -0.0790 -0.0215
14128W        W33662  11.389   6.513   1.818  0.0897 -0.1947  0.1801
14129W        W33663  14.952  13.222   1.358  0.0450 -0.1673  0.1529
14130W        W33664   9.558  14.583  14.872  0.1447 -0.1007  0.2810
14131W        W33665  12.961   4.883  12.521  0.0504  0.1324 -0.1702
14132W        W33666  14.120   0.983  12.198  0.0230 -0.3100  0.3002
14133W        W33667   1.963   8.069   0.562  0.0301 -0.2547  0.1025
14134W        W33668  14.901   9.212   0.192  0.0481 -0.1348 -0.0475
14135W        W33669  10.704  17.846  12.112  0.0282 -0.3113  0.3085
14136W        W33670  14.489   7.431   0.218  0.0068  0.0220 -0.0155
14137W        W33671   0.400   6.109   0.495 -0.1059 -0.2137  0.1093
14138W        W33672   6.369   9.523   1.397  0.2029 -0.4098 -0.0531
14139W        W33673   1.736  11.466   0.576 -0.0192 -0.2051 -0.3082
14140W        W33674   7.013   0.919   4.261  0.4261  0.0208 -0.2422
14141W        W33675  13.932   5.500   3.052  0.0911  0.1462 -0.0621
14142W        W33676  15.921   2.031   3.706  0.1828 -0.1766  0.3538
14143W        W33677   0.895  13.544   1.245 -0.0168 -0.0023 -0.1751
14144W        W33678   2.646   2.812   5.117 -0.0002  0.2217 -0.1514
14145W        W33679   3.312   5.066  15.798  0.1864 -0.0707  0.0963
14146W        W33680   5.941   5.010   1.550 -0.1184  0.2580 -0.3971
14147W        W33681  17.664   1.064  15.661  0.0084 -0.2780  0.0150
14148W        W33682   8.901  13.963  15.324  0.1198  0.3774 -0.0605
14149W        W33683   8.511  11.640  15.058 -0.1879 -0.0959 -0.0225
14150W        W33684   7.818   7.285  12.942  0.0678  0.1438  0.1931
14151W        W33685   0.357   7.035  15.897 -0.2964 -0.4915 -0.0466
14152W        W33686   3.111   1.901   1.421 -0.2341  0.0192 -0.2132
14153W        W33687  11.761   3.830  13.491  0.0975 -0.1583 -0.1434
14154W        W33688   6.091  17.105   4.623  0.3107  0.0945  0.2461
14155W        W33689   2.097   0.016  11.738  0.3330  0.0689 -0.0331
14156W        W33690  12.204   4.806   2.947  0.0008  0.0317 -0.3142
14157W        W33691  11.991   9.137   1.287  0.0435  0.4176 -0.1864
14158W        W33692  11.049   2.478   1.723 -0.2092  0.1230 -0.0101
14159W        W33693   6.965   9.002   0.875 -0.4264 -0.1944 -0.2429
14160W        W33694  14.783   8.883  15.591  0.0506 -0.2195 -0.0102
14161W        W33695  14.860   6.554   3.576  0.2551 -0.0753  0.0663
14162W        W33696  15.080   3.577   0.902  0.0340 -0.1581  0.1790
14163W        W33697  17.542   7.342   2.537 -0.2180 -0.1763 -0.1553
14164W        W33698   1.605   7.412   3.483 -0.2184 -0.0152 -0.1736
14165W        W33699  12.932   7.017  15.834  0.1962  0.1141 -0.1747
14166W        W33700   1.165  10.429   2.549  0.1190 -0.2859 -0.0505
14167W        W33701   7.423  11.517   4.312 -0.0653 -0.0662  0.1914
14168W        W33702   7.309   6.044  12.845  0.0432  0.1048 -0.0574
14169W        W33703  13.630  16.568  15.777  0.0396  0.1612  0.0033
14170W        W33704  14.085  15.716  14.498 -0.1268 -0.0770  0.2338
14171W        W33705   5.200   7.822  13.849  0.0533 -0.0352 -0.0829
14172W        W33706  15.968  14.244   3.556 -0.1765 -0.2554 -0.1172
14173W        W33707  10.116   5.578  13.789 -0.0560  0.2081  0.0260
14174W        W33708   0.529   0.353   2.411 -0.1035  0.0262 -0.1798
14175W        W33709   2.694  14.268  12.970 -0.2273  0.0321  0.0967
14176W        W33710  16.259   6.404   4.496  0.0987 -0.1480 -0.0060
14177W        W33711   6.853  15.049  16.678  0.0557  0.2775 -0.0737
14178W        W33712   5.232   3.782   2.227 -0.1418  0.0389  0.1873
14179W        W33713  15.944  10.250  13.071  0.4236 -0.0168 -0.0382
14180W        W33714   4.459  11.180  15.813  0.0635 -0.3601  0.0030
14181W        W33715   8.144   0.687  13.386 -0.0500  0.0942  0.0698
14182W        W33716  12.580   5.815   3.470 -0.1281  0.2169  0.1135
14183W        W33717  14.774   0.592   5.579 -0.0767  0.0206  0.1861
14184W        W33718   9.237   3.064  15.051 -0.2072  0.0275 -0.2095
14185W        W33719  14.289  12.158   2.620  0.1351  0.6165 -0.0275
14186W        W33720  14.724  10.429   2.124 -0.1491  0.2509  0.0101
14187W        W33721  16.012   2.185   3.019  0.2706  0.0317 -0.0864
14188W        W33722  14.468   8.680   0.035  0.1554 -0.1770  0.1257
14189W        W33723   4.770  12.152  16.114  0.2155  0.1786 -0.0195
14190W        W33724   2.335   4.854   3.569  0.1053 -0.2084 -0.0878
14191W        W33725   1.199  16.235  16.748  0.1429 -0.2114 -0.0541
14192W        W33726   4.355   1.345   0.254  0.2557 -0.0552 -0.2867
14193W        W33727   2.189  17.331   0.750  0.0594 -0.0291  0.2447
14194W        W33728  15.324   9.234   3.234  0.1262  0.0233  0.0839
14195W        W33729   4.112   0.160   4.943 -0.0877  0.0580  0.2037
14196W        W33730  10.773   9.228  14.772  0.2022 -0.0969 -0.0185
14197W        W33731  16.317   5.907  16.143 -0.0215 -0.1288 -0.0794
14198W        W33732   8.200   1.918  12.398  0.1657 -0.1842  0.1040
14199W        W33733   1.896   5.748  11.416  0.3249 -0.1233  0.1108
14200W        W33734   6.363  16.653   2.073 -0.0421  0.3445 -0.0861
14201W        W33735  10.099   5.307  16.016  0.4545 -0.0045 -0.0870
14202W        W33736   6.437   8.830  15.315  0.2456  0.0794  0.3259
14203W        W33737   9.200   7.489  12.865 -0.3165 -0.0091  0.2098
14204W        W33738  10.293   1.650   2.006 -0.1494 -0.0916  0.2755
14205W        W33739  10.698  15.779   3.651  0.1747 -0.1231 -0.0489
14206W        W33740  17.575  11.042   3.169  0.0156  0.3684 -0.3096
14207W        W33741  11.104   7.998  11.976 -0.1078  0.0005 -0.1158
14208W        W33742   0.214   5.671   0.014  0.2786 -0.1074  0.2001
14209W        W33743  12.279  13.818   1.503 -0.2362  0.3621 -0.1338
14210W        W33744   1.369   6.411  11.533 -0.0637  0.0269  0.2186
14211W        W33745  13.521   2.468   1.478  0.1775 -0.1534 -0.2513
14212W        W33746  12.034   5.107  15.531  0.0537  0.1355 -0.1141
14213W        W33747   2.908  11.003  15.743 -0.1092  0.0431 -0.1384
14214W        W33748   3.226  14.097   0.516  0.0349 -0.4342 -0.1432
14215W        W33749  13.397  13.640  15.118  0.3540  0.2021  0.1074
14216W        W33750  12.955  13.908  15.250  0.1408 -0.1553 -0.2129
14217W        W33751   3.564  16.482   5.083 -0.2351  0.1318 -0.2348
14218W        W33752   0.359  11.865  12.602  0.0354  0.1944  0.3573
14219W        W33753   6.219  11.393   2.463 -0.0076  0.0760 -0.3156
14220W        W33754   7.230   9.338  15.843  0.3161 -0.0088  0.0428
14221W        W33755   2.247  11.014  14.953 -0.0048 -0.2003  0.2462
14222W        W33756   3.777   2.336  13.222  0.0220 -0.1890 -0.0474
14223W        W33757   8.341  14.094  13.268  0.0875  0.2510  0.1417
14224W        W33758   6.440   6.292   1.616  0.1624 -0.1204  0.2207
14225W        W33759  14.486   1.955  12.108 -0.1746 -0.2747  0.1589
14226W        W33760   2.302  16.954  15.818 -0.3335 -0.4552 -0.0067
14227W        W33761   9.179   5.373   5.052 -0.2474 -0.2285 -0.2163
14228W        W33762   1.884  13.280  16.664 -0.1692  0.1213 -0.2055
14229W        W33763   6.686   9.354  16.355 -0.0412  0.0266  0.2366
14230W        W33764   3.721   1.923  15.982  0.0811 -0.1754  0.0615
14231W        W33765   3.550   9.054  15.893 -0.0843 -0.2872  0.0517
14232W        W33766   6.869  10.680  12.811  0.0257  0.0983  0.0166
14233W        W33767   1.806   8.428   0.212  0.0963 -0.0064  0.0708
14234W        W33768  15.229  10.857   0.146  0.1476  0.0145 -0.0584
14235W        W33769  12.292  16.311   2.199  0.1704 -0.1370 -0.0781
14236W        W33770  16.086   4.882  12.355 -0.0376 -0.1438  0.0893
14237W        W33771   7.299  10.675   2.094  0.1081 -0.1501  0.0964
14238W        W33772   5.379  14.184   2.311  0.2458  0.0770 -0.1063
14239W        W33773   0.808   7.377  14.694 -0.1012 -0.4341 -0.1669
14240W        W33774   9.139  10.073  12.023  0.3282 -0.3513 -0.0626
14241W        W33775  16.680  12.980  15.008  0.0736  0.1655 -0.1404
14242W        W33776   9.036   8.230  15.666 -0.0404  0.0439 -0.0461
14243W        W33777  11.279   0.059  12.219  0.1199  0.0139  0.1719
14244W        W33778   3.731   4.798  13.748  0.2334 -0.1928 -0.1161
14245W        W33779   2.278  17.603   3.404 -0.2550 -0.0165  0.2651
14246W        W33780  13.314   6.937  12.840 -0.0846 -0.0292  0.3661
14247W        W33781   9.544  10.252   1.017  0.1403  0.0591 -0.0138
14248W        W33782   6.203   0.487  16.716  0.1858  0.1859 -0.5561
14249W        W33783  15.919   4.536   3.000 -0.2290  0.0395 -0.0904
14250W        W33784  16.791  11.341   0.477  0.0594 -0.1298 -0.0925
14251W        W33785   5.637   4.934   1.933  0.0064  0.3374  0.1690
14252W        W33786   3.931  11.011  14.151  0.0416 -0.0272  0.2815
14253W        W33787   6.776   4.639  15.452 -0.0445  0.3933 -0.0058
14254W        W33788  15.194  14.292  15.940  0.0682 -0.4069 -0.0836
14255W        W33789   4.887   8.086  12.390 -0.0789  0.0466 -0.2569
14256W        W33790  11.052  17.614  14.504 -0.2636  0.0577 -0.1418
14257W        W33791  12.978   0.088  16.604 -0.0673  0.0840 -0.3589
14258W        W33792   3.435   9.819  16.274  0.0246  0.4309  0.0707
14259W        W33793  14.819   6.512  12.181  0.1140  0.1532 -0.2509
14260W        W33794   8.175   3.826   0.801  0.1514  0.0274 -0.2983
14261W        W33795   6.657  14.301   2.566 -0.1508  0.1318 -0.1277
14262W        W33796   7.019  10.320   0.576 -0.1029 -0.0430 -0.2899
14263W        W33797  13.201   9.898  13.288 -0.1591 -0.0621  0.1422
14264W        W33798   0.016   8.671   0.252  0.4069  0.0748  0.2051
14265W        W33799  13.092   3.931  12.635  0.4007 -0.4354 -0.0914
14266W        W33800   2.385  15.214  15.346 -0.2536 -0.2077 -0.0110
14267W        W33801   8.422   6.628  14.113  0.0543 -0.2783  0.0521
14268W        W33802  17.380  16.357  11.252 -0.0997  0.2518  0.3753
14269W        W33803  12.138   1.254   3.731  0.0265 -0.1631 -0.1142
14270W        W33804   4.143   9.933  12.286 -0.1334 -0.0403 -0.2371
14271W        W33805  12.733   2.314  15.215 -0.0765  0.0675 -0.0514
14272W        W33806   2.265  16.301   3.353 -0.1631 -0.2554  0.1053
14273W        W33807   8.836   5.838  13.167  0.0218 -0.2281 -0.0463
14274W        W33808   6.218   6.738   1.656  0.3238  0.0417  0.0517
14275W        W33809   9.104   8.705   0.280 -0.0429 -0.4486  0.5379
14276W        W33810   5.675  11.462  12.381 -0.1481  0.2104  0.1340
14277W        W33811   2.756  16.344   3.272  0.3632  0.0893 -0.0835
14278W        W33812   8.752  15.531   2.310  0.1704  0.2032 -0.3408
14279W        W33813  13.409   0.794  14.473 -0.0345 -0.0058 -0.0263
14280W        W33814   3.978   3.566  16.203  0.0364  0.0114  0.0879
14281W        W33815   7.446  12.209  13.136 -0.3207  0.2262 -0.0404
14282W        W33816  11.164  11.417   3.046  0.0398  0.0651 -0.2316
14283W        W33817  11.936  13.608   2.316  0.0773 -0.3886 -0.0073
14284W        W33818  13.382   4.365  10.575 -0.0490  0.2042 -0.3015
14285W        W33819  16.023  13.113   1.748 -0.1114  0.1429 -0.0656
14286W        W33820   7.098   6.784  16.092  0.4053 -0.0238  0.1773
14287W        W33821   8.382   0.537  16.277  0.4254  0.1698 -0.0355
14288W        W33822   2.991   5.118  10.735  0.0610  0.1527 -0.0185
14289W        W33823   3.703  12.663  14.565 -0.2238  0.0658 -0.1093
14290W        W33824   3.152   5.317  16.710  0.0452  0.2001  0.1577
14291W        W33825  14.224  13.419  16.530 -0.3271  0.3570 -0.1824
14292W        W33826   3.428   9.268  14.719 -0.0983  0.2991  0.0913
14293W        W33827   4.539   2.699  12.861 -0.1924  0.1237 -0.1679
14294W        W33828  16.109  13.012   1.258 -0.0483  0.0030 -0.1224
14295W        W33829   7.493  17.588   3.755 -0.0994 -0.0674  0.2470
14296W        W33830   5.831   7.372  15.207 -0.0374 -0.0850 -0.1676
14297W        W33831   9.688   4.032  16.431  0.2058 -0.3535 -0.0249
14298W        W33832   9.230   5.786  11.997 -0.2126 -0.1575  0.0767
14299W        W33833  10.802   6.122  11.933 -0.0502 -0.0556  0.2448
14300W        W33834  10.392  16.038  15.648  0.3011 -0.0222  0.0245
14301W        W33835  11.293  13.381   1.314 -0.0706  0.5567 -0.1596
14302W        W33836   2.695   3.839  15.093  0.0807 -0.3002 -0.0973
14303W        W33837   5.380  16.930   1.388  0.0694  0.0722 -0.0476
14304W        W33838  14.474   9.296   1.165  0.0214  0.4474  0.0466
14305W        W33839   0.199   0.523  14.188  0.1722  0.1290  0.0009
14306W        W33840   9.997   1.439  13.548 -0.0974  0.3062 -0.0476
14307W        W33841  11.160   2.492  16.047 -0.3158 -0.1219  0.2735
14308W        W33842  17.130  12.856  12.823 -0.1242  0.0313  0.1083
14309W        W33843   4.822   5.771  13.586 -0.2475 -0.0587  0.4654
14310W        W33844   4.869   8.806   4.577 -0.2552 -0.1037  0.1964
14311W        W33845   3.309   5.939  15.466  0.1161  0.2765  0.2455
14312W        W33846   1.349   6.915   0.876 -0.0139  0.0158  0.3210
14313W        W33847  11.642  10.197  14.252 -0.0453  0.1283 -0.0231
14314W        W33848   4.816  17.698  12.918 -0.3234 -0.2568 -0.1734
14315W        W33849   4.383  17.127   4.122 -0.0895  0.2156 -0.1026
14316W        W33850   2.954   8.830   2.931 -0.2887 -0.0961  0.1569
14317W        W33851   9.181   6.984  12.988 -0.0800  0.5483 -0.0860
14318W        W33852   6.795   6.109   4.881  0.3855 -0.3509 -0.0954
14319W        W33853   5.465  16.524   1.118  0.1615  0.1249 -0.0222
14320W        W33854   3.617   8.285  12.249  0.1169 -0.1694  0.0454
14321W        W33855   5.386   4.246  12.494  0.1212 -0.0322  0.4149
14322W        W33856  11.684   4.294  15.283 -0.0297  0.0545 -0.1620
14323W        W33857  12.970   6.566   0.665  0.1303  0.0183  0.1264
14324W        W33858  14.772   3.068   2.725  0.1715  0.1264 -0.1202
14325W        W33859   5.210   9.706   4.069  0.0915  0.3932  0.1201
14326W        W33860  10.743  12.358   3.384  0.1342 -0.0411  0.1861
14327W        W33861  10.616  15.244  15.703 -0.3329  0.0075  0.0736
14328W        W33862   6.015  15.978  12.523 -0.1647  0.2318 -0.0488
14329W        W33863  10.509   3.428   2.371 -0.1081 -0.3403 -0.3529
14330W        W33864  10.888   7.499   4.291  0.0408  0.1047 -0.3757
14331W        W33865   0.205  17.111  12.697 -0.0261 -0.2521 -0.0840
14332W        W33866  11.232  12.226   3.542  0.1035 -0.0910 -0.1875
14333W        W33867   8.685  17.764  14.688 -0.1178  0.0207  0.1482
14334W        W33868   8.621   5.901  13.869  0.1223  0.0970  0.0729
14335W        W33869  12.552   0.439   4.824 -0.3662 -0.2393  0.1642
14336W        W33870  15.869   1.549   2.283  0.1329 -0.1262 -0.0365
14337W        W33871  12.717   1.299   4.486  0.3692 -0.0268 -0.0388
14338W        W33872   8.121  17.181  15.506  0.4194  0.1910  0.1503
14339W        W33873   1.663  17.669   1.459  0.1309 -0.5628 -0.1330
14340W        W33874   8.207   7.545  12.105 -0.3025  0.1418 -0.0018
14341W        W33875   6.092   4.865   2.793 -0.0249  0.1868 -0.1004
14342W        W33876  16.149  12.519  14.325 -0.0666 -0.1373  0.0148
14343W        W33877   1.605   3.092   5.075 -0.1133 -0.0212  0.2458
14344W        W33878  11.011  16.422   4.690 -0.1432  0.0067  0.0772
14345W        W33879   0.744   1.531   3.337 -0.2517  0.2903 -0.0910
14346W        W33880  17.174   4.248  11.898 -0.0044  0.6458 -0.0762
14347W        W33881  16.432   0.183  16.681  0.0215 -0.0551  0.0562
14348W        W33882   3.356   2.366   3.231  0.0811 -0.0837  0.1851
14349W        W33883  14.199   8.081   4.629  0.0820  0.0317 -0.5553
14350W        W33884   7.162   0.992  11.988  0.1901  0.0774 -0.2158
14351W        W33885  13.408   0.912  15.366 -0.3029  0.0211  0.1595
14352W        W33886   5.558   8.675   2.029  0.2898 -0.2543  0.0396
14353W        W33887  15.933  16.500   3.495 -0.0251  0.0551  0.0039
14354W        W33888   5.338  12.512   2.877  0.3709  0.0259 -0.1123
14355W        W33889   8.556   2.132   2.883 -0.2552  0.0699  0.4130
14356W        W33890   6.692   7.505   5.189  0.0247 -0.2472 -0.0960
14357W        W33891  16.938   8.978  16.728 -0.2081 -0.2278 -0.0863
14358W        W33892   0.344  13.333   4.567  0.3728  0.1086 -0.0315
14359W        W33893   1.834   4.496  14.846  0.2465 -0.0154 -0.2382
14360W        W33894  13.849   7.285   1.938  0.2405  0.2633 -0.0959
14361W        W33895  11.095  12.498   4.497 -0.1475  0.0735 -0.1321
14362W        W33896   5.065   4.988  14.871 -0.0738  0.0992 -0.0202
14363W        W33897  17.806  13.352  14.234 -0.1601 -0.2684  0.0337
14364W        W33898   2.501  16.481   4.747  0.0894  0.0199 -0.1974
14365W        W33899   2.457  15.762  15.687 -0.0968  0.3006 -0.1054
14366W        W33900   6.774   2.001  15.424  0.3853  0.0312 -0.1038
14367W        W33901  14.102  17.676   4.350 -0.0715 -0.2042 -0.1955
14368W        W33902   4.671  14.016  14.352  0.1046 -0.2360 -0.1018
14369W        W33903   7.985   6.315  13.464 -0.1642 -0.0499 -0.0046
14370W        W33904  12.531  12.600  13.721  0.1542  0.2062  0.1209
14371W        W33905   0.621   7.664  12.239 -0.1063  0.0753  0.1149
14372W        W33906   1.542   4.219  14.113  0.2361  0.1155  0.3612
14373W        W33907  17.534   5.568   3.135  0.1518  0.3245 -0.0197
14374W        W33908   9.090  13.801  14.853 -0.0170  0.0292 -0.1114
14375W        W33909  14.985   5.135   2.698  0.0518 -0.0827  0.1051
14376W        W33910  12.469  12.666  16.061  0.1167  0.0646  0.2224
14377W        W33911   2.230   4.936   1.749  0.2644 -0.4110  0.0196
14378W        W33912   1.866   5.828   1.839 -0.0417  0.0768  0.0328
14379W        W33913   3.348  11.987  13.816  0.1622  0.1727 -0.1282
14380W        W33914   6.977  16.669   0.561  0.0403 -0.2318  0.0355
14381W        W33915   8.286  15.010   4.653 -0.2986 -0.0245 -0.0165
14382W        W33916  12.192   0.149   4.015  0.1302  0.2164  0.1962
14383W        W33917  10.682   0.028   3.859 -0.2543 -0.1198 -0.0655
14384W        W33918  15.757   8.468   5.141  0.1679  0.1223 -0.1537
14385W        W33919  13.128  10.699  12.200  0.1428  0.1134 -0.1569
14386W        W33920   2.592  12.285   1.434  0.0819  0.0492 -0.1039
14387W        W33921   0.105  13.923   3.966  0.0525  0.2481  0.0564
14388W        W33922   5.975   9.157   2.828  0.4532  0.0165 -0.0027
14389W        W33923   4.428   0.035  15.644 -0.0476 -0.2149 -0.1610
14390W        W33924   0.084  13.878   1.097  0.3305  0.0139  0.0628
14391W        W33925  15.060  12.001  16.052  0.0151  0.1514  0.0334
14392W        W33926   3.060   2.624   0.554  0.2211 -0.1222 -0.1208
14393W        W33927  10.699   9.141   0.813  0.2421 -0.1893  0.1233
14394W        W33928  17.629  14.590   2.780  0.0911 -0.1762 -0.5040
14395W        W33929   2.391   3.692   4.877 -0.1026 -0.1126  0.7149
14396W        W33930  16.721  11.968   3.527  0.0349 -0.0719  0.2289
14397W        W33931  15.240  16.935   2.868 -0.0844  0.3062 -0.3336
14398W        W33932  15.040   4.434   1.217  0.4715  0.0050  0.0044
14399W        W33933   7.937   2.180   5.532  0.0306 -0.2090 -0.0801
14400W        W33934   2.813  16.742  11.879 -0.2353 -0.0573  0.0349
14401W        W33935   8.196  12.096   3.846 -0.0132 -0.3433  0.0024
14402W        W33936   3.853   1.898   1.449  0.1470 -0.3089 -0.1848
14403W        W33937   9.434  17.087  16.217  0.0721 -0.0678 -0.1087
14404W        W33938   0.160   2.083  12.895 -0.2188  0.2241 -0.2771
14405W        W33939   0.504  15.987   4.061  0.0669  0.0691 -0.0477
14406W        W33940  10.571   7.228  15.100  0.2286  0.1949  0.1542
14407W        W33941   5.882  12.398  12.682  0.2233  0.0513  0.1442
14408W        W33942   3.695   7.307   2.329 -0.3568  0.1861  0.2140
14409W        W33943   9.598  14.775   0.399  0.0009  0.0556  0.0563
14410W        W33944  13.692   1.811   3.012  0.1951 -0.0811  0.2188
14411W        W33945  13.821  11.621   3.597 -0.1650  0.0557 -0.1281
14412W        W33946   4.154   9.079  16.283 -0.0910 -0.2160 -0.3158
14413W        W33947  12.388  16.086  12.705  0.3352 -0.1099 -0.0745
14414W        W33948   6.124   9.926   0.882 -0.0843  0.0386  0.2006
14415W        W33949   5.741   2.806   4.069  0.2020 -0.1403  0.3045
14416W        W33950  14.676  12.814   3.715 -0.1162  0.0070  0.0423
14417W        W33951   0.671   0.706  12.360 -0.2359 -0.2266  0.1389
14418W        W33952  16.797  17.005  15.769  0.1160  0.0771  0.2295
14419W        W33953   3.429  12.061   2.883  0.0850 -0.0670 -0.4001
14420W        W33954   6.761  17.429  12.203 -0.3670  0.2044  0.1797
14421W        W33955  17.275   1.372   4.041 -0.0655 -0.1701  0.0463
14422W        W33956   2.067   8.409   1.443  0.0575 -0.3300  0.2222
14423W        W33957   0.617   5.425   1.528 -0.0777 -0.1544 -0.1403
14424W        W33958  13.198  13.612   0.596 -0.1942  0.0462  0.0098
14425W        W33959   5.032  13.702   2.326 -0.1410 -0.1677  0.1264
14426W        W33960   4.194   3.974   3.348  0.0780  0.1423 -0.2743
14427W        W33961  12.346  13.933  16.658  0.0558 -0.0480 -0.0442
14428W        W33962   5.637  16.086   0.882  0.5183 -0.0547 -0.2704
14429W        W33963   1.962   5.466  13.935  0.1351  0.2187  0.0629
14430W        W33964  16.058   8.101   1.449 -0.0545 -0.0830  0.0143
14431W        W33965   9.137  11.041   2.129  0.1344  0.3320  0.1934
14432W        W33966  12.665  12.870   1.522  0.1485 -0.0316  0.3199
14433W        W33967   8.183  16.743  12.874 -0.1420 -0.0957 -0.0540
14434W        W33968   4.831   1.580  12.558 -0.0232 -0.2826  0.3278
14435W        W33969  13.926   9.366   0.578 -0.3544  0.0573  0.1061
14436W        W33970   8.846   1.489   1.676  0.0743 -0.1519 -0.1192
14437W        W33971   2.676  17.664  12.220 -0.0884 -0.1469  0.0485
14438W        W33972   5.385  12.707   1.826  0.0926  0.0563 -0.2326
14439W        W33973   3.388  15.836  14.546 -0.0926 -0.0160 -0.0770
14440W        W33974   5.899   9.338   3.553 -0.4594  0.3402 -0.3173
14441W        W33975  17.641  17.501  14.177  0.2604  0.3794 -0.0646
14442W        W33976  11.291  15.245  13.374 -0.0274 -0.1044  0.1482
14443W        W33977   9.259   5.359   3.659  0.0808  0.0493  0.3898
14444W        W33978  15.852  11.261   1.220  0.0375  0.0599 -0.3460
14445W        W33979   8.192   4.011   4.678  0.0711 -0.1348  0.1300
14446W        W33980  10.441   9.511   3.565  0.2368 -0.0001  0.1315
14447W        W33981   1.288   2.943   1.051  0.2481 -0.0583 -0.0574
14448W        W33982  13.755  16.223   5.009  0.1245  0.0420  0.1045
14449W        W33983   9.734  16.667  15.141 -0.3289  0.2627  0.2083
14450W        W33984   6.571  17.304   2.650  0.3424  0.0801 -0.0966
14451W        W33985  16.474   1.575   0.257 -0.0426 -0.0086 -0.2280
14452W        W33986   0.243  17.657   3.515  0.2794 -0.2976  0.1888
14453W        W33987  10.225   5.222   3.517  0.2611 -0.1844  0.0338
14454W        W33988   7.649  14.729  13.366 -0.3733  0.1645  0.0392
14455W        W33989  12.130   6.738   4.044 -0.1988 -0.0805 -0.0815
14456W        W33990  11.792   7.506  12.789 -0.0262 -0.3486 -0.4509
14457W        W33991   6.664  11.676  12.403 -0.0282 -0.1345  0.0530
14458W        W33992  11.041   1.309  15.227 -0.0191  0.3818  0.2862
14459W        W33993  16.880  14.620   1.351 -0.1563  0.2375  0.1177
14460W        W33994  15.635  16.862  15.552  0.1280 -0.0248 -0.2648
14461W        W33995   4.292   6.074  13.946  0.2904  0.2060  0.0882
14462W        W33996  11.401   4.056  14.990  0.1087  0.0594 -0.1362
14463W        W33997  10.423  15.328   1.037  0.0834  0.1573 -0.0179
14464W        W33998  14.984   4.602  12.401 -0.0989 -0.0717 -0.0495
14465W        W33999   5.430  17.588  13.620 -0.1111 -0.1820 -0.0780
14466W        W34000  17.253   3.698  16.440  0.2094 -0.3078 -0.0911
14467W        W34001   6.317   6.033   4.139  0.0411  0.2795  0.4127
14468W        W34002   7.609  11.346  12.162  0.0435  0.2044  0.2863
14469W        W34003  13.437  16.720   3.401 -0.0585 -0.0420  0.1963
14470W        W34004  10.227   5.151   4.745 -0.1574 -0.0163 -0.0489
14471W        W34005  10.360   1.234   2.870  0.2057  0.0634  0.2163
14472W        W34006  17.146  15.691  14.369  0.0105  0.2570 -0.0765
14473W        W34007   8.177   7.285  10.359  0.0463  0.3703 -0.0071
14474W        W34008  17.147   1.220  13.648  0.0645  0.1413  0.0713
14475W        W34009   0.083   9.215   0.163  0.0709 -0.0261 -0.0428
14476W        W34010  11.246   4.750   1.946  0.0607 -0.0560 -0.1400
14477W        W34011  16.760   1.983   3.483  0.0824 -0.0602 -0.1090
14478W        W34012  11.596   4.868  15.458  0.3629 -0.5196  0.1940
14479W        W34013  11.698  13.420  12.589  0.2590  0.1236  0.1004
14480W        W34014  11.976  11.909   3.060 -0.0652 -0.1689  0.4800
14481W        W34015   0.751  12.831  16.299 -0.1707  0.1820 -0.4408
14482W        W34016   7.300   1.877  11.992  0.0886 -0.1893  0.0127
14483W        W34017  11.215   4.048   1.278 -0.1385 -0.2418 -0.1684
14484W        W34018   6.757   0.663   3.956  0.1479  0.1072 -0.1347
14485W        W34019   5.449  12.099   0.581  0.2724  0.1313 -0.2104
14486W        W34020   1.734   2.957   0.628 -0.0642 -0.0678 -0.1110
14487W        W34021   3.509  15.008  14.320  0.2501  0.2533  0.1058
14488W        W34022   4.219   0.853   1.004 -0.0929  0.0773  0.0507
14489W        W34023   8.959  15.107  13.023 -0.0034 -0.2209 -0.1654
14490W        W34024   5.650  10.455   4.253  0.2486 -0.1098 -0.0383
14491W        W34025   2.861   2.389   3.285  0.2309 -0.0939 -0.1558
14492W        W34026   3.144   5.030   2.058  0.2230 -0.0061  0.0574
14493W        W34027  14.150   5.690  15.446 -0.1842  0.0505 -0.4044
14494W        W34028  15.991  12.916   0.006 -0.1661 -0.1262 -0.1431
14495W        W34029   7.291  14.623   4.624  0.1574  0.1970 -0.2597
14496W        W34030   4.470   8.693   1.758 -0.1219  0.0182  0.1237
14497W        W34031   7.926  11.660  15.797  0.0728  0.2016  0.3723
14498W        W34032  14.716   1.820   4.943 -0.2686 -0.1520 -0.0761
14499W        W34033   5.326  15.141  13.416 -0.0584 -0.1707 -0.2022
14500W        W34034   7.350  17.616   1.043  0.2064  0.5882  0.1962
14501W        W34035  15.978   2.956   0.385 -0.0939 -0.3654  0.2028
14502W        W34036   7.046  12.722   4.845  0.0009  0.0091  0.1752
14503W        W34037   3.231   9.058  13.112 -0.0221 -0.2906 -0.1193
14504W        W34038   8.015   0.064  16.753 -0.1910  0.1347  0.3706
14505W        W34039   2.243  16.786   2.405 -0.2046  0.1062  0.4593
14506W        W34040  15.600   6.392   2.422 -0.1769  0.3297  0.0672
14507W        W34041  10.295  12.116   3.551 -0.1440  0.1086  0.0835
14508W        W34042  16.228   3.503  13.243 -0.3825 -0.1170 -0.3124
14509W        W34043   6.605   8.962  13.844  0.1748 -0.1295  0.0199
14510W        W34044  15.254   4.179   4.129  0.3602 -0.0233  0.0258
14511W        W34045  17.843   2.846   3.266  0.0276 -0.1023  0.1811
14512W        W34046   3.108  13.062  16.240  0.1251 -0.0224 -0.1185
14513W        W34047   0.507   4.545   1.133  0.0930  0.2025  0.0504
14514W        W34048   5.152   4.523   3.998 -0.0304 -0.0656 -0.1304
14515W        W34049  14.388   5.800  16.008  0.0810  0.4279 -0.1791
14516W        W34050   5.698   8.200   1.912 -0.0776 -0.1266  0.2366
14517W        W34051   5.377  10.279   2.042  0.3744  0.1485  0.1201
14518W        W34052  17.040   4.102   0.003  0.0364  0.0684 -0.1497
14519W        W34053  13.752   9.573   4.109  0.3807  0.4385 -0.1675
14520W        W34054  16.050  17.783   4.654 -0.0852  0.1124  0.0362
14521W        W34055   5.212  17.101  14.517  0.0974 -0.2491  0.2165
14522W        W34056   8.168   6.209   4.846 -0.1407 -0.2123  0.0635
14523W        W34057  12.428   6.137  15.706  0.1138 -0.1211 -0.3685
14524W        W34058  13.106  14.907   2.749  0.1000 -0.1492  0.3157
14525W        W34059  10.507  12.760  15.266 -0.0303  0.0402 -0.2975
14526W        W34060   6.598  11.695   2.264  0.0717 -0.1165  0.0758
14527W        W34061  15.640  16.069  16.497 -0.0475  0.1181  0.0279
14528W        W34062  14.271  16.314   1.560 -0.1232  0.0637  0.1199
14529W        W34063   3.366  11.334   3.510  0.0916 -0.3417 -0.1301
14530W        W34064   5.151   9.642   4.602  0.0286 -0.1988 -0.2111
14531W        W34065  15.093  15.643  13.567  0.0254  0.1627 -0.0170
14532W        W34066  12.291   0.696   1.326  0.0578  0.2026 -0.1248
14533W        W34067   6.962  11.028   1.882 -0.4287  0.3494 -0.0525
14534W        W34068   9.523   1.338   3.376  0.1611 -0.2013  0.1958
14535W        W34069  11.808   1.826  13.243 -0.0137  0.2340  0.3457
14536W        W34070   9.635  14.294   0.441 -0.1290  0.0760  0.2340
14537W        W34071   1.829   2.970  15.412 -0.1362 -0.3291 -0.2087
14538W        W34072   5.484  13.610  16.352 -0.0542 -0.2574 -0.1572
14539W        W34073   3.899   3.475   2.463  0.0386  0.0030  0.2914
14540W        W34074  17.779   9.706  14.004 -0.1903 -0.1345  0.0167
14541W        W34075  12.861  12.435  15.792 -0.1949 -0.1915 -0.0815
14542W        W34076   6.925   9.338   2.594  0.0524 -0.0463  0.0383
14543W        W34077  11.647   8.605  15.793 -0.0932  0.0852  0.0790
14544W        W34078   3.532   4.384   0.963 -0.1089  0.1291 -0.3286
14545W        W34079   1.233  10.572  14.537 -0.1167 -0.0627 -0.0095
14546W        W34080   2.040   5.727  15.864  0.0106  0.0733  0.3383
14547W        W34081   7.119  11.826  13.129  0.2802 -0.1246 -0.0510
14548W        W34082  11.527   7.428  15.886  0.1028  0.0540 -0.1215
14549W        W34083   3.616   8.916   2.989 -0.2723  0.1782  0.0564
14550W        W34084   1.980   2.523  14.268 -0.2403 -0.0940 -0.0088
14551W        W34085   5.421   4.834   0.008 -0.3497  0.0457 -0.2769
14552W        W34086   1.481  10.425  11.772 -0.0493 -0.0512  0.1813
14553W        W34087   8.417  15.189   2.602 -0.1693 -0.0334  0.2840
14554W        W34088   0.387  15.821  15.183  0.1215  0.3252 -0.0621
14555W        W34089   6.746   5.462   2.334  0.0326  0.2015 -0.1198
14556W        W34090  17.090   6.360  16.633 -0.2605 -0.3576  0.3068
14557W        W34091   7.177   3.071   1.236 -0.4611 -0.4606 -0.0898
14558W        W34092  17.852   1.267  15.031 -0.0020  0.1542  0.0185
14559W        W34093  17.756  11.290  12.223 -0.0902  0.2198 -0.1581
14560W        W34094   4.420   0.838   0.518 -0.0862 -0.1457  0.1891
14561W        W34095   1.265   8.620  14.664 -0.0805  0.1914 -0.4272
14562W        W34096  12.855   2.097  16.474  0.1646 -0.0197  0.0425
14563W        W34097   8.730  11.331   3.389  0.0121 -0.3825 -0.0477
14564W        W34098   1.658   4.692  13.908 -0.0248  0.0062 -0.1836
14565W        W34099   3.416   6.342   0.870  0.2467 -0.1412  0.0709
14566W        W34100  10.889   1.238   3.289 -0.1193  0.3761 -0.1852
14567W        W34101   7.240  15.309  12.189 -0.1007 -0.0221 -0.0398
14568W        W34102  17.357   0.415  15.991  0.1224  0.0414  0.0812
14569W        W34103   9.443   1.194   1.961 -0.0978 -0.1018 -0.2128
14570W        W34104  13.468   7.684  15.835  0.3188  0.2534 -0.2545
14571W        W34105   7.935   5.934   1.174 -0.0478 -0.0158 -0.3014
14572W        W34106  17.733  15.727   3.534 -0.1421  0.0571  0.1880
14573W        W34107  10.387   5.943  13.260  0.0449 -0.3006  0.3738
14574W        W34108  13.922   6.561  14.017 -0.2278  0.0452  0.0030
14575W        W34109  13.992   1.643  12.169 -0.0991  0.0822  0.0392
14576W        W34110   2.714   1.474  12.766 -0.0368  0.0100  0.1583
14577W        W34111   6.666  16.459  14.750 -0.0796  0.0656  0.0651
14578W        W34112   5.787   1.464   3.262  0.0354  0.2157 -0.0406
14579W        W34113   4.873  11.574   1.463  0.4421  0.3000  0.1132
14580W        W34114  15.628   2.643  13.406 -0.0658 -0.0640 -0.1073
14581W        W34115  15.997  12.428   1.881 -0.0252 -0.3370 -0.0081
14582W        W34116  10.948  13.361  15.018  0.0349  0.1382 -0.2603
14583W        W34117   8.447   7.919  16.480  0.1267  0.0573 -0.4049
14584W        W34118   2.998   3.087   0.639  0.1906  0.0606 -0.1992
14585W        W34119   6.480   0.153   5.226 -0.0244  0.3091  0.1167
14586W        W34120   0.633  13.662   0.181  0.2323 -0.2074 -0.1578
14587W        W34121  10.766   1.408   4.595 -0.2653  0.3687  0.0024
14588W        W34122  13.255   7.594  12.892 -0.1270  0.0905 -0.0239
14589W        W34123   0.602  11.454  15.986 -0.1023 -0.0957 -0.2075
14590W        W34124   1.572  14.209   1.470  0.0538  0.1092 -0.0426
14591W        W34125   7.800   5.269  14.783  0.1125 -0.0076  0.1673
14592W        W34126   5.905  16.767  13.763 -0.4244  0.0092  0.6406
14593W        W34127   2.660   1.488  15.729 -0.0716  0.1588 -0.0231
14594W        W34128  17.890  13.620  13.786 -0.2360  0.4009  0.0934
14595W        W34129   2.924   0.652  12.961  0.0169  0.0040 -0.0613
14596W        W34130  11.938   0.582  13.715 -0.2127  0.1574 -0.2297
14597W        W34131   3.244  11.825   1.101  0.0249 -0.0664 -0.0662
14598W        W34132   5.798  13.850  15.636  0.0256  0.0095 -0.0286
14599W        W34133   9.148   9.923   0.981 -0.1972 -0.0394  0.1542
14600W        W34134   1.640   9.972   4.185  0.1179 -0.0168 -0.2284
14601W        W34135  17.387  12.021   3.040  0.1709  0.0054  0.0595
14602W        W34136  12.348   9.323  13.342  0.0044 -0.4179  0.0570
14603W        W34137   3.109  17.164  15.923 -0.2681 -0.3565  0.1975
14604W        W34138   2.446   1.533   2.818 -0.1515  0.0415 -0.1454
14605W        W34139   8.978  14.278  14.602 -0.0018 -0.2460  0.1596
14606W        W34140   2.699  15.309   0.706  0.1622  0.2613  0.3109
14607W        W34141   4.176  10.061  16.683  0.0069 -0.2578 -0.2940
14608W        W34142   9.603  11.830  15.826 -0.2019  0.1763  0.1681
14609W        W34143   4.041  16.455   0.866 -0.4233  0.3621  0.1254
14610W        W34144  15.944   1.900  14.973  0.0079 -0.0597 -0.1763
14611W        W34145  16.621   6.924  11.840 -0.1821 -0.0164 -0.0632
14612W        W34146  10.360   4.239   3.107  0.2169  0.1629  0.0813
14613W        W34147   5.318   6.188   1.081  0.1649  0.1731  0.3381
14614W        W34148  16.607   3.449   0.795  0.1632  0.0319 -0.0997
14615W        W34149   5.670   6.848   2.624 -0.2276  0.2462 -0.1293
14616W        W34150   8.391   8.964   3.201  0.0310 -0.0863 -0.2483
14617W        W34151   0.595   8.996  14.965  0.1789  0.0222  0.1861
14618W        W34152  15.444  16.055   2.590  0.1399  0.2669 -0.2855
14619W        W34153   9.566   7.274   1.999 -0.1888  0.0363 -0.0759
14620W        W34154  15.140   6.908  14.427  0.0331  0.0183 -0.1842
14621W        W34155   0.383   0.808   2.268  0.0010  0.1120 -0.1181
14622W        W34156   9.897   0.170  12.703  0.1241 -0.2218  0.1561
14623W        W34157  12.831  10.829  14.056 -0.1025 -0.1598  0.0957
14624W        W34158   7.759  16.766  16.330  0.0687  0.2246  0.2149
14625W        W34159   0.640   5.949  16.747  0.0937 -0.1912  0.1807
14626W        W34160  10.346  11.239  12.509 -0.3587  0.2218  0.0687
14627W        W34161   4.708   9.038  12.536  0.3600 -0.2039  0.0376
14628W        W34162   5.085   7.394  15.721  0.1072  0.1957 -0.0907
14629W        W34163  15.727   9.793  13.969 -0.2027  0.0299 -0.1374
14630W        W34164  12.875   9.290   4.437 -0.3398  0.1583  0.2671
14631W        W34165  16.967  11.866   0.373 -0.2390 -0.2537 -0.3155
14632W        W34166  15.831  12.647   1.436 -0.1105 -0.1051 -0.1554
14633W        W34167   5.114  16.833   1.926 -0.1294  0.2705  0.0463
14634W        W34168   2.053   4.040   2.485 -0.1235 -0.0271 -0.1533
14635W        W34169  14.342  11.605   1.249 -0.3171  0.0778 -0.0433
14636W        W34170   8.523  17.067  12.560  0.3126  0.0644 -0.1043
14637W        W34171   5.418   4.325  12.003 -0.1458 -0.1077 -0.1326
14638W        W34172   3.050   7.849  14.539  0.0719  0.1814 -0.0424
14639W        W34173   7.739   5.922  12.641  0.1421  0.4822  0.0707
14640W        W34174  10.810  16.300  14.035 -0.0426 -0.0070 -0.3296
14641W        W34175   3.234   4.485   2.219  0.0827 -0.1178 -0.1751
14642W        W34176   3.880  14.014  13.252  0.1566 -0.0341 -0.2906
14643W        W34177   8.382  14.308  14.092 -0.1475  0.3671 -0.3897
14644W        W34178  10.619   2.219   2.770  0.3582  0.0238  0.1115
14645W        W34179   3.451  17.364   0.951  0.0754  0.2435  0.1786
14646W        W34180   7.669  12.244   0.997  0.2519 -0.0777 -0.2613
14647W        W34181   5.999   5.609  16.743 -0.0410  0.0105  0.3351
14648W        W34182  14.522  11.316  15.453 -0.2616  0.0998  0.0748
14649W        W34183   8.174  17.789  12.786  0.1786 -0.2048  0.0370
14650W        W34184   6.556  11.943   0.403  0.2555  0.0259  0.0303
14651W        W34185   5.194   3.469   0.503  0.1656 -0.0809  0.2702
14652W        W34186  16.321   6.102  12.502  0.1658  0.0802 -0.0682
14653W        W34187   3.241  15.810  13.195 -0.0761 -0.1315  0.2229
14654W        W34188  10.751   0.541  15.908  0.0148  0.1756 -0.0613
14655W        W34189  15.140   7.454   0.825  0.2544 -0.2231  0.3018
14656W        W34190   4.182   3.460   0.465 -0.1372 -0.0682 -0.0235
14657W        W34191   3.761   4.942   4.540  0.2093 -0.3398 -0.0657
14658W        W34192  12.908  11.025   3.055  0.3077  0.1070  0.1068
14659W        W34193  14.895  17.076   1.577  0.4262  0.0677  0.0680
14660W        W34194  16.926   8.769  12.320  0.0083  0.1645  0.0914
14661W        W34195   7.930   8.812  15.678 -0.1476 -0.0228 -0.0015
14662W        W34196   0.674  15.116   4.855  0.1064 -0.0959 -0.1692
14663W        W34197   8.850  10.063   0.552 -0.0965  0.1902 -0.0724
14664W        W34198   2.183   1.805   3.593  0.2063 -0.1386  0.0160
14665W        W34199  10.648   8.864   0.448 -0.2958 -0.0237 -0.0253
14666W        W34200  10.628  15.470   3.238 -0.3454 -0.1092  0.0678
14667W        W34201  12.294  13.151   2.240 -0.3260  0.1187  0.0956
14668W        W34202   1.896   9.616   3.998  0.0898 -0.1494  0.1298
14669W        W34203   1.760   6.152   3.234  0.2805  0.1066  0.2046
14670W        W34204  14.731   5.590  14.377  0.1956  0.2678 -0.2039
14671W        W34205   1.145   5.564   4.251  0.0139 -0.1571 -0.0650
14672W        W34206   4.221   0.595  12.186  0.2074  0.1836 -0.1252
14673W        W34207  16.344   2.080  16.729  0.0824 -0.0277 -0.2234
14674W        W34208   2.065   5.152  15.124 -0.3648  0.2778 -0.0171
14675W        W34209   1.742  12.673  16.620  0.2237  0.0378  0.0212
14676W        W34210  10.412  13.917   1.798 -0.1962  0.3296 -0.3551
14677W        W34211   0.203   8.218  16.581  0.1677 -0.0305  0.0691
14678W        W34212  12.356   3.517   0.770 -0.3341 -0.2115  0.2104
14679W        W34213   8.649   6.869   4.825  0.0407  0.0203 -0.0327
14680W        W34214  17.571   0.201   2.953  0.1798 -0.0808  0.0192
14681W        W34215  12.011   1.122   5.069  0.1852  0.0427 -0.2402
14682W        W34216   3.203  15.432  12.202  0.2608 -0.1722  0.1392
14683W        W34217  14.393   3.264  15.176  0.0995  0.4951 -0.0450
14684W        W34218  17.433   8.382   1.677 -0.0380  0.1433 -0.0554
14685W        W34219  10.036   8.811   1.961  0.0588 -0.2244 -0.1765
14686W        W34220  12.532  12.959   0.541 -0.1356 -0.2112  0.1308
14687W        W34221   5.071  15.878   2.757  0.3303  0.0428 -0.2007
14688W        W34222   8.388  17.357   5.183 -0.0049 -0.0732 -0.3878
14689W        W34223   6.348   2.793   2.818 -0.0343  0.0913  0.2393
14690W        W34224  17.358   6.160  12.844 -0.1424  0.2495  0.0438
14691W        W34225   8.413   0.445   0.008 -0.0287  0.3066 -0.1348
14692W        W34226  11.475  11.390   2.506 -0.1483 -0.1150  0.0690
14693W        W34227  17.031  10.722   4.809  0.0740  0.0068  0.2566
14694W        W34228   5.733   8.855   4.073 -0.3511 -0.3395  0.0254
14695W        W34229   6.195   6.931   0.356 -0.4853 -0.0070 -0.0667
14696W        W34230  16.556  16.626   4.630 -0.2566 -0.2917  0.0447
14697W        W34231  12.283   2.490   1.662  0.1247 -0.2687 -0.0638
14698W        W34232  12.244  15.772   4.211 -0.2157 -0.2217 -0.2490
14699W        W34233   7.894  12.367   3.510 -0.1868 -0.0169 -0.2118
14700W        W34234  17.074  16.788   0.559  0.0648 -0.3349  0.2428
14701W        W34235   8.436   5.425  13.090  0.0550  0.0203  0.0746
14702W        W34236   0.798   8.073  14.007 -0.1927  0.2540 -0.2117
14703W        W34237  16.458  11.453  13.846  0.2221 -0.2135  0.4718
14704W        W34238  10.217   0.838  15.031 -0.2802 -0.4228  0.0354
14705W        W34239   1.908  16.635   2.089  0.4326  0.1681  0.0578
14706W        W34240  13.506   4.282  14.718 -0.1556  0.0346  0.0161
14707W        W34241   8.421   5.096   1.598 -0.0952  0.1411 -0.1738
14708W        W34242   5.120   9.902  13.838 -0.3182  0.0661  0.1733
14709W        W34243  14.220   6.193  16.313 -0.0064 -0.2557  0.3091
14710W        W34244   8.455  13.978  12.153  0.0852 -0.0578  0.0569
14711W        W34245   0.081   6.595   2.053 -0.2103  0.2477 -0.1473
14712W        W34246   4.043  11.897   4.626  0.0063 -0.1977  0.1107
14713W        W34247   7.282  16.041   4.813 -0.3461  0.0079  0.0365
14714W        W34248   7.976   2.572  12.735  0.3013 -0.3245  0.2109
14715W        W34249   1.537   7.430  13.726 -0.1207  0.0087  0.1326
14716W        W34250   5.768   6.536   3.349 -0.0921  0.1965  0.0544
14717W        W34251   3.216   4.862  11.701  0.3717 -0.0690 -0.1493
14718W        W34252   5.821   2.175  12.639 -0.1083 -0.1940 -0.0500
14719W        W34253   4.481   1.411   1.170  0.1492 -0.0222  0.1551
14720W        W34254  16.920  13.004   2.426 -0.0053 -0.0826 -0.2140
14721W        W34255   8.818  15.534   1.152 -0.1641  0.1003 -0.0024
14722W        W34256   2.891   8.730   4.323 -0.1951 -0.1019  0.3449
14723W        W34257  15.904   7.746   1.956 -0.0069  0.0999  0.3493
14724W        W34258   7.994  14.282   4.087  0.0725  0.1234  0.2784
14725W        W34259  17.549  14.927  12.574  0.2384  0.2834 -0.1387
14726W        W34260  16.117   1.591  12.939  0.1094 -0.0929 -0.2600
14727W        W34261  14.559  16.551   2.348  0.0645  0.1601 -0.2545
14728W        W34262  11.440   3.260  15.552  0.1363 -0.1857  0.0078
14729W        W34263   1.098  14.337   1.654 -0.2477 -0.1541  0.1623
14730W        W34264   5.330   8.390  12.555  0.2181 -0.1936  0.1111
14731W        W34265   9.991  12.492  14.012 -0.0238 -0.0408  0.3235
14732W        W34266   6.864  12.946  16.440  0.2575  0.1795 -0.1033
14733W        W34267   2.153  17.592   3.885 -0.1279 -0.0659  0.0862
14734W        W34268  16.761   1.145   4.706  0.2405  0.1721  0.1004
14735W        W34269  16.184  15.087  15.253  0.0862 -0.1575 -0.1410
14736W        W34270  15.777   5.876   1.993  0.0343 -0.4582  0.1556
14737W        W34271   6.006  13.251  12.611 -0.3310 -0.0546 -0.0219
14738W        W34272   6.702  16.479   4.093  0.0886  0.0823 -0.0958
14739W        W34273   8.678   0.555   2.830 -0.0784 -0.4689 -0.0806
14740W        W34274   2.960  10.408  12.421 -0.2429 -0.3042  0.2263
14741W        W34275  11.251  14.934   4.570  0.1757  0.1129 -0.0334
14742W        W34276  12.788  13.682   4.502  0.0138 -0.1284 -0.3296
14743W        W34277  11.864   4.548  14.294  0.3209 -0.0683  0.2957
14744W        W34278  11.717  15.368   0.181 -0.1265  0.1727 -0.1157
14745W        W34279  12.309   5.629  13.108  0.2007 -0.2520  0.2091
14746W        W34280   6.821  12.008   3.625 -0.0132 -0.1791  0.1844
14747W        W34281   2.474   9.637   0.062  0.0715 -0.1086  0.1168
14748W        W34282  11.863   7.274  12.273  0.0170 -0.0442 -0.0454
14749W        W34283  15.838   0.426   4.850  0.0060  0.1313 -0.1915
14750W        W34284  15.554  16.916  14.702 -0.0072  0.1011  0.0753
14751W        W34285   6.500   9.637  13.848 -0.0995  0.2315  0.3415
14752W        W34286   4.961   4.390   5.400  0.1507 -0.0873 -0.1299
14753W        W34287  11.009   6.227   4.531 -0.1081 -0.1070  0.2922
14754W        W34288  11.308   3.410  14.256 -0.1989 -0.0349  0.2528
14755W        W34289   6.087  11.478  13.701  0.0009  0.0940 -0.2192
14756W        W34290  17.078  17.629  14.859  0.2685  0.0563 -0.2079
14757W        W34291   2.567  17.603   1.139  0.4712 -0.0111  0.0033
14758W        W34292  17.421  17.307   2.523  0.2665  0.1913  0.0968
14759W        W34293  14.461  14.512   0.540  0.0364 -0.1744  0.1659
14760W        W34294   5.350  14.875  15.909  0.2034 -0.1512  0.0868
14761W        W34295  12.883   4.365  11.706 -0.0539  0.1453 -0.0331
14762W        W34296  11.866   6.913  15.810  0.0048  0.0206 -0.0439
14763W        W34297  16.745  11.544   1.776 -0.0210  0.3456  0.2414
14764W        W34298  12.736   7.050  14.720 -0.0138 -0.0070  0.0504
14765W        W34299   3.228  14.571   2.141  0.0333 -0.1988  0.1192
14766W        W34300  15.716   7.177  16.095  0.3815 -0.0182  0.0477
14767W        W34301   6.621   9.068   1.390 -0.0373  0.2050 -0.1445
14768W        W34302  12.120  12.369   1.093 -0.0757 -0.0530 -0.0165
14769W        W34303   1.300   0.037   4.745 -0.0455 -0.2887  0.1454
14770W        W34304   0.201   1.543   3.602 -0.0070 -0.0752  0.1156
14771W        W34305  16.568   7.439  12.653 -0.1982 -0.2298 -0.0732
14772W        W34306  16.382  12.549  13.405 -0.1104 -0.1813  0.1995
14773W        W34307  13.785  14.562   2.631 -0.0151  0.2154  0.1333
14774W        W34308  14.304   3.163  12.338  0.0440 -0.0473  0.0120
14775W        W34309  13.628   9.040   1.454  0.1166 -0.1278 -0.1581
14776W        W34310  13.467  12.693  12.402 -0.0981 -0.1417 -0.1111
14777W        W34311   9.246  13.589  16.248  0.1030  0.0880  0.0827
14778W        W34312  11.116   2.556   3.873 -0.0584 -0.0433 -0.2431
14779W        W34313   5.534  15.768  12.637  0.1060  0.1275 -0.1854
14780W        W34314  17.679   7.964   0.955  0.0811 -0.0522 -0.0925
14781W        W34315   9.823   7.979  15.391  0.1707 -0.1211  0.0130
14782W        W34316   3.508   7.440   3.143 -0.1384  0.1544 -0.2632
14783W        W34317   6.600  10.782  12.200  0.1351 -0.0290 -0.1477
14784W        W34318  15.583   2.701   0.603  0.3443 -0.0338  0.1017
14785W        W34319   4.744   8.344   2.065  0.1261  0.0355  0.1064
14786W        W34320  15.979  14.258  15.413 -0.0077 -0.1530  0.0626
14787W        W34321   6.918   3.417   2.989 -0.0317 -0.2892  0.1545
14788W        W34322   0.771  15.191  14.248  0.2252  0.0663 -0.0341
14789W        W34323   6.964   4.442   4.957 -0.0878  0.3477 -0.0798
14790W        W34324  11.128   3.428   5.288 -0.2415  0.2259  0.3830
14791W        W34325   7.768   7.732  14.534  0.1992 -0.2598 -0.1823
14792W        W34326   3.175  11.376   0.381 -0.0933  0.1376 -0.1821
14793W        W34327   5.255   4.920  15.577  0.1922 -0.1522  0.0654
14794W        W34328  11.375   7.691   4.517 -0.0110 -0.1968 -0.1443
14795W        W34329  10.727   3.328   0.906 -0.0062 -0.2507 -0.1945
14796W        W34330   7.628   0.323   4.214 -0.1927  0.2646 -0.0089
14797W        W34331  13.967   1.354   4.885  0.0105  0.3098  0.2388
14798W        W34332   3.648   0.791   1.171 -0.1661  0.0609 -0.0505
14799W        W34333   7.498  17.088   3.642 -0.1635  0.0310 -0.1766
14800W        W34334  13.501  10.953   0.429 -0.1536  0.1650  0.3834
14801W        W34335   8.587  17.531  12.812  0.0708 -0.0907 -0.2614
14802W        W34336  17.884  17.559   4.510 -0.3655 -0.0477  0.1657
14803W        W34337  10.394   5.483  15.635 -0.0885 -0.0564  0.0686
14804W        W34338   0.319  13.756  13.024  0.0447 -0.2449  0.2298
14805W        W34339   0.799  13.457  14.185  0.0559  0.2612  0.4147
14806W        W34340   8.497   4.637   0.792 -0.0983  0.0466  0.3067
14807W        W34341   6.907   1.241   1.836  0.2397  0.2357  0.1172
14808W        W34342   6.150   9.853   4.060  0.1961 -0.0366  0.3053
14809W        W34343  11.296   8.410   1.254  0.0810 -0.1931 -0.1012
14810W        W34344  14.830  15.309  12.443 -0.0212 -0.1982  0.0233
14811W        W34345   4.281   4.318  14.665 -0.0539  0.0349 -0.0887
14812W        W34346   1.508   3.227  16.305  0.0048 -0.2410  0.1884
14813W        W34347  13.783   5.027  16.242  0.0926  0.1462  0.1532
14814W        W34348  10.863  13.356  11.913  0.2177 -0.1378  0.0937
14815W        W34349   2.637   2.539  16.576  0.2349 -0.1967 -0.0174
14816W        W34350   6.303   2.169  15.760  0.1411  0.2482  0.4591
14817W        W34351  10.089  16.660   3.750 -0.1452  0.0912  0.0550
14818W        W34352   5.099   6.344  11.938 -0.1659 -0.1011  0.2575
14819W        W34353   7.565   6.307   5.361  0.5369  0.0953  0.1571
14820W        W34354   8.332  15.606   3.695  0.1731  0.3765 -0.1878
14821W        W34355  13.132  14.706   1.936 -0.1385 -0.0040 -0.0282
14822W        W34356  12.214  15.639   0.295  0.2555 -0.1484 -0.1532
14823W        W34357   5.856  15.308   2.282 -0.3094 -0.2686 -0.1110
14824W        W34358   0.138   5.977  14.192 -0.3373 -0.2057  0.0518
14825W        W34359   1.415  14.996   5.097 -0.3106 -0.0058 -0.0807
14826W        W34360   7.622  10.421  11.738  0.3723 -0.2557  0.0193
14827W        W34361  15.451   7.538   0.121  0.3230  0.0343  0.2830
14828W        W34362  15.243  11.596   2.460 -0.1407  0.0885  0.3321
14829W        W34363  13.651   7.202   3.041 -0.1074  0.0969 -0.0978
14830W        W34364   8.581   6.774  15.028 -0.2969  0.1546 -0.2624
14831W        W34365  17.252   7.528   1.565  0.0817 -0.1329 -0.1516
14832W        W34366  14.874  17.574   2.162 -0.1609  0.1307 -0.0346
14833W        W34367  15.625   7.696  16.019  0.1714  0.0134 -0.1172
14834W        W34368  16.961   0.300  15.625 -0.1396 -0.3629 -0.0086
14835W        W34369   8.747   7.733  12.964  0.2466  0.2756 -0.0493
14836W        W34370  13.361   2.245   0.888 -0.5600 -0.1654 -0.4377
14837W        W34371  14.499   7.903  15.690  0.0884 -0.2683  0.2332
14838W        W34372  12.700   1.714   3.445  0.3503  0.2875 -0.4202
14839W        W34373   6.865   4.260  15.162  0.0345  0.0722 -0.2767
14840W        W34374   7.975  12.582   3.076 -0.0889  0.1614 -0.1263
14841W        W34375   8.269  10.689   1.751 -0.3879  0.1090 -0.2569
14842W        W34376  14.662   4.718   0.066 -0.0755 -0.1520 -0.2044
14843W        W34377   0.805   9.713   1.264  0.1900  0.0049  0.2340
14844W        W34378   7.636   8.908  15.198 -0.3873 -0.1349 -0.0178
14845W        W34379   4.056  10.944   0.300  0.1210  0.0490 -0.1476
14846W        W34380  16.187  10.613  16.691  0.0831  0.0493 -0.0818
14847W        W34381  14.083   0.808  16.563 -0.3455  0.2557  0.0154
14848W        W34382  16.681   0.585  13.686  0.2496  0.1671 -0.0457
14849W        W34383   2.379   4.169  15.382  0.0357  0.0468  0.1725
14850W        W34384   8.999   8.501   5.468 -0.0912 -0.0044  0.0783
14851W        W34385  12.890   9.468   2.771  0.1061 -0.3292  0.0696
14852W        W34386  15.100   5.688  12.449  0.1066  0.3307 -0.0106
14853W        W34387   6.545   0.977   3.569 -0.2152 -0.0084  0.1641
14854W        W34388   2.190   3.201  15.199  0.2491 -0.2022  0.0259
14855W        W34389  12.140   0.368   0.334 -0.0044  0.2976  0.1895
14856W        W34390   8.957   1.338  14.828  0.4160  0.0900 -0.0019
14857W        W34391   7.732  16.378   4.161 -0.2191  0.0100  0.3003
14858W        W34392   6.168   8.553   3.929  0.0990  0.3112 -0.1306
14859W        W34393   5.421  11.822   1.574 -0.0193  0.1952  0.2167
14860W        W34394   5.356   2.330   2.813 -0.2484 -0.0594  0.0957
14861W        W34395  17.380  13.386  16.394  0.0552 -0.0685  0.0232
14862W        W34396  15.739  14.687  12.680  0.1003  0.1431 -0.0156
14863W        W34397   2.979  15.816   0.747 -0.2331  0.1786 -0.0846
14864W        W34398   9.538   9.377   3.573 -0.0463 -0.0917  0.1593
14865W        W34399   7.399  11.075  13.942 -0.0691 -0.2871  0.3376
14866W        W34400   4.274   8.706  14.459  0.0943  0.2206 -0.2352
14867W        W34401   0.770  13.554  12.870  0.0168 -0.1342 -0.2242
14868W        W34402  17.575  16.636  14.764 -0.0947 -0.1699 -0.3997
14869W        W34403   4.213   9.911  13.702  0.0699  0.1649  0.3190
14870W        W34404   6.748  15.046   1.184  0.1083  0.1723 -0.0720
14871W        W34405  13.459   8.099   3.088 -0.0303 -0.1706  0.0775
14872W        W34406  10.051   9.110   3.457  0.2148  0.1396 -0.2126
14873W        W34407   4.578   9.903  12.505 -0.0797 -0.3090 -0.0103
14874W        W34408  12.593  15.469  16.176  0.0886 -0.1221  0.2096
14875W        W34409  11.355   9.277  11.814 -0.1370 -0.1284 -0.0389
14876W        W34410  16.499   8.397  15.575  0.1907  0.2081 -0.1943
14877W        W34411  10.265  12.196  12.210  0.1627 -0.1186  0.0558
14878W        W34412   2.600   4.985  12.455 -0.1438  0.0681  0.0899
14879W        W34413  16.189  15.832  14.380  0.0237 -0.0487 -0.3173
14880W        W34414   0.419   5.261  13.188  0.0988  0.0721 -0.1900
14881W        W34415  13.564   5.069  13.356 -0.3793 -0.1415  0.2493
14882W        W34416   6.503   0.640   2.568 -0.1444 -0.0753 -0.0106
14883W        W34417  13.969   4.703  14.182  0.3523  0.0566 -0.3118
14884W        W34418  12.680  16.150  14.203 -0.0585 -0.1267 -0.1024
14885W        W34419  14.966  14.204  15.198 -0.2839  0.1405  0.0894
14886W        W34420   2.667  12.343  15.894 -0.1004  0.4749 -0.4796
14887W        W34421   0.462   4.884   2.879 -0.0668 -0.2481  0.4436
14888W        W34422  15.052  13.918  14.821 -0.3437  0.0730  0.1786
14889W        W34423   9.075   5.435  15.134 -0.2817  0.2900  0.0241
14890W        W34424   6.515  10.128  14.851  0.1328  0.1376  0.0415
14891W        W34425  12.836   4.674  15.971  0.1711 -0.1056 -0.1037
14892W        W34426  11.566   7.044   1.223 -0.0081 -0.0781  0.1345
14893W        W34427  17.044  17.182   0.248 -0.1466 -0.1538 -0.0328
14894W        W34428   1.589   7.210   2.652  0.2129 -0.1627 -0.1612
14895W        W34429  15.906   6.767   1.610 -0.0708  0.1498 -0.1643
14896W        W34430  14.813  15.563  12.934  0.0277  0.0588  0.0908
14897W        W34431   5.303   2.727   3.705 -0.2230 -0.3033 -0.2479
14898W        W34432   4.556  13.424  14.095  0.2201 -0.0815 -0.2070
14899W        W34433   5.587   6.904   0.483  0.0289  0.0054  0.1526
14900W        W34434   1.849  15.261  13.664 -0.1380 -0.0464 -0.0330
14901W        W34435   8.873   5.049  16.480 -0.2311 -0.0489 -0.0778
14902W        W34436  13.319   3.674  13.559  0.2503 -0.0826  0.1529
14903W        W34437   4.904   1.970  12.229  0.2512 -0.3196 -0.1621
14904W        W34438   1.754   9.539   0.818 -0.0996 -0.2135  0.1151
14905W        W34439   0.932   4.591  13.346  0.0710 -0.0036 -0.1294
14906W        W34440   9.782   6.649  14.732  0.0129 -0.1398 -0.0471
14907W        W34441   8.051  13.916   1.087  0.1536 -0.0873  0.1179
14908W        W34442  11.276  14.578   3.024  0.0710  0.1217 -0.1444
14909W        W34443   2.828   2.309  13.204  0.1647 -0.0246 -0.1411
14910W        W34444   7.404  13.242  12.555 -0.3133  0.0329 -0.2254
14911W        W34445   2.820   6.457  15.706  0.0943  0.2276 -0.0608
14912W        W34446   0.972  17.905   0.229 -0.0149  0.2273  0.1328
14913W        W34447  14.811   1.348  13.914 -0.3909 -0.0702  0.0822
14914W        W34448   1.818   0.071  15.821  0.1485 -0.1641  0.0571
14915W        W34449  15.055   7.421   3.061 -0.1341  0.0563  0.0973
14916W        W34450   7.268   2.759   2.314  0.1401  0.1666  0.0024
14917W        W34451  14.083   3.388  14.830 -0.2188 -0.0057 -0.2007
14918W        W34452   5.097  17.862   1.370  0.0036  0.0412 -0.2435
14919W        W34453   6.270   0.112   0.336  0.0300  0.4052 -0.0839
14920W        W34454   8.722  17.341  11.142 -0.2865  0.0704  0.2159
14921W        W34455   2.473   2.622  12.886  0.1891 -0.1724 -0.0495
14922W        W34456   3.968   0.268  16.560  0.2102  0.1895  0.2806
14923W        W34457   8.766   8.095   5.220  0.3364  0.0479  0.0989
14924W        W34458  10.168   1.084  16.386  0.0474 -0.1797 -0.0942
14925W        W34459  16.030   1.100   1.446 -0.4482  0.0378  0.1637
14926W        W34460  15.857   4.204   1.079 -0.2430  0.1203 -0.1192
14927W        W34461  13.336  17.257  13.955  0.0319 -0.1782  0.3186
14928W        W34462   3.482   2.815  16.475 -0.3463  0.2013 -0.1170
14929W        W34463   2.068   2.719  12.625  0.0277 -0.3289 -0.0726
14930W        W34464   6.907  15.428   3.342  0.1562  0.1014 -0.0061
14931W        W34465  17.678   2.004  13.775  0.2559 -0.0928  0.1856
14932W        W34466  12.909  15.927   1.666 -0.1262  0.1778  0.1936
14933W        W34467   0.661  15.237  15.340 -0.1916 -0.0523 -0.1118
14934W        W34468   0.108  15.680  13.905 -0.4472  0.1985 -0.2563
14935W        W34469   3.028  14.939   0.529  0.0544  0.2044 -0.3287
14936W        W34470   0.606  15.957  14.702 -0.2823 -0.1324 -0.0640
14937W        W34471  15.234  16.793   0.209  0.0336  0.0817 -0.1222
14938W        W34472   9.576  13.103  13.395  0.0962 -0.1294  0.3234
14939W        W34473  17.147   0.302  13.089  0.0395 -0.2155  0.2477
14940W        W34474  12.566   3.278   1.810  0.2198 -0.0504 -0.1929
14941W        W34475   9.305  14.156  11.924 -0.2014 -0.3172 -0.0375
14942W        W34476   6.856   3.503  14.718 -0.0908  0.0937  0.2421
14943W        W34477   2.300   6.475  11.782 -0.1819 -0.0429 -0.4284
14944W        W34478   8.575  12.538   1.204  0.1752 -0.3425 -0.4249
14945W        W34479  16.143  16.023  15.234  0.0892 -0.3627 -0.2763
14946W        W34480  17.691  15.976   3.064 -0.0823 -0.0964  0.1420
14947W        W34481   4.538   8.854   3.201 -0.1898 -0.1164  0.0113
14948W        W34482   5.580   8.224   5.071 -0.3227  0.1965 -0.0437
14949W        W34483  15.569  10.067  15.620  0.3902 -0.0757  0.1374
14950W        W34484   8.708  17.368   2.908  0.4287 -0.0902  0.0936
14951W        W34485   8.335  10.722  14.317 -0.1947  0.4215 -0.1885
14952W        W34486  11.512   9.763   4.254  0.0050  0.0278 -0.0688
14953W        W34487  15.290   9.005  15.285  0.0438 -0.1261 -0.0619
14954W        W34488  15.241  14.831  14.690 -0.1748  0.2001  0.0017
14955W        W34489   3.862   0.830  13.620 -0.0360  0.0677 -0.0797
14956W        W34490  10.674  16.862  16.581  0.0944  0.1097  0.2731
14957W        W34491   5.058  15.658   3.481 -0.0822 -0.2521  0.1142
14958W        W34492   9.432   7.879  15.710  0.1122 -0.1117 -0.2542
14959W        W34493  10.157  12.918   0.816 -0.0734 -0.0622  0.1209
14960W        W34494  15.546   5.905   2.706 -0.2570  0.1529  0.1051
14961W        W34495   8.029  16.362   2.132 -0.1517  0.0241  0.1921
14962W        W34496   1.242   3.147   0.481  0.1198 -0.1884 -0.3623
14963W        W34497   5.451  11.221   0.799 -0.0475  0.0698  0.2638
14964W        W34498  16.055   6.977  14.840  0.2121 -0.0405  0.0031
14965W        W34499  10.530  14.832  12.052 -0.1401 -0.0446 -0.1384
14966W        W34500  10.800  17.318  15.859 -0.1076  0.0814  0.1199
14967W        W34501  10.919   8.642  14.033 -0.2406  0.2258 -0.1876
14968W        W34502   2.915  12.414   2.288 -0.0194  0.2004 -0.3775
14969W        W34503  17.625   8.711   2.022 -0.1636 -0.0260 -0.2428
14970W        W34504   3.549   1.368   5.028 -0.1822 -0.1102 -0.2529
14971W        W34505   5.671   0.548  16.626 -0.1179 -0.0398  0.2304
14972W        W34506  14.359   9.920  15.665  0.0002 -0.2410 -0.0919
14973W        W34507   2.671  16.659  14.310 -0.0507  0.0493  0.4407
14974W        W34508  11.663   6.522  16.134 -0.3089  0.1572  0.0640
14975W        W34509  16.439  14.611  11.738 -0.1027 -0.0057  0.0535
14976W        W34510   5.116  17.822   3.270  0.0061 -0.1249  0.2056
14977W        W34511   9.108  14.376   4.285 -0.1036 -0.0319 -0.0685
14978W        W34512  17.613  11.083   4.196  0.2390  0.2363 -0.1042
14979W        W34513   9.216   6.474   3.203 -0.1615  0.0450  0.2532
14980W        W34514   3.512   9.008  11.669  0.1219 -0.0058 -0.1457
14981W        W34515   4.173  11.912   3.086 -0.3119  0.1216 -0.1231
14982W        W34516  11.561   7.293  16.675  0.2786  0.0776  0.2072
14983W        W34517   1.693   5.793  12.032 -0.2826 -0.0092 -0.0891
14984W        W34518   3.157   1.463   0.242 -0.2465  0.0302 -0.0141
14985W        W34519   9.305   4.249   3.485 -0.0939  0.0715  0.1104
14986W        W34520   4.030  12.126   0.449 -0.0076  0.1603 -0.2438
14987W        W34521  15.411   3.810  13.239 -0.0184 -0.0449  0.0286
14988W        W34522  15.270   7.469   1.457  0.1711 -0.0625 -0.4233
14989W        W34523   8.655   3.223  14.202 -0.0706 -0.1780 -0.1253
14990W        W34524   5.331  15.332  16.612  0.0037 -0.0332  0.2760
14991W        W34525  10.895   6.118  16.718  0.3255  0.1085 -0.1644
14992W        W34526  12.542   3.137  13.174  0.2865 -0.0832  0.1543
14993W        W34527   9.545   8.618  16.354  0.0210 -0.1226  0.0543
14994W        W34528  14.941  10.571   0.398  0.1179  0.0571 -0.2112
14995W        W34529  16.852  11.208  15.877 -0.0595 -0.0593  0.0996
14996W        W34530   3.786  13.834   1.721  0.1610  0.1606 -0.0427
14997W        W34531   1.202   7.306  14.165  0.0002  0.0332 -0.0758
14998W        W34532   9.432  15.719   3.325  0.2240 -0.1715 -0.2668
14999W        W34533   7.443   8.337  13.640 -0.1446 -0.0138  0.0531
15000W        W34534  12.164  13.047  16.278 -0.1397  0.0388 -0.1246
15001W        W34535   2.449  12.962  13.475 -0.0512 -0.2462  0.0836
15002W        W34536   1.491   5.471   1.564  0.2163  0.0759 -0.1101
15003W        W34537   4.564   1.374   4.294 -0.4309  0.4275  0.1342
15004W        W34538  15.178  17.155  13.582 -0.1474 -0.1229  0.1219
15005W        W34539  17.733  12.217   3.397  0.0747 -0.0311  0.2044
15006W        W34540   9.672   5.488  11.944 -0.3328 -0.0611 -0.2991
15007W        W34541  17.786  14.081   2.759 -0.0829  0.0630  0.0917
15008W        W34542  16.599  11.546  14.882  0.0260 -0.1808 -0.1525
15009W        W34543  16.654   0.343   3.309 -0.2916  0.1643  0.0209
15010W        W34544   9.747  16.052   1.094  0.4744 -0.1024 -0.1654
15011W        W34545   8.835  12.820  13.344 -0.3169 -0.1971 -0.1081
15012W        W34546   5.615   2.877  14.537  0.1284 -0.1919 -0.1184
15013W        W34547  17.624  15.995  15.617  0.0419  0.1702 -0.0050
15014W        W34548   1.347  17.628  16.603  0.0951  0.2914 -0.1816
15015W        W34549  16.962   8.124   2.309 -0.1226  0.1306  0.0463
15016W        W34550   9.592   3.596  13.221  0.0791  0.3241 -0.1552
15017W        W34551   7.501  17.193   1.999 -0.0632  0.0157 -0.0949
15018W        W34552   3.179   4.659   0.511 -0.1190  0.0968 -0.2430
15019W        W34553   8.104   5.856  14.121 -0.0172  0.2747  0.1080
15020W        W34554  13.248  12.207   3.357  0.2278  0.0366 -0.0168
15021W        W34555   4.390   8.343  15.198 -0.1462 -0.2199 -0.0233
15022W        W34556   8.803   6.352  16.305 -0.0595  0.0755 -0.0106
15023W        W34557   6.659   7.494   4.132 -0.2307  0.2499  0.1473
15024W        W34558   9.973  12.594   1.235  0.2055  0.0989 -0.2036
15025W        W34559  17.213   1.765   3.552 -0.2090 -0.2816 -0.1188
15026W        W34560  17.249   0.081   0.544  0.1094 -0.1792 -0.0812
15027W        W34561  12.973  17.632  14.081 -0.0819  0.0225 -0.1438
15028W        W34562   3.241   0.500   1.231  0.0464 -0.1966  0.2770
15029W        W34563   3.620  10.219   2.274 -0.2584 -0.0744 -0.2350
15030W        W34564   7.420  15.994   3.833  0.0544  0.2451 -0.1859
15031W        W34565  11.522   4.494   2.602  0.1930 -0.4317 -0.0362
15032W        W34566   6.301  15.793  16.448 -0.0722  0.1303 -0.1177
15033W        W34567  15.267   3.531   3.752 -0.2491 -0.0098  0.0755
15034W        W34568  11.601   2.264  12.315 -0.0985  0.2665 -0.0532
15035W        W34569   8.669   1.796   3.850  0.0918 -0.1352  0.1152
15036W        W34570   2.379  10.568  15.240 -0.0545 -0.1463  0.4527
15037W        W34571   3.985  15.058   2.062  0.1220 -0.1460 -0.1216
15038W        W34572  14.049   8.839  12.889 -0.6788 -0.2764  0.1130
15039W        W34573   0.724  17.120   5.012 -0.1209  0.0801 -0.1884
15040W        W34574   2.575   5.375   2.818 -0.3307  0.1025 -0.0732
15041W        W34575   5.550  11.807  15.932  0.0433 -0.2586 -0.2473
15042W        W34576   3.371   7.162  14.928  0.1767  0.1157  0.1652
15043W        W34577  16.978   8.277  12.400 -0.0702 -0.0543 -0.0906
15044W        W34578  15.731   8.275   1.871 -0.1392 -0.0367 -0.1643
15045W        W34579   9.141   1.927  12.152  0.1239  0.0433  0.0537
15046W        W34580   5.307  13.018  14.831 -0.0032  0.0232  0.2647
15047W        W34581  10.069   7.531  16.220  0.2393  0.0922  0.3658
15048W        W34582  16.609   5.813  14.765 -0.2407 -0.0624  0.2461
15049W        W34583   7.433  14.504  15.063  0.3659 -0.1411  0.1936
15050W        W34584  14.719   2.386   4.390 -0.0419 -0.2857 -0.2537
15051W        W34585  11.439  16.094   2.359 -0.0581 -0.1120 -0.1654
15052W        W34586   5.967  13.884  12.612  0.1620  0.0146 -0.2129
15053W        W34587  17.778  16.905  12.323  0.3003  0.0571 -0.0861
15054W        W34588   3.417   1.531   2.824  0.1577  0.1046 -0.2336
15055W        W34589   7.120   7.018   0.942  0.1048  0.0376  0.1394
15056W        W34590   8.083  17.312   2.625  0.1707  0.3487  0.0852
15057W        W34591   3.231   8.048   2.651  0.2250 -0.1124  0.1592
15058W        W34592   3.504   5.982   2.461 -0.0120 -0.0024  0.2054
15059W        W34593   0.689   0.449   1.507  0.0260 -0.3117  0.0208
15060W        W34594   0.677   2.047   4.722  0.2193  0.3659  0.1510
15061W        W34595   6.072  12.443   4.175 -0.2673  0.2393  0.1069
15062W        W34596   9.319   7.358   4.533  0.2956  0.0962 -0.4898
15063W        W34597  11.200   4.082   2.649 -0.1108  0.0823 -0.0924
15064W        W34598   6.870  13.307  14.585  0.0691  0.1050 -0.1273
15065W        W34599  16.907   4.755   2.009  0.3090  0.0434 -0.2662
15066W        W34600   0.649  14.068  14.448  0.1228 -0.0663 -0.0155
15067W        W34601   8.465   5.960  14.755 -0.0725  0.1313  0.2465
15068W        W34602  11.508  16.686   1.504  0.2097 -0.0834  0.1042
15069W        W34603   6.243   4.230   4.042 -0.0724  0.0354 -0.0002
15070W        W34604  16.856  16.522  14.155  0.1643 -0.0328 -0.1056
15071W        W34605   3.302   0.378  16.509 -0.1574  0.1912 -0.1733
15072W        W34606  17.234   6.178  11.902 -0.1219  0.0744 -0.3484
15073W        W34607   4.160   5.643  14.306 -0.1110 -0.0267 -0.1571
15074W        W34608   7.785  10.137  14.372 -0.0116 -0.0115  0.0975
15075W        W34609  15.307  12.545  12.704 -0.2651 -0.3885  0.0601
15076W        W34610  14.478   3.708  14.936 -0.2980  0.0894 -0.0917
15077W        W34611   0.748  10.444   0.733 -0.0084  0.0490 -0.0407
15078W        W34612   4.368  13.815  13.502  0.1906 -0.4006 -0.1794
15079W        W34613  11.820   2.939  15.632  0.0371  0.0197  0.1707
15080W        W34614  16.302   0.687   4.128 -0.0825 -0.1433  0.1455
15081W        W34615  17.505   9.749  15.728  0.1495 -0.0015 -0.0028
15082W        W34616  11.363   0.190   1.271  0.3551  0.3089  0.0503
15083W        W34617  12.056   2.375  12.710  0.0245 -0.0727  0.4187
15084W        W34618  15.470   1.205   2.201  0.2646  0.0810 -0.2044
15085W        W34619  16.372   1.179   3.729 -0.0934 -0.1152  0.2036
15086W        W34620   6.940   7.642  16.161  0.0304  0.0772 -0.2034
15087W        W34621  17.725  10.567  12.847 -0.2015 -0.3469  0.3211
15088W        W34622  15.531   8.007   0.290  0.5313 -0.2754  0.2246
15089W        W34623  14.593  13.745  12.475  0.0067  0.4933 -0.0211
15090W        W34624   3.208  10.522  15.943 -0.1431 -0.0105 -0.0222
15091W        W34625  14.009   3.152  13.483 -0.2485  0.1579 -0.1248
15092W        W34626   0.970  12.251  13.316 -0.0097  0.1176 -0.2172
15093W        W34627   2.570   8.456   2.945 -0.1521  0.0679  0.2002
15094W        W34628   6.444  16.394  14.332 -0.0326 -0.4443  0.2165
15095W        W34629   6.382  15.802  13.285 -0.1753 -0.1552 -0.1181
15096W        W34630  16.644  17.825  15.871 -0.1732 -0.2039 -0.2335
15097W        W34631   6.680  12.711   2.215  0.1166 -0.0250 -0.0090
15098W        W34632   8.398   6.267  15.162 -0.2697  0.1219 -0.0840
15099W        W34633   9.570   1.601  15.885  0.0640  0.0372 -0.0064
15100W        W34634   5.385  17.070  15.393  0.1394 -0.2336  0.0719
15101W        W34635   7.977  14.553   4.959  0.1400 -0.1018 -0.1157
15102W        W34636   3.785   5.846  15.322 -0.2374 -0.1457 -0.1166
15103W        W34637  10.175  12.622  11.435  0.1741  0.0778  0.1581
15104W        W34638  10.051   1.722  12.148 -0.3714 -0.3308 -0.0094
15105W        W34639  15.695  14.947   2.753 -0.0317 -0.1080  0.3083
15106W        W34640  16.226  10.723  11.743  0.0699 -0.0312  0.3655
15107W        W34641  11.156  15.728  14.082  0.1716  0.1280 -0.0115
15108W        W34642   6.637  13.048  13.332 -0.2850  0.0359 -0.0340
15109W        W34643   8.515  13.023   3.901 -0.0548  0.0368  0.0384
15110W        W34644  13.038   2.913  12.639 -0.0866  0.0307 -0.0013
15111W        W34645   8.965   3.461   4.991  0.1656  0.0031  0.1795
15112W        W34646  17.230   7.802   0.303 -0.1289 -0.0561  0.1563
15113W        W34647   8.497   4.687   2.490  0.1833  0.0987 -0.1865
15114W        W34648   4.699  13.483   2.862 -0.0673 -0.1260  0.0926
15115W        W34649   0.864   1.642   5.025 -0.2410 -0.3312 -0.0704
15116W        W34650   8.741   4.629  14.777  0.2664  0.1005 -0.0190
15117W        W34651  16.216   7.336  16.732  0.0257 -0.3775  0.2004
15118W        W34652   8.137   7.129  12.378 -0.1386 -0.0373 -0.1751
15119W        W34653  15.395   3.969  15.851  0.1639 -0.4101 -0.0856
15120W        W34654  11.478  14.106  14.606 -0.3208  0.3808 -0.1435
15121W        W34655  16.817  15.056  12.982 -0.1621  0.0365  0.0153
15122W        W34656   6.220  14.963   1.149  0.1832 -0.3096  0.1887
15123W        W34657  13.125   8.296   1.086 -0.2010 -0.0285 -0.0113
15124W        W34658  16.773   9.985   4.240 -0.0001 -0.1400 -0.1107
15125W        W34659  10.883   3.639  13.396  0.0078  0.4321 -0.0556
15126W        W34660   4.618   9.226   0.131 -0.0844 -0.0296  0.1369
15127W        W34661  17.642   1.704  15.001  0.2064 -0.0171 -0.0863
15128W        W34662  12.099  13.460  12.202  0.0897 -0.1424  0.0392
15129W        W34663   3.333  15.400   0.724 -0.0317 -0.1655  0.0441
15130W        W34664  15.902   8.922  13.879 -0.0693  0.1346 -0.0215
15131W        W34665  14.813   2.683  16.032 -0.0087  0.4787  0.2109
15132W        W34666   8.721   3.976   3.152  0.0244  0.0389  0.0548
15133W        W34667   8.714   7.506  12.050 -0.2125 -0.0909  0.3313
15134W        W34668  11.886   9.462  13.553  0.0514 -0.1486  0.2537
15135W        W34669   0.311  17.115   0.450  0.0389 -0.4438 -0.0451
15136W        W34670   7.937  17.515   1.735  0.0325 -0.1677  0.3467
15137W        W34671   0.124  15.715  13.403  0.0993 -0.1307 -0.0092
15138W        W34672  12.727  11.072   2.086  0.0577 -0.0868  0.0075
15139W        W34673   5.800   5.176  16.717 -0.1744 -0.2360  0.0427
15140W        W34674   3.789   0.943   3.743 -0.3582 -0.1741  0.1102
15141W        W34675   5.719  13.860   2.470  0.0282  0.0647  0.0324
15142W        W34676  10.778   1.960   4.012 -0.3445  0.0976 -0.1112
15143W        W34677   3.119   0.561   4.737  0.1766  0.1069  0.1771
15144W        W34678   9.803   0.370  13.656  0.1837  0.3236  0.0571
15145W        W34679   9.034  17.630  15.604  0.0880  0.1828 -0.2596
15146W        W34680   2.168   6.790   1.761 -0.2249 -0.0220 -0.4857
15147W        W34681  12.461   4.905   2.349 -0.0730 -0.1103  0.2111
15148W        W34682  13.125   5.165   3.965  0.1739  0.0855  0.0189
15149W        W34683  11.419  10.742   0.084  0.1237  0.3192 -0.0220
15150W        W34684  16.366   5.938  15.182 -0.1687 -0.0300  0.0319
15151W        W34685   1.156  14.401   0.558 -0.0655 -0.1972 -0.0620
15152W        W34686  13.383   2.844  12.160 -0.0848 -0.1798 -0.0277
15153W        W34687   6.100  16.365  13.472 -0.0208 -0.2796  0.2423
15154W        W34688  12.163   8.388  16.250 -0.2571  0.2126  0.1385
15155W        W34689  13.127   6.469   3.246 -0.1796  0.0168  0.1239
15156W        W34690  10.018  17.205   2.515  0.0340 -0.1279  0.0236
15157W        W34691   8.379  11.940   2.975  0.2775 -0.0219  0.1109
15158W        W34692   9.569   4.314  13.762  0.0068  0.0639 -0.2765
15159W        W34693   4.937   2.963  14.295  0.4617  0.0205  0.1457
15160W        W34694   7.625  13.404   1.661 -0.0875 -0.0160 -0.1112
15161W        W34695   4.492   8.238  12.656 -0.0103 -0.2306 -0.1009
15162W        W34696   8.712   2.657  13.507 -0.1883  0.0192 -0.2814
15163W        W34697   6.397  14.151   4.318  0.0729  0.1151 -0.1421
15164W        W34698  15.501   4.123  16.361 -0.1919 -0.1994  0.2730
15165W        W34699  11.287   3.926   5.319 -0.0304  0.2157 -0.3824
15166W        W34700   6.420  11.326   0.927 -0.0809  0.0538  0.1103
15167W        W34701  12.878   6.810   3.459 -0.4013  0.1717 -0.0985
15168W        W34702  17.100  15.805   2.358  0.0507 -0.1889 -0.0981
15169W        W34703  16.942   7.152   2.329  0.0265 -0.2776  0.0052
15170W        W34704  17.074   4.193  16.276 -0.3774 -0.0213 -0.0727
15171W        W34705   8.848  16.827  13.643  0.0507 -0.1770 -0.1629
15172W        W34706   5.125   0.444   1.176  0.1544 -0.3864 -0.0847
15173W        W34707   3.356  13.534   1.698 -0.1190  0.0285  0.0838
15174W        W34708  17.792  17.904   3.795  0.0410  0.0237 -0.3352
15175W        W34709   0.906   6.048   2.096 -0.1887  0.0095 -0.2269
15176W        W34710  14.427  17.809  16.576 -0.2462 -0.0506  0.2611
15177W        W34711  17.468  13.598   3.506 -0.1414 -0.0795 -0.0066
15178W        W34712  16.180  11.943   2.107 -0.1265 -0.1420 -0.1271
15179W        W34713  11.267  16.674   5.202  0.1201 -0.1224 -0.2174
15180W        W34714  14.923  16.295   4.285 -0.2689  0.1256 -0.1879
15181W        W34715   1.325   6.159   1.115 -0.0211 -0.0621 -0.0816
15182W        W34716   6.270   9.546   3.027 -0.3525 -0.2190 -0.1399
15183W        W34717  12.161   9.022  12.946  0.1384  0.2161  0.0710
15184W        W34718   4.338   7.489   1.578 -0.1586  0.2751 -0.1139
15185W        W34719   9.280   8.755  15.156  0.0172  0.0086 -0.0754
15186W        W34720   7.098   6.411  13.548  0.0419  0.1458  0.2332
15187W        W34721  12.085   1.705   4.546 -0.2163  0.2327 -0.1465
15188W        W34722  13.643   7.177  12.439 -0.2273  0.0959 -0.0128
15189W        W34723  12.870   7.989   0.408  0.2691  0.2252  0.2614
15190W        W34724   0.170  16.408   1.041 -0.0980  0.1129 -0.0289
15191W        W34725   9.033  14.957   4.563 -0.1270  0.0615 -0.0680
15192W        W34726   6.731   3.682   0.702  0.1274  0.0422  0.0587
15193W        W34727  14.446   2.575   4.855 -0.0933 -0.2785  0.3061
15194W        W34728   2.808  17.606  13.409 -0.3172 -0.1131  0.0946
15195W        W34729   9.375   2.432  16.494 -0.0637  0.1879 -0.2064
15196W        W34730  15.351   3.254   2.091 -0.1407 -0.3399 -0.0479
15197W        W34731  13.495  14.879  12.404  0.0890  0.1648  0.2274
15198W        W34732  14.801   1.963  12.879 -0.3822 -0.2416  0.2159
15199W        W34733   4.141   6.485  14.484 -0.2449 -0.0418  0.0361
15200W        W34734  11.997   4.092  13.930  0.1156 -0.0134  0.1284
15201W        W34735  12.248   0.804   3.499  0.1141 -0.1079  0.4412
15202W        W34736   0.631   5.024  14.982 -0.1895 -0.1652  0.3119
15203W        W34737  17.009   8.911   2.577 -0.0777  0.1880 -0.0576
15204W        W34738  14.250  13.791  15.786 -0.2766  0.0208  0.0613
15205W        W34739  13.835  11.858  16.248 -0.1884 -0.2832 -0.1478
15206W        W34740   0.705   8.069  11.407 -0.1055 -0.1112 -0.0301
15207W        W34741  12.683  11.536   3.911 -0.0554 -0.1383  0.0744
15208W        W34742  17.343   8.703  12.678 -0.2889  0.1984 -0.0616
15209W        W34743   9.703  12.758  13.055 -0.1027  0.0446 -0.0060
15210W        W34744  12.271  14.482  16.614 -0.0146  0.0724  0.0479
15211W        W34745  15.549  15.880   4.682  0.0563  0.3097  0.2679
15212W        W34746   8.328   5.924   3.732  0.1650 -0.1104  0.0797
15213W        W34747  15.879  12.055  12.209 -0.0649  0.0790  0.1805
15214W        W34748  15.550   8.527  13.472  0.3555 -0.2542  0.0468
15215W        W34749  14.755   7.599  13.803 -0.1953 -0.0206  0.0377
15216W        W34750  17.338  12.521  16.370 -0.3625  0.0480 -0.1122
15217W        W34751   5.687   4.932  13.721 -0.4480 -0.1230 -0.2913
15218W        W34752   2.958  11.382   2.278  0.0605 -0.3212 -0.0347
15219W        W34753   5.253   1.604  12.137 -0.0952 -0.1673 -0.3166
15220W        W34754   3.895   9.083  14.485  0.2484 -0.2182  0.2039
15221W        W34755   8.952   4.505  13.489  0.2165 -0.0022  0.0491
15222W        W34756   2.562   5.787   0.867 -0.1235 -0.2153  0.0726
15223W        W34757   8.207  13.523   4.775 -0.1129  0.1765 -0.0702
15224W        W34758  10.360   0.865   1.886 -0.0330  0.3217  0.0199
15225W        W34759   9.874  14.626   4.736 -0.0421 -0.1837  0.0325
15226W        W34760   6.473   4.548  12.902  0.0902 -0.5280 -0.0985
15227W        W34761  13.494  10.663   2.058  0.3077  0.3884 -0.0175
15228W        W34762   6.818   7.521  14.853 -0.1332 -0.3128  0.1393
15229W        W34763  10.608  10.422  16.159 -0.2419 -0.0375 -0.0807
15230W        W34764   9.740   0.732   1.728 -0.0916  0.0092  0.0981
15231W        W34765   2.886   6.416  12.424  0.0608 -0.0130  0.1333
15232W        W34766   2.300   5.432  16.244  0.2069 -0.0288  0.3470
15233W        W34767  17.065   1.954   6.038 -0.1458 -0.2299  0.2774
15234W        W34768   2.163   0.603  16.642 -0.0581 -0.1989 -0.1186
15235W        W34769  11.071   5.590   0.333 -0.1551  0.0063  0.2108
15236W        W34770   9.621   3.166  12.200  0.1180 -0.0722 -0.1474
15237W        W34771   5.128  14.100   1.152  0.0896  0.0079  0.0643
15238W        W34772   2.217  10.094  13.185  0.5468  0.0802 -0.0564
15239W        W34773  12.431  10.409  14.461  0.1818  0.1779  0.2010
15240W        W34774   5.297   5.524   4.966 -0.0413  0.0326 -0.1089
15241W        W34775   3.986  12.910  12.465  0.1709 -0.2360  0.1477
15242W        W34776   0.764   8.321   1.201  0.2035 -0.1360  0.0675
15243W        W34777  16.826  14.386   4.339 -0.0382 -0.0298 -0.1291
15244W        W34778   0.142  16.982  11.889  0.3478  0.1013  0.1733
15245W        W34779  14.138  14.725   0.803  0.0059 -0.1866 -0.2886
15246W        W34780   7.525   6.304   0.052  0.1172  0.3471 -0.0927
15247W        W34781   3.231   2.791   3.961 -0.1319 -0.0877  0.5006
15248W        W34782   9.801  17.650  14.294 -0.0165  0.1143  0.0109
15249W        W34783  11.407  15.385  13.844 -0.3159 -0.0532 -0.0295
15250W        W34784  17.425  14.648   4.340  0.1184  0.1067  0.0239
15251W        W34785  14.761   6.298  11.682  0.1042 -0.1071  0.1560
15252W        W34786  13.551   3.690  12.424  0.3849  0.0802  0.0724
15253W        W34787   1.440   1.973   3.505  0.1112 -0.0628  0.2356
15254W        W34788  17.844  17.078   4.527 -0.2445  0.2252  0.0393
15255W        W34789   9.300   6.980  13.945 -0.1227 -0.1679 -0.1700
15256W        W34790  13.912   4.846  13.721  0.0321 -0.1077  0.2268
15257W        W34791  16.654   2.473  14.177  0.1697  0.3704 -0.2785
15258W        W34792   8.912   5.556  12.268 -0.2861 -0.1069 -0.0265
15259W        W34793   8.112   5.193  15.228  0.4597 -0.0242 -0.3018
15260W        W34794   1.296  15.464  12.016 -0.1824 -0.2678 -0.3721
15261W        W34795   3.121   7.999   4.457 -0.3323  0.1085  0.0367
15262W        W34796   7.293  13.333   4.202 -0.0730  0.0638  0.2019
15263W        W34797   9.954   6.679  16.243  0.3867  0.0144  0.3204
15264W        W34798  12.296   7.384   2.963  0.0702 -0.1375  0.0923
15265W        W34799   4.597  16.896  12.905  0.4217 -0.0633  0.1335
15266W        W34800  15.037   1.809   1.264 -0.0159 -0.0463 -0.0884
15267W        W34801  15.418   0.684  15.026  0.1862 -0.0363  0.0320
15268W        W34802  16.120  11.205  15.905 -0.1369 -0.0762  0.3538
15269W        W34803   1.896   8.087  16.590  0.0707  0.0086 -0.0141
15270W        W34804   3.526   7.190   0.232 -0.2491 -0.0669  0.0735
15271W        W34805  11.594  11.761   4.820 -0.1974 -0.1924 -0.0773
15272W        W34806  12.329   6.635   2.587  0.1185  0.0792 -0.1516
15273W        W34807   0.789   4.309  12.847 -0.2437 -0.3098 -0.3104
15274W        W34808   7.236   9.219  15.270 -0.2162 -0.1790 -0.2270
15275W        W34809   1.217  17.339   0.253  0.1473  0.1770 -0.1200
15276W        W34810  16.100  16.774  15.439  0.0539 -0.1955 -0.0363
15277W        W34811   7.069   1.945  13.190 -0.1477 -0.0819 -0.0664
15278W        W34812  11.994   5.402  11.933  0.2247  0.0045  0.0600
15279W        W34813  10.555   1.580  13.737 -0.0478 -0.2749  0.0224
15280W        W34814  10.989   2.171   3.603 -0.1770 -0.0117  0.0122
15281W        W34815  10.026  12.904  11.908  0.0687 -0.2968 -0.0900
15282W        W34816   4.335   8.778  13.940 -0.1017 -0.2380 -0.1373
15283W        W34817   7.290   8.933   3.308  0.0062 -0.0986  0.3386
15284W        W34818   2.719  14.703   2.997 -0.2354  0.3105  0.0302
15285W        W34819  12.941   9.949   1.487 -0.4515  0.1216 -0.1038
15286W        W34820   5.467   2.871  16.295 -0.0686 -0.2342  0.2571
15287W        W34821   7.185   2.658  12.210  0.1309  0.0087 -0.1173
15288W        W34822  16.721   4.656  16.047  0.0541  0.0425  0.4611
15289W        W34823   3.904  15.031   3.688 -0.0906  0.2114  0.5550
15290W        W34824   8.957  17.785   3.441  0.1771  0.1366 -0.0832
15291W        W34825   8.396  15.980  15.781 -0.3751  0.0479  0.1478
15292W        W34826   8.659   8.319   0.618 -0.1523 -0.1633 -0.1683
15293W        W34827  14.265  10.217   3.638 -0.1811  0.0808 -0.1421
15294W        W34828  16.353   2.290   3.413  0.0439 -0.2280  0.3531
15295W        W34829  12.420   1.496  16.258  0.0563 -0.1513 -0.0893
15296W        W34830   6.240   9.838  15.241  0.0477  0.0364  0.0872
15297W        W34831  16.524  14.846   3.131 -0.2010  0.3071  0.0204
15298W        W34832  17.877  14.003  12.155 -0.1030  0.0230 -0.2110
15299W        W34833  15.255   8.539  15.477  0.3857  0.2663 -0.0373
15300W        W34834   2.871   4.319   2.725  0.0740  0.2191  0.0101
15301W        W34835   0.086   0.647   4.590  0.1368  0.0000  0.2350
15302W        W34836  11.699   9.406   3.894 -0.1355 -0.3037  0.0805
15303W        W34837   2.870  16.733   0.843 -0.0185  0.0360  0.1671
15304W        W34838  13.190   5.282   2.629 -0.0573 -0.2218 -0.0497
15305W        W34839   9.932   3.405   2.280 -0.1618  0.4236  0.0249
15306W        W34840   4.276  10.117   1.580 -0.1264 -0.0193  0.1942
15307W        W34841   7.527  16.351   2.384  0.1384 -0.2034 -0.0517
15308W        W34842   6.412   6.607  15.200 -0.0766 -0.0734  0.0545
15309W        W34843   0.187   8.229   2.659 -0.0611  0.3370  0.3003
15310W        W34844  16.067   7.686  15.750 -0.0654  0.1183 -0.2748
15311W        W34845   5.280  12.066  16.463 -0.3669 -0.0738 -0.0119
15312W        W34846   2.291   0.172  12.560 -0.3787  0.0452  0.0408
15313W        W34847   2.853  15.453   2.528  0.0625  0.2646  0.2767
15314W        W34848   7.298  10.315  15.993 -0.0423 -0.0074  0.1028
15315W        W34849  16.750  16.034   3.962  0.1163  0.0671  0.0074
15316W        W34850   4.412   9.290  13.023 -0.0430 -0.2352 -0.1129
15317W        W34851  15.240  15.184  13.711  0.1446  0.3223  0.0000
15318W        W34852   1.289  12.613  13.666  0.1619  0.0550  0.1024
15319W        W34853  17.028  11.201   3.253 -0.5310 -0.1502  0.1372
15320W        W34854   4.247   3.372  11.672 -0.0337 -0.3924 -0.1889
15321W        W34855   8.353   1.297   4.837 -0.1000 -0.1358 -0.4465
15322W        W34856   4.118  16.310   4.213  0.0256  0.1190 -0.4925
15323W        W34857   4.695   9.626  13.884  0.1277 -0.0257 -0.0029
15324W        W34858  13.799   7.622   3.316  0.3034 -0.1071  0.0228
15325W        W34859   6.598   2.774   0.908 -0.0677  0.0208  0.4505
15326W        W34860   0.257   3.439   0.291  0.1271 -0.2024 -0.2487
15327W        W34861   5.250  13.479  14.963 -0.0697  0.0168 -0.0693
15328W        W34862   0.652  16.371   1.808 -0.0768 -0.2302 -0.2038
15329W        W34863   7.419   7.729   2.395  0.0990 -0.0189 -0.4084
15330W        W34864   0.305   0.108  14.509 -0.1070  0.1967  0.1125
15331W        W34865   5.026   1.628  15.901 -0.5165  0.1323  0.4265
15332W        W34866   9.421  15.052  12.207  0.0782  0.2520 -0.2269
15333W        W34867  13.722   2.535  12.309 -0.2365  0.0280 -0.1864
15334W        W34868   1.522   5.687  12.547  0.0724  0.2438 -0.0913
15335W        W34869  17.452   2.787   3.631  0.3583 -0.1006  0.0045
15336W        W34870  10.559  12.818   0.434 -0.2261 -0.0484  0.1315
15337W        W34871   1.111   0.243  12.981 -0.0384  0.1464  0.2678
15338W        W34872   1.976   9.746   4.534  0.1776 -0.2660 -0.1545
15339W        W34873  15.169   7.248  11.730 -0.0698  0.0429 -0.0533
15340W        W34874   7.587  17.359  13.027  0.0817 -0.0174  0.1607
15341W        W34875   3.794  14.260   0.687 -0.3713 -0.2391 -0.2355
15342W        W34876   2.950   5.371   4.797  0.0938 -0.1580 -0.2401
15343W        W34877  11.087   1.417  15.690 -0.0650  0.0958  0.1659
15344W        W34878   3.614  14.961   4.477  0.2391 -0.0116 -0.1895
15345W        W34879   8.586   0.570  13.091 -0.2502  0.0481 -0.0780
15346W        W34880   4.422   2.669  14.267  0.1373 -0.0071 -0.2439
15347W        W34881   8.769  12.511   3.276  0.1647  0.0069 -0.0858
15348W        W34882   6.506  12.303  13.498 -0.0138  0.1908 -0.2853
15349W        W34883  14.315   5.414  14.599  0.0405  0.3322 -0.2022
15350W        W34884   3.660  14.909   0.651 -0.1776 -0.0356  0.1212
15351W        W34885  12.292  12.514   0.345  0.2594  0.2284 -0.1458
15352W        W34886   1.942   5.350   0.298  0.0088 -0.0961 -0.0589
15353W        W34887  10.344   5.895  15.958 -0.0784  0.1812 -0.0755
15354W        W34888   7.781   1.615   2.588 -0.2483  0.0062  0.2617
15355W        W34889   8.010   6.909  14.349  0.2966 -0.0769  0.3039
15356W        W34890  16.088   6.655   0.210  0.2594  0.0285 -0.4540
15357W        W34891   4.388  17.533  14.456 -0.1104 -0.1562  0.0331
15358W        W34892  12.226   6.347  14.409  0.3018  0.0471 -0.1910
15359W        W34893  15.005  10.888  14.953  0.1702  0.2963 -0.1463
15360W        W34894  11.221  10.229   0.178 -0.2793  0.0015 -0.2326
15361W        W34895  10.688   9.066   1.361 -0.0155 -0.0105  0.2392
15362W        W34896  12.138   2.884  16.453 -0.0881 -0.0250  0.0862
15363W        W34897   3.675  11.423  15.395 -0.0906 -0.1334 -0.0449
15364W        W34898   3.335  13.735   0.095 -0.0835 -0.3255  0.1989
15365W        W34899   4.532  11.089   4.589 -0.0047  0.1812  0.3854
15366W        W34900   3.584   6.657   1.418 -0.4037 -0.2120  0.2088
15367W        W34901   3.118  11.839  12.600 -0.1153  0.2762 -0.2666
15368W        W34902   2.873   3.181   5.483 -0.0987 -0.2834  0.4091
15369W        W34903   9.666   3.636  14.427 -0.2693 -0.0649 -0.2627
15370W        W34904   5.481  16.747  14.019 -0.1696 -0.2036 -0.0079
15371W        W34905  12.260   0.724   4.490 -0.2716 -0.1995  0.2687
15372W        W34906   9.729   6.444   1.881  0.2382  0.0931 -0.0886
15373W        W34907  16.608  14.873  13.434 -0.0047 -0.1977 -0.1917
15374W        W34908   6.857  10.480  14.200  0.2425 -0.0912  0.1223
15375W        W34909  11.532   9.063  13.442  0.2726 -0.1097  0.1362
15376W        W34910   3.671  16.026  15.845  0.0381  0.3165 -0.2220
15377W        W34911  11.385   2.380  14.357  0.1675  0.2124  0.1223
15378W        W34912   7.284  15.590  13.065  0.0054 -0.1154  0.0563
15379W        W34913  16.160  16.468  15.868  0.0842 -0.0631 -0.1061
15380W        W34914   8.773  15.064  15.285  0.0978 -0.1368  0.0086
15381W        W34915   3.368  13.554  14.803  0.0562 -0.1803  0.1134
15382W        W34916  10.410   4.688  15.452 -0.1383  0.1650 -0.0845
15383W        W34917   3.170  11.847  14.303  0.1673 -0.1259 -0.1181
15384W        W34918   5.244  17.138  16.495 -0.0658  0.1107 -0.0596
15385W        W34919  12.625  11.551  16.312  0.0619  0.0407 -0.2425
15386W        W34920  17.223   9.369   3.804  0.0595 -0.2090  0.2089
15387W        W34921   4.844  12.465  13.198  0.3407  0.3420 -0.0937
15388W        W34922   5.154  10.124   3.751  0.1334 -0.1424 -0.4683
15389W        W34923   1.578   9.298   3.331  0.3097  0.1078  0.1109
15390W        W34924  10.677  15.801  16.496  0.2834 -0.1266  0.1369
15391W        W34925   0.455   0.961  14.956 -0.3483  0.2371 -0.1412
15392W        W34926   1.408   5.270   2.029 -0.0238 -0.1028 -0.2111
15393W        W34927  15.006  16.502   1.968 -0.0768  0.0746  0.1024
15394W        W34928   2.487   6.530   0.879 -0.0820 -0.0616 -0.3028
15395W        W34929   3.958  10.745   1.240  0.1167 -0.2191  0.3077
15396W        W34930   6.315   2.418  16.219 -0.0811 -0.0798 -0.2065
15397W        W34931   4.604  11.408   2.354  0.5820 -0.2311 -0.2049
15398W        W34932  16.289   4.441   3.286 -0.2271  0.0022  0.2170
15399W        W34933   6.605  16.332   0.301 -0.3171  0.1306 -0.1339
15400W        W34934   7.754  10.872  12.690  0.0336 -0.2204 -0.0628
15401W        W34935  13.367   8.562   2.845 -0.1333  0.0709 -0.3285
15402W        W34936  16.093  14.384  14.695  0.1475  0.0457 -0.1132
15403W        W34937  15.081  15.319  14.663  0.0267 -0.1911 -0.0600
15404W        W34938   6.588   5.310   5.337  0.0869  0.1970  0.0018
15405W        W34939   5.814  16.295   0.251 -0.2037 -0.1500  0.1986
15406W        W34940   8.039  10.173   2.972  0.0028 -0.4856 -0.1265
15407W        W34941  10.013   0.807  13.593 -0.0865 -0.2033 -0.1937
15408W        W34942   4.227   4.825   0.506  0.0515  0.1207 -0.0252
15409W        W34943   3.779  16.438  14.963 -0.4469 -0.0702  0.4097
15410W        W34944   6.876  12.611   1.211 -0.1782  0.2035 -0.0241
15411W        W34945  11.957   8.606  12.571  0.1670  0.0123  0.1285
15412W        W34946   9.439  11.275   5.275 -0.2028  0.1947  0.0467
15413W        W34947  15.743   1.716   3.017 -0.0489 -0.1644 -0.1267
15414W        W34948   0.876   5.414  12.012 -0.0333  0.0162 -0.0576
15415W        W34949  13.595  13.243  13.890  0.0625 -0.0332  0.2843
15416W        W34950  10.924  11.155   1.758  0.0422 -0.1645 -0.0007
15417W        W34951   5.923   5.517   4.859  0.2453 -0.3413  0.0722
15418W        W34952   3.734   8.984   3.973 -0.0442 -0.1220  0.0705
15419W        W34953  16.049   8.735   0.516 -0.2571 -0.0943  0.2435
15420W        W34954   2.466   5.975   4.350  0.2017  0.0478 -0.2570
15421W        W34955   0.635  12.395   4.023  0.1695  0.0557  0.1401
15422W        W34956  13.976  11.625  14.051 -0.1983  0.1600 -0.0335
15423W        W34957   0.970   2.507  16.190  0.1379  0.1106  0.2232
15424W        W34958   1.999  11.270   1.012  0.2675 -0.1656  0.0214
15425W        W34959  11.658   8.120  11.930  0.1378 -0.1530  0.0738
15426W        W34960   3.835   6.569  16.348  0.2502  0.1886  0.0361
15427W        W34961  13.849   7.375   4.340  0.3367  0.2971 -0.0378
15428W        W34962  14.699  14.082   2.958 -0.0724  0.3263  0.0327
15429W        W34963   4.768   0.908   4.563  0.0420 -0.2547 -0.0241
15430W        W34964   7.461   5.172   2.091 -0.0389  0.0132  0.4877
15431W        W34965   9.673   3.400  12.696 -0.3209  0.0892  0.3222
15432W        W34966  14.163   8.044   1.832  0.3497  0.1520  0.0434
15433W        W34967   4.410   2.401  15.209 -0.1025  0.0413  0.2645
15434W        W34968   3.870   6.983  12.752  0.0577 -0.0368 -0.2225
15435W        W34969   9.506   6.254  13.388 -0.4083  0.1790 -0.2216
15436W        W34970  15.484  16.032   5.157  0.2079  0.0509  0.1012
15437W        W34971   7.936  11.914   3.369  0.0075 -0.1125  0.0717
15438W        W34972   8.113  13.872  15.186 -0.0654  0.1722  0.2776
15439W        W34973  11.353   4.630  13.206 -0.4853 -0.0230  0.0769
15440W        W34974   6.176  15.439   0.435  0.1553 -0.2773  0.3212
15441W        W34975  17.220  12.521   4.450 -0.2128  0.0476 -0.0627
15442W        W34976  11.466   4.095  13.975 -0.0522  0.1055 -0.2480
15443W        W34977   4.255  10.647   4.255  0.0553 -0.1401  0.0875
15444W        W34978   1.999  15.805  16.426  0.1308 -0.0916 -0.0034
15445W        W34979   7.724   9.116   3.756  0.3255  0.0635  0.1141
15446W        W34980   1.963  16.017  13.897 -0.1326 -0.1931 -0.0216
15447W        W34981   5.888  15.240   0.920  0.1084  0.2901  0.1725
15448W        W34982  15.638  17.659  14.195  0.3720 -0.0282 -0.1311
15449W        W34983  15.662   1.442  12.574  0.1677  0.0797  0.0777
15450W        W34984   4.669   3.646   0.523  0.0560 -0.0446  0.0227
15451W        W34985   8.600   1.914  15.495 -0.0906  0.1318 -0.0726
15452W        W34986   9.160  15.740  13.269  0.1998  0.2432  0.3972
15453W        W34987  14.251   5.299  16.708 -0.3904 -0.0650  0.1696
15454W        W34988  10.561  10.291  12.435  0.0865 -0.3369 -0.0323
15455W        W34989  15.884   7.049   3.999  0.2143 -0.2543  0.3950
15456W        W34990  16.114   0.006  15.594  0.0166  0.1713  0.0507
15457W        W34991   7.085  14.949  13.311  0.1363 -0.1519 -0.2571
15458W        W34992  10.393  17.028  15.753  0.1101 -0.0148 -0.0300
15459W        W34993   5.483  11.696  12.869 -0.0235  0.1869 -0.2885
15460W        W34994   6.829   6.396  12.486  0.1013 -0.2057 -0.1372
15461W        W34995  10.722   2.416  12.740 -0.1308  0.1875 -0.1630
15462W        W34996  16.438   9.296   0.770 -0.1081  0.0338 -0.1457
15463W        W34997  10.809  12.668  14.742 -0.0030 -0.5682  0.2789
15464W        W34998   9.253   2.205   5.283  0.0094  0.0858  0.0695
15465W        W34999   4.383  11.572   1.310 -0.1939  0.0086  0.0493
15466W        W35000  14.848  17.586   2.675 -0.0550 -0.4464  0.2041
15467W        W35001   5.646   4.163   3.846 -0.1994  0.2899  0.1063
15468W        W35002   3.636  12.972  16.369  0.0411  0.0796 -0.0145
15469W        W35003   5.527   0.263  13.500 -0.0833  0.0923  0.0614
15470W        W35004   3.272   8.124   5.072  0.0778  0.1034 -0.0630
15471W        W35005  15.729   0.961   0.548 -0.0590  0.1469  0.0917
15472W        W35006  16.284   4.284  16.137  0.0922 -0.1422  0.2724
15473W        W35007  12.390   5.440   1.613  0.0001  0.1054 -0.3505
15474W        W35008   8.255   9.177  14.397  0.2908 -0.2066  0.0969
15475W        W35009   7.871   3.005   5.286  0.1014  0.3032  0.1619
15476W        W35010   8.337  10.470   2.385 -0.2893 -0.1245 -0.0773
15477W        W35011   5.136  16.433   0.718  0.0180 -0.4254  0.2166
15478W        W35012  10.947  17.589  15.485 -0.0995  0.0434 -0.0971
15479W        W35013  11.483   5.240   2.014  0.0224 -0.0662 -0.1432
15480W        W35014   5.148  13.238  12.246 -0.0735 -0.1085 -0.0802
15481W        W35015   5.411   8.587  13.316 -0.1434 -0.5256 -0.1657
15482W        W35016   1.902  10.575   0.928 -0.1058 -0.1306 -0.1160
15483W        W35017  16.148   4.635   1.156  0.0449  0.3293 -0.0090
15484W        W35018  16.041   7.270  12.731 -0.3175 -0.0986  0.1601
15485W        W35019   6.572   7.671   1.940  0.2167 -0.1545  0.1229
15486W        W35020   0.628  12.865  15.367 -0.0032  0.0729  0.1376
15487W        W35021  10.633   6.632   4.869  0.0139  0.1394 -0.0187
15488W        W35022   5.097   5.475  14.811  0.0175 -0.1259 -0.2374
15489W        W35023   4.509   3.256   0.815 -0.1063  0.1562  0.1490
15490W        W35024  14.772  14.977  12.021  0.1513  0.0019 -0.0335
15491W        W35025  15.428   0.517   3.882 -0.0353 -0.3392  0.1874
15492W        W35026  16.733   7.420  13.555  0.1890 -0.0314  0.1409
15493W        W35027  15.731  12.853  11.957  0.1079 -0.1339  0.0985
15494W        W35028  15.482  16.634   3.612  0.3121 -0.2349  0.3090
15495W        W35029   8.582   3.961   0.045 -0.0338  0.2458  0.1153
15496W        W35030  14.626  11.960   0.786 -0.1306 -0.5168 -0.0609
15497W        W35031  11.578   1.718   0.546 -0.1620  0.0371 -0.0730
15498W        W35032  16.770  12.859   2.020 -0.0263 -0.0301 -0.1526
15499W        W35033  15.861  17.364  13.887  0.0448 -0.2348  0.1487
15500W        W35034   1.630  15.404   0.695  0.2326  0.2676 -0.0607
15501W        W35035  10.557   9.857   3.051  0.0495  0.2426 -0.3054
15502W        W35036   9.524  13.817  12.217 -0.0536 -0.0780  0.1184
15503W        W35037  16.378   2.245  11.733  0.1840  0.2541  0.0253
15504W        W35038   3.645   8.780  12.201 -0.1660 -0.2406  0.1278
15505W        W35039   0.638   6.286   4.094  0.2559  0.1081  0.4559
15506W        W35040  11.501  17.640  12.935 -0.1646 -0.1017 -0.0105
15507W        W35041   2.934  14.448   3.365 -0.0917  0.2074 -0.0736
15508W        W35042  15.352   3.266  13.311 -0.0030  0.0128 -0.1239
15509W        W35043   9.000   6.273   0.681  0.3258 -0.0700 -0.2577
15510W        W35044   3.541  13.246  15.903  0.1305  0.2496 -0.0479
15511W        W35045  13.530  17.040  15.792 -0.3773  0.0253  0.1748
15512W        W35046   9.652  13.299   5.002  0.0179  0.1168  0.1682
15513W        W35047   2.046   6.731  15.371  0.4200 -0.4216 -0.3017
15514W        W35048  10.120  15.033   4.137  0.0669  0.0885 -0.3486
15515W        W35049   7.670   9.564   1.256  0.2956 -0.1070  0.3506
15516W        W35050  16.174   0.428  15.302  0.0820 -0.3505  0.1427
15517W        W35051   6.847  16.269   4.554  0.2876  0.0001  0.1348
15518W        W35052  17.907  13.014  13.865  0.0364  0.3262 -0.0514
15519W        W35053  17.762   5.113   4.086 -0.2171  0.0230 -0.2565
15520W        W35054  14.116  17.435   0.604 -0.3199  0.1733 -0.2058
15521W        W35055   9.149   5.885  13.536  0.1614  0.2202  0.2268
15522W        W35056   6.652   6.208   2.932  0.1096  0.0224  0.2702
15523W        W35057   2.618   2.562  14.016 -0.1800 -0.1607  0.0174
15524W        W35058  16.515   2.759  15.514  0.0158  0.0503  0.0437
15525W        W35059   2.165   1.433   0.547  0.2551  0.2042  0.0994
15526W        W35060  14.941  10.195  12.265 -0.0038  0.2344  0.0359
15527W        W35061   4.979   4.492  12.120  0.2133  0.0066 -0.0572
15528W        W35062  17.837   1.178   3.004 -0.0446  0.1279  0.0317
15529W        W35063  14.432  10.218   2.569 -0.2266 -0.3155 -0.1966
15530W        W35064   6.923   3.416   5.325  0.0153  0.1133 -0.2411
15531W        W35065  10.487  17.125   2.247  0.0543  0.3319 -0.0249
15532W        W35066   7.240   6.103  15.541  0.1883  0.1812 -0.0983
15533W        W35067   8.322   1.091  13.540  0.2026 -0.0095  0.1618
15534W        W35068   9.367  13.027  14.633 -0.0275 -0.0160  0.2123
15535W        W35069  11.957   4.428   0.028 -0.1833  0.0425 -0.0568
15536W        W35070  11.014   3.600  14.670  0.0128  0.0402 -0.1785
15537W        W35071   1.610   4.941   0.522 -0.0152  0.2241 -0.2442
15538W        W35072  15.720   1.699  13.649  0.0597  0.1067  0.0622
15539W        W35073   4.434   1.396  14.639 -0.0841 -0.0442 -0.3809
15540W        W35074   2.909  14.978  13.547 -0.2354 -0.2533 -0.3548
15541W        W35075   4.446  15.230   2.270  0.0183  0.2061  0.0575
15542W        W35076  15.861   8.437   0.119 -0.0372 -0.0870  0.2732
15543W        W35077   0.967   6.606   1.874 -0.0884  0.2143 -0.2886
15544W        W35078  16.522  16.494  16.703 -0.1220 -0.3227  0.1667
15545W        W35079  16.691   4.437  11.815 -0.2797 -0.0787  0.0213
15546W        W35080   2.291   5.004   2.960 -0.4368  0.0814  0.0567
15547W        W35081   8.875   7.890   1.308  0.1734  0.0826 -0.0596
15548W        W35082  14.590   9.226   2.454  0.3434  0.0216  0.0319
15549W        W35083  15.802  11.644   1.529 -0.0143  0.1079 -0.1112
15550W        W35084  12.013  10.158   2.651  0.0727 -0.1364  0.3591
15551W        W35085   7.115  15.187   3.809 -0.2648 -0.0293  0.1010
15552W        W35086   7.357   0.651   2.665 -0.2840  0.5006 -0.0563
15553W        W35087  12.072  15.295   4.025  0.1319  0.1697 -0.0362
15554W        W35088   8.320  11.292   4.238 -0.0031  0.4337 -0.1617
15555W        W35089   9.107   4.683   0.299  0.0717  0.1022  0.1234
15556W        W35090   3.913   0.242   2.510 -0.0898 -0.2852  0.2865
15557W        W35091  15.206   1.324   1.212  0.0379  0.0544 -0.1321
15558W        W35092   6.882  11.248  16.381 -0.0697 -0.1488  0.0689
15559W        W35093   0.011  12.886   1.633  0.2136 -0.0796  0.0989
15560W        W35094  15.040  11.923   3.911 -0.0100 -0.0941 -0.0271
15561W        W35095   8.501   6.928  12.131  0.4671 -0.0994 -0.0516
15562W        W35096   6.754  14.118   1.275 -0.2153  0.0053 -0.0377
15563W        W35097   0.188  12.237  16.729 -0.0970 -0.0763  0.1982
15564W        W35098  13.998  14.221  14.635 -0.3387 -0.0182  0.1132
15565W        W35099   8.630  10.336   1.926 -0.0646 -0.0940  0.1550
15566W        W35100  13.381   7.767   2.300  0.1019  0.0945  0.1580
15567W        W35101   2.160   7.631  14.499  0.5178  0.1821 -0.1677
15568W        W35102   5.974   8.078  11.740 -0.2009  0.0345 -0.1573
15569W        W35103  12.284  12.203  15.936  0.0775  0.1713 -0.3623
15570W        W35104   7.637  13.908  14.009  0.1940  0.0350  0.0600
15571W        W35105  11.746   2.467   0.960  0.1140  0.0200  0.2837
15572W        W35106   7.109   5.623  12.012  0.5086  0.2573  0.1520
15573W        W35107   1.802   7.274  15.238  0.5505  0.1277 -0.2073
15574W        W35108   7.613   7.325   1.383 -0.2131  0.0402 -0.1670
15575W        W35109   7.173   3.145   2.550  0.0934 -0.3793  0.2068
15576W        W35110  16.037   6.087   2.804  0.2103 -0.1235 -0.1579
15577W        W35111   3.811  13.873   3.044 -0.0820 -0.1862  0.1132
15578W        W35112  13.113   2.458  16.236 -0.0462  0.0042 -0.2061
15579W        W35113  17.116  15.386   2.681  0.0752 -0.2170 -0.1808
15580W        W35114  17.544   8.150  13.392  0.0291  0.2849 -0.0289
15581W        W35115   2.758  16.858   1.818 -0.4912  0.2760 -0.1917
15582W        W35116  13.984   8.668   4.627 -0.0638 -0.1448 -0.1625
15583W        W35117  17.284   7.941   1.292 -0.1918  0.4319 -0.2770
15584W        W35118   6.517  11.372   3.478  0.3189 -0.2550 -0.0669
15585W        W35119  13.136   2.166  14.045 -0.1402  0.5186 -0.1329
15586W        W35120  11.266   3.570   3.984  0.2249 -0.0944  0.0959
15587W        W35121   0.879   4.288  14.226 -0.0891  0.0707 -0.2763
15588W        W35122   9.049   2.872  16.385 -0.0303 -0.1314 -0.1245
15589W        W35123   3.605   3.417   5.203 -0.1202 -0.0190 -0.0272
15590W        W35124   3.145  15.924   2.403  0.0389  0.2167  0.0383
15591W        W35125  10.440   6.430  13.188  0.0331 -0.1261 -0.2658
15592W        W35126   2.494   1.697  14.767  0.4497 -0.1857 -0.2364
15593W        W35127   5.851  10.342  14.384 -0.3334 -0.3925  0.2811
15594W        W35128  15.464   3.373  12.271 -0.4176  0.3374  0.1176
15595W        W35129   3.488  12.147   3.842 -0.2044 -0.1285  0.0844
15596W        W35130   8.434   5.491  12.365  0.0873 -0.1451  0.1804
15597W        W35131   2.878  13.490   4.999 -0.1029 -0.0739  0.1745
15598W        W35132  17.221  12.578   2.381 -0.0686  0.2100 -0.1894
15599W        W35133  16.321  11.433   1.522  0.3276  0.0018  0.0481
15600W        W35134   8.236  10.152  12.323 -0.2558 -0.2228 -0.0876
15601W        W35135  14.982   8.374   0.366  0.2765 -0.3321  0.1578
15602W        W35136   7.118  16.017   1.173 -0.0178 -0.0040 -0.2143
15603W        W35137   8.029   8.807  13.002 -0.1475  0.0515 -0.3739
15604W        W35138  10.503   9.243  16.162  0.1850 -0.3207  0.1572
15605W        W35139  11.450   5.312  16.701  0.1684 -0.0280 -0.0190
15606W        W35140   3.491  11.977   4.404  0.0902  0.0394  0.1529
15607W        W35141   4.421   7.999   4.654  0.0749  0.0304  0.1376
15608W        W35142   9.074   6.139   4.626  0.1681 -0.1446 -0.1186
15609W        W35143   5.032   0.931   1.279 -0.1950  0.1034  0.0005
15610W        W35144   9.076   7.321  15.360 -0.2573 -0.0385  0.3986
15611W        W35145  12.945  12.370  12.902 -0.1602 -0.0727 -0.1188
15612W        W35146   2.651  15.960  14.463  0.2206 -0.0270  0.0857
15613W        W35147   4.815   3.308   1.842 -0.1351  0.2366  0.2423
15614W        W35148   6.452   9.598   0.627  0.0055 -0.0484  0.1670
15615W        W35149   5.408   7.783  15.915 -0.2459  0.0780 -0.4943
15616W        W35150  15.560   8.639  15.818 -0.0745 -0.3467 -0.1174
15617W        W35151   9.050   6.471   1.612 -0.4143 -0.3948 -0.0345
15618W        W35152   0.986   9.000  15.876  0.1673  0.2178  0.1303
15619W        W35153   9.642  12.297  14.999 -0.0832 -0.3684  0.1542
15620W        W35154  13.277  17.043   0.969 -0.1104  0.4391  0.0294
15621W        W35155  10.790   3.087  12.119 -0.2379  0.2558 -0.1996
15622W        W35156  10.334  17.582  15.794 -0.1838  0.1490  0.1068
15623W        W35157   6.116   8.976  14.821  0.1104  0.1429 -0.5331
15624W        W35158   8.563   6.391   1.827  0.1855  0.1491  0.1273
15625W        W35159   6.862   8.403  14.407 -0.0559  0.1150  0.1174
15626W        W35160  16.085   8.877  15.496 -0.1337 -0.0325 -0.0118
15627W        W35161  16.410  17.355   1.150 -0.0463 -0.0083  0.1011
15628W        W35162   5.288  13.324  12.750  0.3803  0.2696  0.1696
15629W        W35163   5.426  11.736   0.944 -0.0738 -0.2468 -0.1783
15630W        W35164   9.276   2.393   2.366  0.2566 -0.0694  0.1088
15631W        W35165   0.397  15.420   4.421  0.1724 -0.0089  0.2912
15632W        W35166   7.311  17.602  14.466 -0.1782  0.0452 -0.0174
15633W        W35167   0.843   6.276   3.540 -0.0074 -0.1364 -0.0533
15634W        W35168  16.319  16.867   3.511 -0.1246 -0.0613 -0.0631
15635W        W35169  16.199  10.910   1.423  0.1821  0.0050 -0.0519
15636W        W35170  11.410   4.343  14.529 -0.1640  0.0544 -0.0160
15637W        W35171   1.630  12.595   0.757  0.0964  0.2069 -0.0015
15638W        W35172   4.866  11.201  12.703 -0.0896 -0.1574 -0.3366
15639W        W35173   9.321   5.218   4.509  0.0057  0.2969 -0.0448
15640W        W35174  11.228   5.836  12.992 -0.0569 -0.0780 -0.0759
15641W        W35175  10.713   0.243   2.624 -0.1776 -0.0831 -0.1139
15642W        W35176  15.790   3.453  13.428  0.1213  0.0780  0.1116
15643W        W35177  16.268  10.722  14.707 -0.1784  0.0469  0.0793
15644W        W35178   3.903  17.097  14.612 -0.2604  0.0460  0.3666
15645W        W35179  13.067  12.542   3.039 -0.3499  0.2993  0.1633
15646W        W35180  14.373   3.189   1.376 -0.1896  0.2153  0.2644
15647W        W35181   0.216   3.407  11.936  0.1142  0.1334  0.2503
15648W        W35182   7.564   6.859   5.244  0.2601  0.0522 -0.3593
15649W        W35183   5.792   3.474   2.521  0.4962 -0.0257 -0.0596
15650W        W35184  10.557   3.338   4.330 -0.0420 -0.1537  0.3130
15651W        W35185   1.140   4.147   2.070  0.0359 -0.4596  0.4837
15652W        W35186  15.008  15.207   4.556  0.2684 -0.0040 -0.0528
15653W        W35187  13.201  13.368  12.907 -0.2667 -0.0229 -0.0776
15654W        W35188   8.571   2.913   4.111  0.2135 -0.1939 -0.0901
15655W        W35189   0.464   1.243   0.513  0.3915 -0.0653 -0.1992
15656W        W35190  14.302   9.483   0.233 -0.0752 -0.0745  0.2256
15657W        W35191   2.597   3.243  14.798 -0.0107  0.0582 -0.0609
15658W        W35192  10.720   5.380   0.542  0.1726 -0.0016 -0.1853
15659W        W35193   1.413   4.031   4.784  0.0885  0.0272  0.0031
15660W        W35194  17.230   7.099   0.556  0.4155  0.2242  0.2151
15661W        W35195  17.579   9.525  12.207  0.1467  0.1249 -0.0524
15662W        W35196  11.222  17.158   3.693  0.3121 -0.1538 -0.4488
15663W        W35197  17.637  11.887   1.388 -0.0623 -0.0560 -0.2242
15664W        W35198   5.957   4.348  14.603 -0.0907 -0.2505 -0.0399
15665W        W35199  13.473   5.417  13.743  0.3304  0.1767  0.2615
15666W        W35200   9.569  12.969   2.793  0.2305 -0.0383 -0.0576
15667W        W35201   0.061   9.351  12.550 -0.0817  0.2330 -0.0267
15668W        W35202   1.584   5.275   3.529 -0.2610  0.0691 -0.2580
15669W        W35203  16.574  16.091   0.822 -0.1073 -0.2036 -0.0806
15670W        W35204  16.101  17.060  12.596  0.1034  0.2390 -0.0625
15671W        W35205   4.812  14.056   0.669  0.1003  0.0913 -0.1483
15672W        W35206  17.507   4.960   3.715 -0.0084 -0.0836 -0.2420
15673W        W35207   0.903   3.541   1.714  0.1589 -0.1395  0.1658
15674W        W35208   8.363   3.808   2.664  0.0295  0.1593  0.2117
15675W        W35209   4.444  10.596   4.719  0.2978 -0.3931  0.1992
15676W        W35210  11.590   4.988  11.990  0.2736  0.0087 -0.1763
15677W        W35211   4.955  17.538  13.918  0.0617 -0.0498  0.0758
15678W        W35212  12.068  13.745  12.716  0.0906 -0.0981  0.1003
15679W        W35213   1.674  16.053  15.507 -0.0413  0.1534  0.0255
15680W        W35214  16.227  15.419  15.951  0.0312  0.1376  0.1071
15681W        W35215  13.772  10.810  16.317  0.0378  0.1199 -0.0796
15682W        W35216  14.680   9.636  16.720  0.3461 -0.0460  0.0946
15683W        W35217   1.014  15.390   2.989 -0.0368 -0.0936  0.5151
15684W        W35218  15.284  11.507   1.294  0.0308  0.0651  0.5333
15685W        W35219  11.543   9.563  16.527 -0.0140 -0.3709 -0.1719
15686W        W35220  17.669   4.052  14.931  0.3829 -0.0837 -0.0519
15687W        W35221  14.071   9.343  13.829  0.2815 -0.2266 -0.1044
15688W        W35222   9.571  14.926  16.628  0.1012  0.1279 -0.1041
15689W        W35223  16.094  14.285  13.895  0.4222 -0.3174 -0.0393
15690W        W35224  17.743  10.000  11.986 -0.2231  0.1632 -0.0246
15691W        W35225   0.729   3.162  12.232  0.1468 -0.0977  0.1151
15692W        W35226   9.823  13.819   4.504  0.1270 -0.0891 -0.0153
15693W        W35227   3.692   5.452  16.059 -0.3993  0.0835 -0.0294
15694W        W35228  12.974   2.733  14.850  0.1150 -0.0498 -0.0825
15695W        W35229   5.028  12.803   0.958 -0.0569 -0.2965  0.0018
15696W        W35230  11.371   7.389  13.089 -0.1160  0.2337  0.1091
15697W        W35231  13.884   8.768  15.486 -0.0610  0.1281 -0.0774
15698W        W35232   0.198   5.577   3.079 -0.3377  0.1520  0.0257
15699W        W35233   0.684  16.606   5.047  0.0286 -0.1264 -0.0023
15700W        W35234  15.829  13.642   4.338 -0.0512 -0.0150  0.3995
15701W        W35235  17.036  12.518  12.490  0.1241 -0.1051  0.0495
15702W        W35236  17.183   8.367  14.398  0.0741 -0.0316 -0.1507
15703W        W35237  10.948   7.919  12.516 -0.0549  0.1014 -0.1255
15704W        W35238  11.948   6.946   0.524  0.1518  0.0223  0.1649
15705W        W35239   1.412  15.083  16.104 -0.0489  0.0727  0.2151
15706W        W35240  15.766   4.495   4.573  0.3822 -0.1375 -0.0483
15707W        W35241   9.976   8.463  15.628 -0.0213 -0.1192  0.1317
15708W        W35242  17.676  13.411   4.164  0.4470  0.1774 -0.0743
15709W        W35243  13.263  16.833   2.245  0.3394 -0.1980  0.2516
15710W        W35244   5.202   4.024   5.125 -0.2234 -0.3843  0.3708
15711W        W35245   1.250  17.638   0.662  0.3752  0.1344 -0.2318
15712W        W35246  11.103   6.586   3.667  0.1204  0.0657 -0.0228
15713W        W35247   6.936  13.758  15.842 -0.0847  0.1630  0.3413
15714W        W35248   1.176   8.668  13.218  0.3040  0.2463  0.1975
15715W        W35249  14.435  13.469   3.632  0.3223  0.2796 -0.0056
15716W        W35250   7.819   9.729   0.817 -0.0445  0.0760 -0.1208
15717W        W35251   8.036   0.643   5.860  0.3386  0.1650 -0.0291
15718W        W35252  13.265   6.957  16.314  0.1835 -0.1036 -0.2305
15719W        W35253  14.199   8.956   0.320  0.0063 -0.2801  0.0238
15720W        W35254   4.247  14.205   3.125  0.0778  0.0280 -0.0071
15721W        W35255   6.398   9.590  14.861  0.0182  0.1626 -0.0518
15722W        W35256   1.870   6.550  13.961  0.1285  0.2773 -0.0912
15723W        W35257   7.115   7.051  11.756  0.1407 -0.1106 -0.1944
15724W        W35258   8.570   8.649   1.482  0.1291 -0.1239 -0.0750
15725W        W35259  10.271   9.600   4.031  0.0701 -0.2335 -0.0595
15726W        W35260   8.658  14.687   3.378  0.0115  0.1429 -0.2394
15727W        W35261  10.943  12.726  14.198  0.0312  0.1712 -0.1270
15728W        W35262   0.812   8.467  14.263  0.1381 -0.0904 -0.1416
15729W        W35263   4.527   9.894  16.258  0.0283 -0.0742 -0.0974
15730W        W35264  15.495   3.350  11.775 -0.1856  0.2749 -0.1231
15731W        W35265   7.122   8.157  14.031 -0.3806 -0.1234 -0.3161
15732W        W35266  11.007  14.243   1.456  0.0810 -0.0487  0.1770
15733W        W35267  11.500   3.961   2.254 -0.1990 -0.0561  0.1727
15734W        W35268   5.309  10.385   0.884 -0.2597 -0.1288  0.0151
15735W        W35269   6.653  11.674  16.668 -0.0473 -0.0552 -0.0142
15736W        W35270   4.674   1.412  16.169 -0.2949  0.0724 -0.0479
15737W        W35271   4.708  12.435   3.605 -0.2210 -0.0089  0.0391
15738W        W35272   2.860  11.506   1.282 -0.3491 -0.1791  0.2848
15739W        W35273   6.872   0.175   3.706 -0.0735 -0.1539  0.2361
15740W        W35274   9.534  16.650   0.276 -0.1055 -0.1303 -0.0062
15741W        W35275  11.622  15.116  16.107  0.1322 -0.1167 -0.0891
15742W        W35276   9.042  11.018  16.722  0.3188  0.3091 -0.2319
15743W        W35277   3.761   1.604  12.965  0.3109 -0.0179  0.0581
15744W        W35278   1.086   1.704  15.279 -0.0504 -0.1685  0.3455
15745W        W35279   9.202   0.208   2.050 -0.2336  0.1525  0.1904
15746W        W35280   9.565  11.360   1.541  0.0571 -0.1958 -0.2060
15747W        W35281   5.689   8.960  11.685  0.2479 -0.1581 -0.0478
15748W        W35282   3.958   0.887  12.510 -0.1435  0.0609 -0.2527
15749W        W35283  11.640  17.705  11.901  0.0138  0.3367 -0.1132
15750W        W35284   3.021   4.402   0.906  0.0607 -0.5896  0.0154
15751W        W35285   1.618   8.106   1.824 -0.3235 -0.0798 -0.0430
15752W        W35286   7.205   5.634   2.151  0.1347 -0.0301 -0.3317
15753W        W35287  13.818  11.240  13.755 -0.3303 -0.0377 -0.2512
15754W        W35288  17.148   3.598   0.766 -0.2557  0.1496 -0.0807
15755W        W35289  10.062   5.693  12.304 -0.0746 -0.1390  0.2188
15756W        W35290   0.580  17.808  15.606 -0.1245 -0.4142  0.0912
15757W        W35291  13.215  12.985  14.957  0.3545  0.3878 -0.0576
15758W        W35292  12.852   3.120   3.157 -0.2500 -0.2336  0.0238
15759W        W35293   2.713  10.239   1.588  0.2306  0.2690 -0.5261
15760W        W35294  15.892  11.778  15.394  0.0547  0.0161 -0.1807
15761W        W35295   6.078  10.321  15.036 -0.1872 -0.0767  0.2424
15762W        W35296  10.866  12.448   1.200 -0.0270  0.4359 -0.2828
15763W        W35297  17.111   4.767  12.064 -0.0554 -0.0378 -0.2680
15764W        W35298  15.584   1.392   1.494 -0.3070  0.0637 -0.2046
15765W        W35299   4.721   1.495  16.685 -0.0521  0.3909 -0.3730
15766W        W35300   4.454  11.970   3.572 -0.2199  0.4520  0.1235
15767W        W35301   9.638  16.434   4.740 -0.2654  0.0335 -0.0054
15768W        W35302  12.671  13.456   0.672  0.0647 -0.1193  0.1611
15769W        W35303   3.203  16.853  15.487 -0.1221  0.1022 -0.0198
15770W        W35304  14.549  14.615   1.044  0.0800  0.6152 -0.0835
15771W        W35305  10.083  10.585   1.484  0.0810  0.3225 -0.1963
15772W        W35306   9.971   5.683  16.261  0.0112 -0.1694 -0.2393
15773W        W35307  14.769  11.929  13.832  0.3055 -0.1402 -0.2020
15774W        W35308  12.633   3.622  12.971  0.3699  0.0884 -0.3156
15775W        W35309  15.327   0.219  16.400 -0.0437 -0.3228 -0.4089
15776W        W35310  11.043  12.611  12.577  0.1722  0.0794 -0.0878
15777W        W35311   7.137   3.089  16.317 -0.0157 -0.1209  0.1896
15778W        W35312   3.692   7.914  13.756  0.3360  0.0875  0.0561
15779W        W35313  11.983   1.474   1.334  0.0071 -0.0923 -0.2059
15780W        W35314   1.062   7.939  16.707 -0.0164 -0.0295  0.1713
15781W        W35315   4.704  13.662   3.736  0.0863 -0.0250 -0.0153
15782W        W35316  14.414   4.289   1.374  0.2185  0.1579  0.0318
15783W        W35317   8.126   1.917   3.125  0.1681 -0.3473  0.0395
15784W        W35318  10.673  16.779  12.646 -0.1182 -0.0129  0.1123
15785W        W35319   2.226  16.037  14.727  0.1140 -0.5394 -0.0229
15786W        W35320   8.304   2.972   0.250  0.0974  0.3369  0.2495
15787W        W35321  17.800   2.883   0.827  0.4665 -0.3836 -0.0914
15788W        W35322   4.951   8.875  12.069  0.3419  0.0259 -0.0485
15789W        W35323  17.534   9.360   0.560 -0.2026  0.3418 -0.1388
15790W        W35324  13.799   8.108  12.449  0.0420 -0.2333  0.0658
15791W        W35325   4.712  10.964   2.560 -0.1760  0.1377  0.0028
15792W        W35326   7.627  10.686   4.079  0.0481 -0.0953  0.0803
15793W        W35327   1.887  14.464   1.106  0.0879  0.4135 -0.1457
15794W        W35328  14.895   3.497   2.935  0.1393  0.4750 -0.0813
15795W        W35329   1.351  13.836  15.644 -0.3460 -0.0088  0.1067
15796W        W35330   9.003   3.333  11.975 -0.1983 -0.3946  0.1292
15797W        W35331  16.591   2.969   2.648  0.2090 -0.3200  0.0532
15798W        W35332   5.123  16.196   4.861  0.4250 -0.0261 -0.2647
15799W        W35333   3.679  11.829   2.262 -0.1776 -0.0118  0.1243
15800W        W35334  10.409   9.684  13.197 -0.1241 -0.2222 -0.2755
15801W        W35335  16.874  13.725  13.129  0.1684  0.1105  0.1435
15802W        W35336   2.872   7.786  11.797  0.0450 -0.0314 -0.0158
15803W        W35337  16.553  12.085   2.471  0.2644 -0.3459 -0.2323
15804W        W35338   2.093  10.132  15.075 -0.0024  0.1965  0.0267
15805W        W35339   6.696   9.982  13.463  0.1460  0.0583 -0.4016
15806W        W35340   1.348  17.656  12.162 -0.4190 -0.0418  0.2365
15807W        W35341  12.497   0.199   1.295 -0.1105 -0.0890  0.3191
15808W        W35342   4.466  15.507   0.100  0.3850  0.0794  0.0146
15809W        W35343   5.157   3.044  13.526  0.1446 -0.1782 -0.1263
15810W        W35344  10.478  10.032  11.873  0.1162 -0.1288 -0.4477
15811W        W35345  15.137   1.565   1.676 -0.2742 -0.1028  0.0019
15812W        W35346   4.160  17.336   2.537 -0.0211  0.2126 -0.2924
15813W        W35347   9.496  13.652   0.472 -0.1092  0.2094  0.1274
15814W        W35348   0.677  11.695  11.880  0.0874 -0.3107  0.1591
15815W        W35349  11.979  12.245  13.883 -0.1816  0.1828 -0.1715
15816W        W35350   8.282   8.579   4.774 -0.1142 -0.0513 -0.1423
15817W        W35351  14.420  11.699   4.768  0.2024 -0.6335 -0.4684
15818W        W35352   8.658   3.719  11.665  0.1348 -0.2018 -0.0469
15819W        W35353   1.127  15.294  14.957  0.5065  0.0581  0.3582
15820W        W35354   8.551   8.148   2.850  0.1256  0.1812  0.3906
15821W        W35355  17.084  15.679   5.137  0.1547  0.2075 -0.0151
15822W        W35356  16.650  10.570   3.897  0.1009  0.0346  0.2932
15823W        W35357   4.321  10.678  16.733  0.1479 -0.1985  0.0284
15824W        W35358   5.830   3.257   3.798  0.0075 -0.0478 -0.0114
15825W        W35359   6.645   3.205   0.630 -0.2147  0.0732 -0.0070
15826W        W35360  11.977   8.538   2.378  0.1110  0.3353 -0.1283
15827W        W35361   8.424  14.833  12.842  0.1335 -0.1176 -0.1706
15828W        W35362  11.309  13.459  14.515 -0.1210 -0.1495  0.2928
15829W        W35363  15.166   3.413   0.372  0.1415 -0.1661  0.1041
15830W        W35364   9.423  11.866   1.543  0.0528 -0.0003  0.0808
15831W        W35365   5.157  16.138  13.500 -0.1375  0.0717 -0.2470
15832W        W35366  17.779   1.815  15.944  0.0071 -0.0258  0.2391
15833W        W35367   0.047   6.794   3.449  0.1072 -0.0493 -0.1624
15834W        W35368   6.541  13.284   4.324  0.0461 -0.0539 -0.1877
15835W        W35369   5.362  12.116   4.183  0.0903  0.0196  0.0235
15836W        W35370   1.970  12.541   2.120  0.0225 -0.0887  0.0455
15837W        W35371  11.300   7.850  15.888 -0.1616 -0.1215 -0.2484
15838W        W35372   7.460   5.505  13.933  0.0477  0.1886  0.3251
15839W        W35373   9.546   2.376  13.406 -0.0769 -0.3789  0.1208
15840W        W35374  10.198   8.604   3.382 -0.4005  0.1119  0.0904
15841W        W35375   6.155   6.079  16.155  0.0484 -0.3657 -0.0088
15842W        W35376   0.745   9.962  14.533 -0.0116  0.0381  0.4810
15843W        W35377   6.004  16.309  13.968 -0.1890  0.3851  0.0854
15844W        W35378   3.439   1.257   3.274  0.3234 -0.2581 -0.2124
15845W        W35379  15.377  17.155   4.607 -0.0928  0.0060  0.0752
15846W        W35380   8.162   6.336   4.147 -0.2686  0.0310  0.1074
15847W        W35381  10.839  12.470  15.535  0.0028 -0.1706  0.0849
15848W        W35382  17.702  11.463  16.227  0.2644  0.1120  0.0302
15849W        W35383  13.518  12.568  15.091  0.1913  0.2126 -0.2354
15850W        W35384   4.555   3.305  14.306  0.0177  0.0691 -0.4214
15851W        W35385  12.473   5.188  12.903 -0.0597  0.0159  0.0741
15852W        W35386   4.905   9.129   2.568  0.1000  0.1663  0.1448
15853W        W35387   3.281   2.221  12.378 -0.1038  0.0941  0.1321
15854W        W35388   1.853  14.643   4.667 -0.0662  0.1945 -0.1058
15855W        W35389   6.945   3.874   3.741 -0.0566 -0.0574 -0.1367
15856W        W35390  16.644   3.007   5.837  0.0269  0.2233  0.1351
15857W        W35391   4.774  17.548  16.594  0.2231  0.0883 -0.1074
15858W        W35392   1.909  11.372   4.994  0.1706  0.1239 -0.0703
15859W        W35393  12.172  15.095  13.142  0.1669 -0.4462  0.0125
15860W        W35394   4.249   6.976   4.900  0.1056  0.1163  0.0200
15861W        W35395   8.444  15.218  11.995  0.0509 -0.2210 -0.0236
15862W        W35396  13.054   7.140  13.666  0.1839  0.0550 -0.0376
15863W        W35397  16.374  17.810  13.933 -0.1151 -0.1102 -0.2074
15864W        W35398   3.161  10.031  15.211  0.3738  0.2059  0.0162
15865W        W35399   5.433  11.207  14.547  0.2466 -0.2496  0.2116
15866W        W35400   8.972   5.905  16.657  0.1302 -0.2283 -0.1455
15867W        W35401   7.169  16.644  14.821  0.0468 -0.4321  0.1982
15868W        W35402   8.808  11.210  14.970 -0.1654 -0.0018  0.1360
15869W        W35403   7.673  10.069  13.586 -0.0505  0.2376  0.1406
15870W        W35404   3.298  10.232  16.468  0.3174  0.2867  0.3775
15871W        W35405  10.929   2.061  15.961  0.0498  0.0712  0.1764
15872W        W35406  11.807   7.705   1.549 -0.0744 -0.0693  0.1116
15873W        W35407  17.330  14.375   0.433  0.1385 -0.0280  0.0697
15874W        W35408   0.480   9.991   0.811 -0.0126  0.0001 -0.0920
15875W        W35409  17.363  11.198  13.876 -0.4036  0.1626 -0.0526
15876W        W35410   4.711  16.225  14.142 -0.0226  0.1156  0.1539
15877W        W35411  16.962  15.687   4.229  0.1671  0.0323 -0.1872
15878W        W35412   9.053   1.985  14.089  0.0594  0.1293  0.0293
15879W        W35413   4.922   9.076   0.991  0.2665 -0.2360 -0.0528
15880W        W35414   8.718  17.732   2.186 -0.0099 -0.0957 -0.3150
15881W        W35415   9.261  11.167  15.123  0.0853 -0.1067 -0.1115
15882W        W35416   2.634   3.029   2.800 -0.0936 -0.0243  0.1186
15883W        W35417   8.145   5.656  12.758 -0.1796  0.2252  0.0038
15884W        W35418   4.212   3.207  16.702 -0.2827  0.1566 -0.0934
15885W        W35419  16.004   1.468   4.929  0.2948  0.2423  0.3055
15886W        W35420   9.862  12.523   2.896  0.1127  0.2792  0.1666
15887W        W35421  13.546   7.762  13.358  0.2285  0.0537 -0.0385
15888W        W35422   9.621   0.865   3.633  0.2655  0.1357 -0.0395
15889W        W35423   0.359   7.878  14.199  0.3167  0.0738  0.0330
15890W        W35424   8.787  11.340   4.102 -0.2689  0.0066  0.0801
15891W        W35425   2.495  14.854   0.344 -0.1070 -0.0692  0.0058
15892W        W35426  12.849  11.383  15.862 -0.1459 -0.0796  0.0119
15893W        W35427  13.549  10.207  13.542  0.1250  0.1015 -0.0499
15894W        W35428  14.429  12.098   1.370 -0.0479 -0.2795  0.1022
15895W        W35429  10.360  16.117  16.094 -0.4609  0.2065 -0.1748
15896W        W35430   2.751  10.130   3.282  0.0927  0.2475  0.1664
15897W        W35431  15.284   9.890  12.170  0.1037 -0.1187  0.0014
15898W        W35432  10.667   2.046   0.153  0.2779  0.0755  0.1375
15899W        W35433   3.847   5.634   2.574 -0.0545  0.2015 -0.1639
15900W        W35434   3.229  15.400  15.150 -0.0721  0.1119 -0.1404
15901W        W35435  15.900  14.801  14.120 -0.0001 -0.0756 -0.0545
15902W        W35436  12.474   2.538   2.759 -0.0432 -0.1163  0.0576
15903W        W35437  13.663   1.578  16.488  0.0361  0.3029  0.1179
15904W        W35438  15.724   4.382   3.453 -0.2059  0.0588 -0.0662
15905W        W35439   0.979  13.908  13.643 -0.3203 -0.2147  0.0952
15906W        W35440   3.757  13.811   0.485  0.0144 -0.1774 -0.4498
15907W        W35441  17.445   5.536  13.581  0.2169  0.3412  0.0929
15908W        W35442   2.776  13.546  16.711  0.0647 -0.0872 -0.0943
15909W        W35443   3.543   6.467   2.473 -0.2112  0.0790  0.0995
15910W        W35444  12.516   7.601  14.224  0.2535 -0.1884  0.0880
15911W        W35445  17.051  17.056  13.347 -0.0276  0.0341 -0.2596
15912W        W35446   9.390   9.490  15.132  0.0138 -0.1790 -0.3890
15913W        W35447   3.448   2.107   2.330  0.2120  0.1917 -0.0187
15914W        W35448  14.294   0.647   1.817  0.2067  0.1249 -0.0938
15915W        W35449   7.195   2.515  16.731  0.1365 -0.2868 -0.1621
15916W        W35450   4.249   7.707  15.868 -0.1569 -0.0008 -0.0002
15917W        W35451   4.370   0.597   1.819  0.0941 -0.1951 -0.0145
15918W        W35452   7.116   8.774  12.325  0.2884 -0.0877 -0.0775
15919W        W35453   7.948  10.523  14.694 -0.1786  0.0104 -0.0931
15920W        W35454   5.243   1.961   4.759  0.0025  0.1049  0.1615
15921W        W35455   7.507   3.656  12.350  0.0441  0.3728 -0.4060
15922W        W35456  16.118   6.121   2.275  0.2957 -0.2715  0.0121
15923W        W35457   5.532  14.102  13.436  0.0083  0.0963  0.2835
15924W        W35458   8.608   5.843   5.421  0.0662 -0.2179 -0.0470
15925W        W35459   5.072  14.846   4.644 -0.1145  0.1267 -0.4430
15926W        W35460   6.947  17.476  14.845 -0.1724  0.1030 -0.1350
15927W        W35461  13.474   8.808   1.850 -0.0045  0.0504  0.1610
15928W        W35462  12.463  11.183   4.555  0.3413 -0.0035 -0.2963
15929W        W35463  15.817  12.229  15.728  0.1547 -0.1201 -0.0052
15930W        W35464   9.913  13.301   3.589  0.0763 -0.0720  0.0300
15931W        W35465  12.771   4.437   2.835  0.2860 -0.5202  0.3457
15932W        W35466   2.133   8.203   3.595 -0.4575 -0.3004 -0.3681
15933W        W35467   3.197   3.145  14.314  0.1297 -0.2855 -0.2017
15934W        W35468  11.528   7.621  14.069  0.2022  0.1465  0.0013
15935W        W35469   5.432   8.156  13.006 -0.0915  0.3157  0.1008
15936W        W35470  14.448  16.102   2.359  0.3362  0.2684 -0.0650
15937W        W35471  15.058   8.571  15.959  0.0980 -0.0965  0.2063
15938W        W35472  10.142  15.105   0.569 -0.2977 -0.0042  0.4846
15939W        W35473  16.840  17.525   4.541 -0.0424 -0.1385 -0.0122
15940W        W35474  10.402   2.776   4.340 -0.1164  0.1533  0.0201
15941W        W35475  13.868  10.442   3.938 -0.2283  0.0463 -0.0079
15942W        W35476  12.682  16.358   1.860  0.1300  0.3123  0.1698
15943W        W35477  14.491   1.473   4.073 -0.0955 -0.0686  0.1235
15944W        W35478   8.888   4.375  16.006 -0.1393 -0.1817 -0.3205
15945W        W35479   2.008  12.653   1.117 -0.2285  0.3908 -0.2271
15946W        W35480   0.468  13.295   3.616 -0.0509  0.1610  0.3031
15947W        W35481   7.240  13.090  14.332 -0.1202 -0.0993 -0.1445
15948W        W35482  17.821  14.166   0.129  0.0343 -0.1919 -0.0083
15949W        W35483   3.700   2.120  12.752  0.0795 -0.0880 -0.2180
15950W        W35484   0.566   5.605  16.419  0.1293  0.1028  0.1965
15951W        W35485  13.371   6.264  16.462 -0.1794  0.2311 -0.2236
15952W        W35486   9.094   6.888  15.047  0.1796  0.5676  0.0947
15953W        W35487  16.057  15.078   3.128  0.0930  0.1979 -0.0786
15954W        W35488  13.034   1.934  12.925  0.3812  0.0758  0.2166
15955W        W35489  14.364  13.954  16.575 -0.3558 -0.0777 -0.0462
15956W        W35490   4.605   8.033   0.318 -0.0170 -0.1428  0.1399
15957W        W35491  16.063  13.099  12.246 -0.0864  0.1648 -0.1370
15958W        W35492   9.830   8.724  14.021  0.0267  0.2192  0.2375
15959W        W35493   9.503  17.760   1.600  0.0030  0.1413  0.4800
15960W        W35494  15.086  10.635  12.559 -0.1782  0.3679 -0.0247
15961W        W35495   5.688   9.265   5.172 -0.4239 -0.0051 -0.1631
15962W        W35496   2.276   2.925  14.433  0.3132 -0.0960  0.3256
15963W        W35497   5.044   1.315  15.445  0.0331 -0.2059  0.0383
15964W        W35498   9.237  11.548   3.223  0.1374 -0.1571 -0.1131
15965W        W35499   6.543  10.625  15.607 -0.1707  0.3355 -0.1184
15966W        W35500   1.508   4.867  14.437  0.0265 -0.0325 -0.3452
15967W        W35501   6.482   0.951   4.932  0.3185 -0.0340  0.1528
15968W        W35502   1.214   7.688   3.334 -0.1377 -0.2600 -0.3977
15969W        W35503   4.196   3.941   0.307 -0.1052 -0.0223 -0.2979
15970W        W35504   5.733  15.532  15.077  0.0349 -0.1239 -0.2024
15971W        W35505  10.747   6.038  14.121 -0.0797  0.1710 -0.1833
15972W        W35506   3.988   5.529  15.609  0.0562  0.2164  0.0568
15973W        W35507   0.884   4.102  14.741 -0.1926  0.3032 -0.0460
15974W        W35508   7.732  11.494  13.943  0.0687 -0.1765 -0.0047
15975W        W35509   3.526  14.115  14.591  0.1573  0.0817  0.3543
15976W        W35510   1.157   0.182  14.961 -0.1330 -0.2832 -0.0120
15977W        W35511   8.296  15.807   3.188  0.1639  0.3562 -0.4305
15978W        W35512   9.641   4.006   0.982  0.0026 -0.0300  0.1506
15979W        W35513   1.299  11.133   0.540 -0.2277 -0.0324 -0.1740
15980W        W35514  14.818   1.622  12.383 -0.2799  0.4041 -0.2133
15981W        W35515   3.472   7.975  15.346  0.2217 -0.0872 -0.2653
15982W        W35516  16.375   6.329  13.193 -0.0322 -0.0857 -0.1746
15983W        W35517   4.141  13.267  14.304 -0.1676  0.0494 -0.0329
15984W        W35518  13.574   6.818   2.737  0.0374 -0.0711  0.0082
15985W        W35519   9.577   8.392  12.864 -0.1750 -0.2275  0.0267
15986W        W35520  12.073   3.453   1.665 -0.0873  0.0036 -0.1506
15987W        W35521  16.787   7.190  15.435  0.1664 -0.0369  0.2177
15988W        W35522  15.229   5.076  13.202 -0.1670  0.0831  0.1408
15989W        W35523  13.017  11.753   2.518 -0.3722  0.1879 -0.0701
15990W        W35524   6.797  16.269   0.815  0.0187  0.3430  0.1501
15991W        W35525   1.591  17.868   1.942  0.2523 -0.1024 -0.2522
15992W        W35526  14.320  11.625   3.248  0.0890  0.3124  0.0966
15993W        W35527  17.834  15.547   0.344 -0.0884  0.5018  0.3893
15994W        W35528   0.984  13.038  11.989  0.0222 -0.0026  0.2265
15995W        W35529   3.203  10.165   1.837 -0.0227 -0.0028 -0.0610
15996W        W35530  14.318  11.311  13.626 -0.4227  0.0617 -0.1486
15997W        W35531   0.494   6.607  16.258  0.0527 -0.1156 -0.0665
15998W        W35532   4.634  16.643  16.346 -0.1257  0.2964 -0.0034
15999W        W35533  11.675   3.299   1.456 -0.2199 -0.2742  0.2731
16000W        W35534   6.880  14.884   4.267 -0.1186 -0.1249  0.2515
16001W        W35535   9.267   3.479  12.354 -0.1574 -0.3067  0.2633
16002W        W35536  14.102   8.723  13.883 -0.3717 -0.2099  0.1066
16003W        W35537  10.534  11.015   2.686 -0.2405  0.0638  0.1509
16004W        W35538   3.669   5.371  13.598  0.1077 -0.1565 -0.0124
16005W        W35539   5.356   5.284  16.480 -0.2635  0.0573 -0.1722
16006W        W35540   9.240  17.219  14.839 -0.0088 -0.2584  0.0194
16007W        W35541   8.447  13.765   1.949 -0.2207 -0.0027  0.0640
16008W        W35542  13.192  10.003  13.820 -0.1846  0.1144  0.1370
16009W        W35543  13.497   7.507  15.352  0.0521 -0.0068 -0.0367
16010W        W35544   7.643   3.304   2.388  0.1613 -0.1795  0.2039
16011W        W35545   4.581  14.334   1.685 -0.1898  0.0136  0.0376
16012W        W35546   8.028   9.459   2.384 -0.0151  0.0139 -0.2667
16013W        W35547  15.113   4.814  14.631  0.0616  0.0754  0.0508
16014W        W35548   5.600  14.285   0.975  0.0973 -0.2461  0.0580
16015W        W35549  10.082   9.673  15.742 -0.1467 -0.2602  0.1819
16016W        W35550  17.412  16.765   2.299 -0.0251 -0.3621 -0.1593
16017W        W35551   2.865  16.232  11.771  0.0118  0.0456  0.1472
16018W        W35552   4.797   6.459  16.634 -0.2753  0.1737  0.0381
16019W        W35553  12.540   1.675  16.706 -0.6162 -0.2702 -0.2181
16020W        W35554   3.028   2.172   4.637  0.2569 -0.0964 -0.2224
16021W        W35555  12.835  14.828   3.143  0.0015 -0.2416  0.2357
16022W        W35556   4.138   3.785  14.060 -0.3120  0.3151  0.3443
16023W        W35557  10.519   5.859  15.300 -0.2328 -0.0580 -0.0392
16024W        W35558  13.586   1.684   2.031 -0.0428 -0.2649  0.1509
16025W        W35559   5.744  16.262   4.123  0.1393 -0.0624  0.2309
16026W        W35560  10.131   4.157  15.632  0.1515  0.1242  0.0381
16027W        W35561  16.789  13.621   3.113  0.3723  0.2213  0.1662
16028W        W35562   4.091  15.811  15.989 -0.2506  0.1239 -0.3112
16029W        W35563   7.069   0.092  15.781  0.0308  0.1192  0.0606
16030W        W35564  17.639   3.961  16.327  0.0348 -0.1445 -0.0767
16031W        W35565  10.311  17.787   0.860 -0.0183 -0.2774  0.0663
16032W        W35566  10.327  15.616   0.697 -0.1218  0.1529  0.1941
16033W        W35567   8.985   6.544   4.333  0.2612 -0.0614  0.0154
16034W        W35568   2.728   0.308   4.523 -0.3488 -0.0593  0.0952
16035W        W35569  12.780   1.972  15.527  0.0042  0.0581  0.0073
16036W        W35570  14.316  11.797  13.584  0.0334  0.0161  0.1417
16037W        W35571   5.031   4.540  16.602 -0.1102  0.2351  0.1561
16038W        W35572   6.020  15.078  14.263  0.1409 -0.0009 -0.2550
16039W        W35573   9.775   3.785   1.496  0.2093 -0.0926  0.1538
16040W        W35574   8.286   6.665  12.590  0.1202  0.4124 -0.1657
16041W        W35575   8.941   4.966   2.756  0.1796  0.0434 -0.1310
16042W        W35576  16.217   0.701  12.730  0.0897 -0.2081  0.3128
16043W        W35577   0.934  12.496   2.599  0.4071 -0.3850 -0.2241
16044W        W35578  15.529  12.213   0.088  0.2725 -0.1695  0.0189
16045W        W35579   1.804  12.909   3.078 -0.3289  0.2660 -0.1616
16046W        W35580   3.830  11.820  16.466  0.0031  0.2109  0.3263
16047W        W35581  14.631   1.159   3.109 -0.2551  0.0003 -0.0392
16048W        W35582  12.879  14.328  15.539 -0.2453 -0.1330  0.0391
16049W        W35583  13.368  12.279   4.314  0.2220 -0.0058  0.0288
16050W        W35584  16.429   1.686  13.690 -0.1802 -0.1910 -0.1355
16051W        W35585   4.876  16.182   1.289  0.1460 -0.0540 -0.0528
16052W        W35586   6.474   4.286   4.932  0.2754  0.3769  0.2249
16053W        W35587   6.840  14.245  12.007 -0.0209 -0.4872 -0.1332
16054W        W35588  15.115   4.335  14.437  0.1514  0.2565  0.1205
16055W        W35589   8.491   6.975  14.514 -0.3358 -0.0833 -0.3974
16056W        W35590  14.902  14.693   3.308 -0.0665 -0.3774  0.2563
16057W        W35591   1.386   9.810  16.526  0.2014 -0.2697 -0.1227
16058W        W35592   8.434   7.729  11.679  0.1096  0.1482 -0.0783
16059W        W35593   8.865   2.817  11.732  0.2218 -0.0811  0.2040
16060W        W35594   4.038   6.382   0.771  0.3052 -0.1806  0.0087
16061W        W35595  12.951  11.611   0.421 -0.1298 -0.1961 -0.0315
16062W        W35596   3.742  10.136   1.670  0.0962  0.0127  0.1592
16063W        W35597  14.142   1.454   1.474 -0.0545 -0.1248  0.0823
16064W        W35598  11.690   0.342  16.047 -0.1589 -0.2767  0.1244
16065W        W35599  10.127  14.573  12.261 -0.0261 -0.1215 -0.3262
16066W        W35600  10.066   6.114   1.609  0.3594 -0.1784 -0.0734
16067W        W35601   6.180   5.806   4.524 -0.1077  0.1731  0.3614
16068W        W35602  16.322  11.294   0.647  0.0581 -0.1663 -0.0623
16069W        W35603   3.154  12.865  13.473 -0.0035 -0.2124 -0.0483
16070W        W35604   9.494  14.036  16.323 -0.1113  0.2250 -0.4010
16071W        W35605   3.943   3.403   4.240 -0.0281 -0.0778  0.0111
16072W        W35606   9.120   0.773   2.952 -0.2198  0.0512  0.4166
16073W        W35607  16.739   4.432   0.313 -0.1724 -0.3508 -0.0715
16074W        W35608  11.430   1.018   3.247 -0.3205 -0.1160 -0.0298
16075W        W35609  15.826  16.767   0.842 -0.0942 -0.1821 -0.1161
16076W        W35610  16.995   2.001   0.983  0.2308  0.0866 -0.0529
16077W        W35611  12.706   6.236   0.973 -0.0508  0.1641  0.0318
16078W        W35612  15.527  15.082  14.363 -0.3181 -0.0416 -0.2487
16079W        W35613   1.040  10.148  16.727 -0.1019 -0.2306 -0.1840
16080W        W35614   6.373   4.754   4.011 -0.2504 -0.0744 -0.1534
16081W        W35615   5.422  14.878   0.219  0.0376 -0.1236 -0.0668
16082W        W35616   3.357  12.643   4.848 -0.0670 -0.0143 -0.1421
16083W        W35617  15.547  12.111  15.245 -0.1617 -0.0099  0.1942
16084W        W35618   3.827   1.315   4.198 -0.0733 -0.0519  0.0428
16085W        W35619   3.962   1.161  15.577 -0.2213 -0.3398 -0.0816
16086W        W35620   7.674   3.811   6.416 -0.1108 -0.0462  0.3890
16087W        W35621   6.390   5.542   0.259 -0.1538  0.0700 -0.0941
16088W        W35622  14.194  16.310  13.258  0.0821 -0.0603  0.1192
16089W        W35623  16.727  14.249  13.264 -0.1670 -0.2169  0.2931
16090W        W35624   9.825  15.510   0.714  0.3329 -0.0844  0.1925
16091W        W35625   9.334   8.843   4.508  0.3968 -0.1067  0.2521
16092W        W35626  13.515  16.255  12.154  0.1982  0.1091  0.1082
16093W        W35627  11.232   7.933   0.350  0.0528  0.1764  0.0544
16094W        W35628   7.006   5.068  13.703 -0.3106 -0.0486 -0.1085
16095W        W35629   3.364  13.980   3.317 -0.0609 -0.0893 -0.0942
16096W        W35630   5.193  11.668   4.000  0.3465 -0.3559  0.1335
16097W        W35631   7.473   5.171  12.055 -0.1509  0.1144  0.3545
16098W        W35632   3.038  17.765  16.467 -0.0196  0.1708  0.0907
16099W        W35633   2.918  10.982  14.130 -0.0885  0.1192  0.2559
16100W        W35634   2.017   6.609   0.718  0.1698 -0.1821 -0.0605
16101W        W35635   7.162   8.201   1.342  0.1564  0.3301 -0.2604
16102W        W35636   5.893   7.489  12.224 -0.1515  0.2091 -0.0695
16103W        W35637  15.304   4.047   1.012  0.0079  0.0152 -0.2260
16104W        W35638  10.697   6.275  16.248  0.0745  0.0592 -0.0827
16105W        W35639   6.369   7.587  12.191  0.0415 -0.0124 -0.1440
16106W        W35640   9.896   4.711   0.509  0.1412  0.1306  0.1342
16107W        W35641  16.272  12.979   5.860  0.2858  0.0319  0.0671
16108W        W35642   9.413   0.550  13.881  0.0334 -0.0152  0.0459
16109W        W35643   0.376  14.101   0.298  0.2605  0.0234 -0.1483
16110W        W35644  17.714  13.637   1.415  0.2567 -0.2374  0.1735
16111W        W35645   7.585  17.328  13.519  0.0343 -0.5130  0.1192
16112W        W35646  12.581   9.200   2.384 -0.0066  0.0242 -0.0484
16113W        W35647   0.221   6.194   0.015  0.0972 -0.1863  0.0087
16114W        W35648   0.766   9.090  13.621  0.3413 -0.0535  0.0914
16115W        W35649   9.287  17.157   4.543 -0.0401  0.1115  0.3525
16116W        W35650  13.969   5.295  15.789  0.1898 -0.2520  0.2676
16117W        W35651  13.812   8.125   0.493  0.1930  0.1310 -0.3165
16118W        W35652  16.415   8.906   1.983 -0.3790  0.1037 -0.0124
16119W        W35653  15.227  14.156  11.679 -0.1621 -0.3073  0.1034
16120W        W35654   9.634   6.987  15.082 -0.1704 -0.0296 -0.2027
16121W        W35655  17.429   7.020   2.126 -0.0359  0.1434  0.0047
16122W        W35656   3.549   4.874   4.102  0.0432 -0.0198 -0.0419
16123W        W35657   9.866  13.523  12.404 -0.1334 -0.0323 -0.2227
16124W        W35658   4.069   4.436   3.587 -0.3358 -0.0769 -0.1782
16125W        W35659  16.740   7.647   2.516 -0.2795 -0.2476  0.1079
16126W        W35660   7.449   5.794   4.047 -0.2675 -0.1784  0.1835
16127W        W35661   1.352   2.385   3.219 -0.1782 -0.0215  0.0296
16128W        W35662   4.482   5.366   4.084  0.1497 -0.1902  0.0893
16129W        W35663  16.164   9.787  11.738 -0.1826 -0.0689 -0.0765
16130W        W35664   2.668   4.747   0.654 -0.2119 -0.0023 -0.0468
16131W        W35665  10.771  14.197   2.993  0.2275  0.2156  0.0218
16132W        W35666   1.321  12.621  12.498 -0.0661  0.1183 -0.1860
16133W        W35667  13.784  13.506  15.805  0.2425  0.1597 -0.0147
16134W        W35668   2.944   1.095   4.101 -0.3844 -0.4097  0.0216
16135W        W35669  17.176   4.160  12.985 -0.0921  0.1444  0.0700
16136W        W35670   0.360   3.404  12.989 -0.1364  0.1162 -0.0047
16137W        W35671   1.542   6.678   3.458 -0.1114  0.4432 -0.1117
16138W        W35672   8.741  15.063   1.284  0.0588 -0.3027  0.1708
16139W        W35673   1.447   4.702   4.027  0.0632  0.0548 -0.1793
16140W        W35674   5.845   2.482   1.538  0.1317 -0.2875 -0.2344
16141W        W35675  14.083   1.757   2.559  0.1421  0.2530  0.0904
16142W        W35676   9.119   5.830   3.495  0.2245  0.2028 -0.0573
16143W        W35677  17.718   0.609   4.212  0.0261  0.3060  0.3602
16144W        W35678  11.760   3.630   0.106  0.0252  0.0108  0.0152
16145W        W35679  12.976   0.881   1.959  0.1055  0.1932  0.0244
16146W        W35680  17.637  13.022  13.029  0.2042 -0.0129 -0.2209
16147W        W35681  14.525   1.412   3.551  0.1663  0.2531 -0.2497
16148W        W35682  10.313  12.092  13.983 -0.2692 -0.2182 -0.1934
16149W        W35683  13.675   2.915   2.032 -0.0773  0.1011  0.1188
16150W        W35684  10.410   1.748   2.694 -0.0007  0.2537 -0.0012
16151W        W35685   6.641   9.827   1.085  0.0947 -0.2122  0.0891
16152W        W35686  13.642  15.216  13.389 -0.0108  0.1526  0.1115
16153W        W35687   2.473   5.617   2.346 -0.2159 -0.1058 -0.1264
16154W        W35688   2.263   4.911  16.696  0.0753  0.1580  0.0057
16155W        W35689   0.439   0.601  14.582  0.0322 -0.3173 -0.1998
16156W        W35690  12.512  17.667   3.676  0.0228 -0.4201  0.1507
16157W        W35691   1.186   2.024  13.086 -0.0837  0.0505  0.1434
16158W        W35692   4.122   7.290   0.489 -0.1960  0.0335 -0.2920
16159W        W35693   5.824   5.890  14.767 -0.0142 -0.3359  0.0007
16160W        W35694  10.090  16.395   1.046  0.3128  0.2473  0.1841
16161W        W35695  17.872  17.907  12.102  0.3997  0.4150 -0.1416
16162W        W35696  17.146   7.161  15.113  0.1437 -0.1278  0.2385
16163W        W35697   1.029   5.975  15.463 -0.0314 -0.1995  0.2612
16164W        W35698   1.539   8.469   4.447  0.2695  0.1721 -0.1734
16165W        W35699   7.452   7.582   0.485  0.0868  0.2160 -0.1367
16166W        W35700   3.817   7.661   0.417 -0.1518 -0.0542  0.3833
16167W        W35701  16.770   2.815   0.246  0.0177 -0.0973 -0.2146
16168W        W35702  14.811   9.597  14.351  0.1867 -0.0702  0.0950
16169W        W35703   7.843   9.604  13.513  0.1039 -0.0136 -0.2111
16170W        W35704   5.762  11.743  11.997 -0.1229 -0.0915  0.0651
16171W        W35705   8.900   5.933  16.017  0.0398  0.0225 -0.2743
16172W        W35706   2.176   0.667   1.511 -0.0627 -0.2883 -0.1595
16173W        W35707   2.683   0.366   0.439 -0.2439  0.0360 -0.0327
16174W        W35708   0.155   0.072  13.078 -0.0348 -0.0715  0.2737
16175W        W35709  13.918   4.419  12.855  0.0871 -0.2676 -0.3690
16176W        W35710  10.071   2.239   1.843 -0.2116  0.0957 -0.1049
16177W        W35711  12.835  14.793   2.358  0.1795  0.1272 -0.1973
16178W        W35712   6.348  10.781  14.230 -0.0857  0.1518 -0.1280
16179W        W35713   4.471  17.788  16.167  0.2017 -0.0969 -0.0807
16180W        W35714   3.508  11.728  11.873 -0.0996  0.2193  0.1510
16181W        W35715   3.471   7.639   4.510  0.1593  0.0661  0.1111
16182W        W35716   9.601   3.267   4.073 -0.2061 -0.0007  0.1482
16183W        W35717   7.480   6.693  13.659 -0.4025 -0.1075  0.3130
16184W        W35718   3.436   9.486   2.687  0.0013 -0.1011 -0.0412
16185W        W35719  11.149  17.468   0.236 -0.0567 -0.0865  0.0051
16186W        W35720   9.898   7.080  13.322  0.2627  0.1930  0.4223
16187W        W35721   8.213   0.307  15.391 -0.1748 -0.3080 -0.1422
16188W        W35722   8.273   2.974   4.564 -0.2344  0.1719 -0.1484
16189W        W35723  11.187  16.492  13.395 -0.0160  0.0555 -0.1221
16190W        W35724   6.781   8.207   2.033 -0.1221  0.3015 -0.1936
16191W        W35725  13.819  10.753   0.831 -0.0319 -0.1103  0.1075
16192W        W35726  10.359  15.925   4.340  0.0286  0.1018  0.0007
16193W        W35727  12.061   9.128   0.732  0.4035 -0.2788  0.2303
16194W        W35728   5.553  15.612  12.170  0.0480 -0.0993  0.0065
16195W        W35729   0.012   7.462   0.810  0.2406 -0.1070  0.0990
16196W        W35730  16.083  10.082  15.562  0.4623  0.2222  0.0214
16197W        W35731   8.811  11.812   3.344  0.1164  0.1386  0.0279
16198W        W35732  17.695   2.423   1.457  0.3718  0.0529 -0.0546
16199W        W35733   1.037  11.701   1.891 -0.0000 -0.0750 -0.1389
16200W        W35734   3.940  15.861   0.141  0.1257  0.0918  0.1161
16201W        W35735  13.515  15.075  14.524 -0.2020 -0.3658  0.1034
16202W        W35736  16.558  12.725  12.398 -0.1667  0.1630 -0.0318
16203W        W35737  10.530   8.797   4.672  0.3020 -0.0580  0.0790
16204W        W35738   4.469   9.335   2.326 -0.0429 -0.0738 -0.0495
16205W        W35739   2.019  11.219  16.383  0.1631 -0.1223  0.1020
16206W        W35740   3.220   8.130   0.845 -0.2171 -0.1850  0.2623
16207W        W35741  13.438  15.299  16.625  0.0026 -0.0787 -0.1239
16208W        W35742   3.763   6.857  15.106  0.2454 -0.0513  0.4058
16209W        W35743  10.959   3.759   4.966  0.2561  0.1094  0.0982
16210W        W35744   1.062   0.119   2.703 -0.3744  0.2610  0.0044
16211W        W35745  11.343  11.798   3.355 -0.0249 -0.1394  0.2148
16212W        W35746   5.189   4.924  11.875 -0.1090 -0.3111  0.1216
16213W        W35747   5.710  16.730   3.337 -0.3895 -0.0244  0.1900
16214W        W35748  15.780  16.382  12.255 -0.0225 -0.1688  0.0813
16215W        W35749   3.706   0.822  14.721 -0.1739 -0.2055  0.0651
16216W        W35750  10.872   6.187   3.936  0.1812 -0.0422 -0.2204
16217W        W35751   7.077  10.219  13.700 -0.2068  0.0334  0.2461
16218W        W35752  11.736  13.196   4.132 -0.1543  0.2126  0.1053
16219W        W35753  15.880   2.327  14.128 -0.0243  0.0101 -0.5611
16220W        W35754   7.794   9.341  13.012 -0.1392 -0.1233 -0.1321
16221W        W35755   0.284  16.124  14.341 -0.3373  0.1703 -0.4187
16222W        W35756  13.775   4.264   1.153  0.1076  0.1515 -0.1844
16223W        W35757   5.352  16.922   0.257 -0.3192 -0.0564  0.1738
16224W        W35758   3.117   7.079   0.565 -0.3780  0.0437 -0.0259
16225W        W35759  15.670   1.577  13.098  0.1973  0.1723 -0.0554
16226W        W35760   9.510   5.204  11.417  0.0146 -0.0677 -0.1711
16227W        W35761   2.864   3.116  16.300 -0.0878  0.2135 -0.1978
16228W        W35762  16.134   9.596   1.642 -0.2991 -0.2271 -0.0842
16229W        W35763  16.270  12.196  15.754 -0.0388 -0.1345 -0.3124
16230W        W35764  16.536  14.632   0.031  0.0944  0.3445 -0.3780
16231W        W35765   1.347   3.185  15.792 -0.3335  0.0609  0.1668
16232W        W35766  14.583   8.359  11.803 -0.2289  0.1519 -0.1021
16233W        W35767  10.846   3.145  14.466  0.0737 -0.2718  0.0157
16234W        W35768  16.005  17.356  15.455  0.3470 -0.3904 -0.1587
16235W        W35769  12.158  15.755  16.529  0.1573 -0.2254  0.1567
16236W        W35770   4.405  12.199   1.976  0.1783 -0.1576 -0.0648
16237W        W35771  10.503  12.820   1.414  0.1042  0.0039 -0.0641
16238W        W35772   5.982  15.688   1.818  0.3732 -0.1883  0.0845
16239W        W35773  17.086   0.744  13.974 -0.0556 -0.1104  0.0343
16240W        W35774   5.658  16.026   1.780  0.3857 -0.0203 -0.2129
16241W        W35775   2.051   1.349   1.430  0.1589 -0.0763 -0.1392
16242W        W35776  12.159  17.341  15.616  0.1166 -0.2672  0.1472
16243W        W35777  15.128  13.446  14.103  0.0133 -0.0401 -0.2695
16244W        W35778  13.719   0.965   3.238 -0.1914  0.0942 -0.1856
16245W        W35779   4.543   2.275  13.302 -0.0244  0.0959 -0.2493
16246W        W35780  17.404   9.564  14.263  0.0385 -0.1026 -0.1740
16247W        W35781   8.871  13.962   1.395  0.0802 -0.0691 -0.0460
16248W        W35782   5.499  14.973  15.130  0.2051 -0.3043  0.0098
16249W        W35783  15.902   6.824   4.484 -0.1967 -0.0903 -0.2779
16250W        W35784   2.683   2.587   4.601  0.2470  0.0251 -0.2401
16251W        W35785   8.248   3.438   4.783  0.0544 -0.4390  0.2139
16252W        W35786   4.736   6.384  12.719 -0.0802  0.2405  0.0819
16253W        W35787   0.924  12.978   1.513  0.1639 -0.2322  0.3238
16254W        W35788   1.585  15.970   3.213 -0.2814  0.0414  0.1639
16255W        W35789   4.069  16.414  16.512  0.1001  0.1953  0.1422
16256W        W35790  15.579   3.806   0.008  0.3367 -0.0102  0.2650
16257W        W35791  15.008  10.129   4.525 -0.2006  0.1820 -0.1514
16258W        W35792  17.704  16.282  14.346 -0.1407 -0.2562 -0.0465
16259W        W35793   9.937  11.517   2.324 -0.0464 -0.1359 -0.1408
16260W        W35794   2.308   3.527   5.773  0.1652 -0.1769 -0.0355
16261W        W35795   8.529   3.394   4.345 -0.1897 -0.0097  0.0349
16262W        W35796  10.725  12.070   2.519 -0.1114  0.1289 -0.1218
16263W        W35797   6.923   5.324   4.221 -0.0534  0.0455 -0.2818
16264W        W35798  13.703  16.661   4.830  0.0375 -0.0479  0.1032
16265W        W35799  12.461   3.222  15.439  0.3889  0.0281 -0.2042
16266W        W35800   9.097   4.675   1.286 -0.0172 -0.1127  0.2843
16267W        W35801  17.615   7.983  16.753 -0.0095  0.2409 -0.0135
16268W        W35802   9.713  16.988   2.851 -0.0662 -0.1846  0.0007
16269W        W35803  11.908  10.382  13.101  0.1037 -0.1071  0.0156
16270W        W35804  14.526   5.758   4.573 -0.1529 -0.1182 -0.0947
16271W        W35805   1.127   4.731   0.327  0.2373 -0.0975 -0.1062
16272W        W35806  16.850  15.351  12.532 -0.2328 -0.2501  0.2706
16273W        W35807   7.888  10.829   3.133 -0.0477 -0.1303 -0.1241
16274W        W35808  16.022  16.134   4.752 -0.2352 -0.1757  0.1247
16275W        W35809  15.602   4.450   1.933 -0.0670  0.1803 -0.0843
16276W        W35810   8.959  12.115  14.021  0.0731  0.0291 -0.1986
16277W        W35811   4.277   8.275  11.661  0.1402  0.0518 -0.2981
16278W        W35812   7.345  17.710   1.933 -0.0428  0.0267  0.0800
16279W        W35813  11.442  10.638  14.173 -0.0298  0.1182 -0.2906
16280W        W35814  10.644   5.485   5.129  0.0353  0.1411  0.3246
16281W        W35815   5.821  12.930   3.518  0.0360 -0.2028 -0.0957
16282W        W35816  10.047   2.689  14.722 -0.2158 -0.1752 -0.0243
16283W        W35817   9.428   6.346   3.670 -0.0141 -0.0304  0.2834
16284W        W35818   4.845   2.849   0.026  0.3086  0.0080  0.0560
16285W        W35819  10.308  11.105  15.749 -0.1728  0.1172  0.1440
16286W        W35820  16.422  11.653  16.521  0.3309 -0.2360  0.0336
16287W        W35821  13.187  16.315  14.729  0.1003  0.0494 -0.2278
16288W        W35822   0.726  17.345  15.432 -0.2429 -0.0109  0.3421
16289W        W35823   5.331   6.468  15.408  0.4757  0.0003 -0.0094
16290W        W35824  17.699  16.860   2.712  0.3171  0.1243  0.0378
16291W        W35825  13.462   3.080   3.745 -0.2454 -0.0016 -0.2828
16292W        W35826  10.776  16.849   2.652 -0.1691  0.2470 -0.1079
16293W        W35827  11.187  11.609   4.408  0.1384  0.0519 -0.0217
16294W        W35828   7.562   8.817   4.199 -0.3462  0.0471  0.1780
16295W        W35829   7.722  10.121  15.145  0.0514 -0.0299 -0.2480
16296W        W35830   6.053  13.787  13.126 -0.0159 -0.1457 -0.2177
16297W        W35831  10.304  16.897   3.161  0.1068 -0.3005  0.0080
16298W        W35832  16.637   1.111  12.814  0.1414 -0.0567  0.1675
16299W        W35833  15.320  17.330  14.567  0.1151 -0.0458 -0.1160
16300W        W35834   5.107   9.356  15.238  0.2586  0.3309 -0.0471
16301W        W35835  10.522   0.094   4.344 -0.0113 -0.2053  0.1079
16302W        W35836  13.974   7.808  15.569  0.2951 -0.0556 -0.1631
16303W        W35837   7.243   6.683  14.618  0.0287 -0.2911  0.0926
16304W        W35838   8.686  13.389   2.153 -0.1170  0.2768 -0.0057
16305W        W35839   0.530  12.462  12.653  0.2988  0.0688 -0.0190
16306W        W35840   3.034  10.782   0.883 -0.3900 -0.0273 -0.0199
16307W        W35841  10.927  13.085   1.422 -0.1788 -0.0404  0.0614
16308W        W35842   3.263   2.529  13.223  0.2556  0.1804 -0.1258
16309W        W35843   0.878   5.995   4.442  0.1404 -0.1418 -0.0811
16310W        W35844  10.146  15.632  16.286  0.0716  0.0697  0.2626
16311W        W35845  11.503   4.231  15.895  0.0313 -0.0148  0.0060
16312W        W35846   6.828  16.982  14.812 -0.1460  0.3372  0.0347
16313W        W35847   8.276   3.915  15.668  0.1832 -0.3393  0.3346
16314W        W35848   9.986   5.171   0.669 -0.2185 -0.2162 -0.2673
16315W        W35849   8.785   6.890  11.610 -0.1069 -0.1435 -0.1673
16316W        W35850   6.840   5.714   5.160  0.1574  0.0761 -0.0896
16317W        W35851  11.118  10.121   1.945 -0.0594  0.2004  0.1324
16318W        W35852  12.867  12.333  16.365  0.2889  0.2673 -0.0943
16319W        W35853   0.964  13.477   1.716 -0.0188 -0.1946 -0.4210
16320W        W35854  16.701  13.704  15.101 -0.0887  0.1458  0.0898
16321W        W35855  11.525   2.346   0.260 -0.0601 -0.1611 -0.1499
16322W        W35856   8.385  11.779   0.856  0.5451 -0.1234  0.0795
16323W        W35857   6.536   7.773  14.567  0.0049  0.2790 -0.1725
16324W        W35858   4.267   4.239   5.327  0.0959  0.0755 -0.1357
16325W        W35859   4.553   3.814   3.641 -0.3386 -0.1651 -0.1480
16326W        W35860   9.898  10.490   0.061  0.0275 -0.1596 -0.3350
16327W        W35861   6.445   3.921  11.472  0.2534 -0.4428 -0.1930
16328W        W35862  11.113   5.894  13.778 -0.3741 -0.0937 -0.3000
16329W        W35863  14.797  11.003   3.903 -0.1453 -0.1626  0.1312
16330W        W35864   6.551  14.588   4.478 -0.0466  0.1982 -0.1460
16331W        W35865  11.303   7.368  13.732 -0.1039 -0.1196  0.1752
16332W        W35866   5.705   2.274   3.847  0.0210 -0.0644  0.0602
16333W        W35867  13.069   0.828  16.551 -0.1432  0.0502  0.0226
16334W        W35868   2.275   4.642   2.213  0.1591 -0.1957 -0.1584
16335W        W35869   1.928   8.589   2.119  0.2641 -0.1586 -0.0294
16336W        W35870  11.479   7.718   2.359  0.1281 -0.0737 -0.0020
16337W        W35871   5.828   8.360  12.652 -0.0626 -0.4296 -0.1422
16338W        W35872  14.662  16.585   1.475 -0.0741  0.1468  0.0626
16339W        W35873   0.399   6.851   2.597 -0.0054 -0.0050 -0.4703
16340W        W35874   8.290  14.853   3.729  0.0426 -0.0804  0.1972
16341W        W35875  14.759  15.993  13.313  0.2405  0.2823  0.1073
16342W        W35876   9.417  10.851   0.359  0.0260  0.2234  0.0176
16343W        W35877  15.707   9.050  13.397  0.0185  0.0002  0.0702
16344W        W35878   4.802   9.649   1.230  0.0272  0.1568  0.0303
16345W        W35879  12.560  17.594   0.637 -0.2285  0.2090  0.3593
16346W        W35880   0.896   9.529   2.636  0.0441  0.1334 -0.1247
16347W        W35881  10.645   7.837  14.400 -0.2009 -0.0045  0.1652
16348W        W35882  14.318  13.037   4.492  0.2452 -0.2077 -0.1229
16349W        W35883  16.633  12.152   1.210  0.1106 -0.1862 -0.3048
16350W        W35884   7.687   7.908   6.428 -0.1332 -0.0374  0.0395
16351W        W35885  16.397   2.831   4.243 -0.0781  0.1679 -0.0088
16352W        W35886   2.802   5.051   5.429 -0.1226  0.1330 -0.0777
16353W        W35887  15.894   3.156  12.071 -0.0140  0.2218  0.0909
16354W        W35888   2.478  14.680  14.954  0.0567  0.3763 -0.1995
16355W        W35889   3.466  10.336   4.507 -0.0719  0.0253  0.1998
16356W        W35890   3.330   4.385  12.855  0.1205  0.0958  0.3058
16357W        W35891  17.305   5.678  11.807 -0.3363 -0.1891 -0.2325
16358W        W35892   1.107  10.441   1.590 -0.2952 -0.2526  0.1914
16359W        W35893   7.735   5.444   2.779 -0.1343  0.4425 -0.5117
16360W        W35894  16.974  12.052  16.574 -0.2354  0.0056 -0.0434
16361W        W35895  13.277   7.937   0.677 -0.4378  0.2471  0.0047
16362W        W35896  11.048  11.133  14.260  0.4680  0.1736 -0.0086
16363W        W35897  13.495  17.554   3.845 -0.0409 -0.0215  0.0146
16364W        W35898  13.069  11.654  14.457  0.0352 -0.2918  0.4238
16365W        W35899  15.470   6.548  15.910  0.0517 -0.1950  0.1384
16366W        W35900  17.525  15.990   2.527  0.0212 -0.2352 -0.2273
16367W        W35901   6.274  11.108  15.598  0.1682  0.0685 -0.1143
16368W        W35902  15.342   7.376  14.226  0.0255  0.2454  0.4195
16369W        W35903   3.106   2.469   0.046 -0.2316 -0.1377  0.3161
16370W        W35904  10.676  17.593   1.166 -0.0465  0.1461 -0.1420
16371W        W35905  15.971   3.846   1.488 -0.1169 -0.0908 -0.2355
16372W        W35906  17.861   4.566   4.151  0.4212 -0.1397  0.2165
16373W        W35907  13.950   6.843   0.755  0.4152  0.1463  0.0256
16374W        W35908  15.244   0.834   1.286 -0.1319  0.2450 -0.0815
16375W        W35909   8.245   5.885  13.460  0.0294 -0.0366 -0.4815
16376W        W35910  13.250  11.490  13.205 -0.1008  0.0000  0.0208
16377W        W35911   1.848   7.124  15.967 -0.2346 -0.0539  0.0317
16378W        W35912   4.802   0.687  13.028 -0.0526  0.2378  0.0644
16379W        W35913   0.792  15.819   3.220  0.0936 -0.1356  0.2083
16380W        W35914  14.797   4.251   3.900  0.2709  0.0241  0.1475
16381W        W35915   6.790   2.371  16.343  0.1021 -0.0784  0.0420
16382W        W35916   8.100   8.425   3.200  0.1791 -0.1291  0.2034
16383W        W35917   2.702   8.633   1.939 -0.0491  0.0565  0.1310
16384W        W35918  17.478  12.041  13.098 -0.0806  0.1744  0.3176
16385W        W35919   5.976  13.476  14.252  0.0450 -0.0327 -0.0497
16386W        W35920   9.523   4.321  12.021  0.1597 -0.0350 -0.0839
16387W        W35921   3.274   5.585   2.209  0.1831 -0.2419 -0.2868
16388W        W35922  13.648  14.136   2.918  0.1589 -0.2957 -0.2135
16389W        W35923  17.267   3.047   0.203 -0.0672 -0.0291  0.1055
16390W        W35924   9.255  16.177   5.022 -0.0676  0.1955 -0.0978
16391W        W35925   1.301   4.107   4.228 -0.0664 -0.2054  0.0448
16392W        W35926   6.235   2.751   3.305 -0.0985 -0.0533 -0.0546
16393W        W35927   8.092   2.113  16.235  0.0561  0.3357 -0.2558
16394W        W35928   1.020   6.521  13.003 -0.2139  0.1834 -0.1325
16395W        W35929   1.920   9.325   0.272  0.0039 -0.0362  0.0951
16396W        W35930   1.558   4.813  12.092 -0.0037 -0.2295 -0.2965
16397W        W35931   1.965   5.439  12.635  0.0391 -0.2077  0.1391
16398W        W35932   6.376   9.114   0.463  0.1508  0.0304  0.0114
16399W        W35933   0.595   4.507  12.164 -0.0138  0.0436  0.0983
16400W        W35934  12.480  11.637  14.561 -0.0189  0.1020  0.0259
16401W        W35935  13.368  14.539  13.869 -0.2021  0.3052  0.0115
16402W        W35936  16.614   2.302   4.656 -0.1338  0.0501 -0.1057
16403W        W35937   2.116  12.320  14.236  0.2470  0.4403  0.0243
16404W        W35938   2.916  12.703  14.416  0.2124 -0.1980  0.1426
16405W        W35939   4.306   3.361   4.601  0.0807  0.0755  0.1502
16406W        W35940   5.379   3.097  13.996  0.2006  0.2535  0.3473
16407W        W35941  17.718   8.180   2.140 -0.0811  0.0002  0.1914
16408W        W35942   2.550   3.092  16.677  0.2120 -0.0621  0.0385
16409W        W35943   3.839  15.818   4.044  0.1482  0.0017 -0.0849
16410W        W35944  15.623   0.155  15.407  0.0464  0.1589 -0.0090
16411W        W35945   2.326   3.387   3.531 -0.1473  0.2406  0.0216
16412W        W35946   5.599  15.652   2.570 -0.3439 -0.2117  0.1179
16413W        W35947   6.098   6.314  13.508  0.2489 -0.0983  0.0194
16414W        W35948   4.256   1.947  15.509  0.4376  0.2322  0.0917
16415W        W35949  12.692   7.969  15.179  0.2289 -0.0321  0.0767
16416W        W35950  17.834   6.174   4.520  0.0914  0.0804 -0.4407
16417W        W35951   4.749   6.337   4.893 -0.0598 -0.2054  0.1903
16418W        W35952  14.335   9.267   3.442 -0.2642 -0.0094 -0.0122
16419W        W35953  13.879  12.373  14.830  0.0618  0.3965  0.0063
16420W        W35954  17.469   6.281  15.800  0.1572  0.1240  0.2390
16421W        W35955   2.427   4.196   4.914 -0.0194 -0.0492  0.3695
16422W        W35956   0.980   7.171  11.407  0.1080  0.0811 -0.2073
16423W        W35957   5.923  13.367  15.549 -0.0559 -0.1462  0.2187
16424W        W35958  13.408   5.531   2.998 -0.1214 -0.0514 -0.1936
16425W        W35959  11.296  14.141  12.442 -0.1326 -0.0804  0.1412
16426W        W35960   3.214  10.009  12.140 -0.0793  0.3905  0.2648
16427W        W35961   3.839   9.762  15.821  0.0859 -0.1911 -0.0155
16428W        W35962  13.728   2.017   1.641 -0.0189 -0.2427  0.0821
16429W        W35963  17.782   6.980   0.644 -0.2708  0.0723  0.1916
16430W        W35964  17.148  13.366   3.999 -0.4350  0.1767  0.0423
16431W        W35965  12.779   2.352  13.374 -0.0001  0.4440 -0.0751
16432W        W35966   5.609   6.423  13.782 -0.0060 -0.2079 -0.0494
16433W        W35967  16.096  16.190   2.591  0.0406 -0.1455 -0.0322
16434W        W35968  13.445   9.173   3.817 -0.1426 -0.0726  0.1884
16435W        W35969  12.554  11.688   2.336  0.3754  0.0156  0.0613
16436W        W35970  16.907   5.456  15.632  0.0227 -0.0116 -0.1804
16437W        W35971   2.182   8.520   0.629  0.1509 -0.0466 -0.4249
16438W        W35972  12.331   9.628  16.380  0.2717  0.0155  0.1151
16439W        W35973  13.226   0.075  14.898 -0.1082  0.0438 -0.2315
16440W        W35974  17.386  12.933  16.677  0.1416  0.1486  0.2270
16441W        W35975  11.514  10.790  12.609  0.0647 -0.0156 -0.0671
16442W        W35976   0.996   1.138  16.078  0.1699  0.2485  0.0384
16443W        W35977  17.803   2.386   3.641  0.0843 -0.0003  0.0663
16444W        W35978   6.282  17.501  13.349  0.3612 -0.2057 -0.1065
16445W        W35979   1.228   7.403   3.789 -0.1830  0.0285  0.3303
16446W        W35980  16.262   8.332   1.970  0.3608 -0.2663  0.1806
16447W        W35981  11.187   8.860   1.528 -0.0463 -0.2518 -0.0480
16448W        W35982   5.769   8.065  15.172 -0.0217 -0.1443 -0.0185
16449W        W35983  16.895   0.666   4.944 -0.2426  0.0835  0.0085
16450W        W35984   7.203   7.068   1.487 -0.0583 -0.1614 -0.0881
16451W        W35985  12.014   4.459   1.626  0.3073 -0.0865  0.0358
16452W        W35986   7.643  11.899  13.543 -0.0100 -0.0190  0.0865
16453W        W35987  14.249   3.572  11.912 -0.1646  0.1351  0.1898
16454W        W35988  13.173  15.002  15.003  0.0226 -0.0360  0.0495
16455W        W35989   7.859   4.831  11.996 -0.0149 -0.0485  0.1971
16456W        W35990  16.204  13.342   2.709  0.0016 -0.0247 -0.1061
16457W        W35991   3.698   7.881  16.528 -0.1826 -0.2578  0.0464
16458W        W35992   5.813   7.847   2.270 -0.0413  0.0640 -0.1089
16459W        W35993   0.135   5.614   0.507  0.1257 -0.0163 -0.0643
16460W        W35994   2.475   1.128  13.006  0.2310  0.0992  0.2476
16461W        W35995  12.759   7.461   0.429 -0.2826  0.3410 -0.1214
16462W        W35996  16.067  16.756  13.573  0.1478  0.2395 -0.1313
16463W        W35997  10.912  13.859  16.395  0.0418  0.1447 -0.1965
16464W        W35998  10.038   8.785   2.477 -0.0627 -0.0924  0.0136
16465W        W35999  16.722  10.371  14.707 -0.2292  0.4790  0.1028
16466W        W36000  10.783  10.236   0.458 -0.3225 -0.1216  0.1637
16467W        W36001  12.322  10.497  15.363 -0.0007 -0.0728 -0.0800
16468W        W36002   8.327   9.706  14.501  0.5115  0.0421 -0.0576
16469W        W36003  11.786  13.988   4.488  0.2205 -0.0651 -0.0509
16470W        W36004  13.435  11.320   1.524 -0.1662  0.2218 -0.0440
16471W        W36005   9.640   8.332  12.366 -0.0774  0.0136 -0.2251
16472W        W36006   6.239  10.750  16.437  0.1237  0.3058 -0.1686
16473W        W36007  14.143   7.872   0.128  0.1682 -0.2155  0.0990
16474W        W36008   5.737   2.451  12.071 -0.2078 -0.1778 -0.0173
16475W        W36009  17.381  17.721   0.949 -0.0647 -0.0530 -0.4216
16476W        W36010   2.040  13.054  13.273 -0.0434  0.2577 -0.1358
16477W        W36011   5.630   3.122   2.188  0.0918  0.2614  0.0241
16478W        W36012  15.765   7.344  14.537  0.1262 -0.2683 -0.0554
16479W        W36013  13.581   4.156  13.426  0.0094 -0.0183 -0.1273
16480W        W36014  10.103   3.683   1.889  0.0191  0.0188  0.1039
16481W        W36015  17.353   8.053   4.356  0.2086 -0.0560 -0.0188
16482W        W36016   4.516   4.372  15.126  0.1183 -0.1829  0.1820
16483W        W36017   9.973  10.634  16.299 -0.2528  0.2633 -0.1133
16484W        W36018   6.004   5.624  11.764 -0.3075 -0.1106  0.1927
16485W        W36019  12.572   4.949   0.444 -0.4601  0.0416 -0.2573
16486W        W36020  12.969   1.625  13.931  0.1567  0.1198  0.1340
16487W        W36021  11.270   6.699  15.446  0.3424  0.3152 -0.2327
16488W        W36022   5.736  14.195   2.838  0.3608  0.0465 -0.1925
16489W        W36023   6.151  15.539   5.070 -0.2452 -0.0590 -0.1153
16490W        W36024   0.467  14.699   1.320 -0.0989 -0.0989  0.0218
16491W        W36025  14.437   1.750  16.269  0.1036 -0.1202 -0.1483
16492W        W36026  17.733  17.344   4.924  0.0398 -0.1801  0.1408
16493W        W36027  17.818   6.925   2.406 -0.1517 -0.0198  0.2220
16494W        W36028   5.155  11.128  12.288 -0.0806  0.5303 -0.2448
16495W        W36029  16.100   8.598  14.210 -0.1330  0.0118 -0.1650
16496W        W36030  15.996   9.466  16.268 -0.0593 -0.0217  0.1751
16497W        W36031   0.579   5.809  15.920 -0.0482  0.1887 -0.1826
16498W        W36032  12.412  15.878   0.713 -0.0929 -0.0555 -0.0027
16499W        W36033  11.660   4.203   1.242  0.1390 -0.3715  0.1539
16500W        W36034   3.338   9.437   1.089 -0.0135 -0.1357 -0.1463
16501W        W36035   7.642   1.975   0.380 -0.0574 -0.3275 -0.0222
16502W        W36036   3.495  14.234   3.754  0.0416 -0.0657 -0.0638
16503W        W36037   4.833   5.037   3.308  0.0580  0.0443 -0.0121
16504W        W36038   6.449  15.349   0.860  0.1070  0.1842 -0.0100
16505W        W36039   3.626  10.573   2.995  0.1520  0.1056 -0.1023
16506W        W36040  11.355   0.438   0.152 -0.1001 -0.1840 -0.0898
16507W        W36041   7.022  16.215  14.505  0.0542 -0.1077  0.0075
16508W        W36042  17.046   8.946   4.149 -0.2019  0.0709  0.0115
16509W        W36043   2.577  17.156  13.669 -0.2100  0.2031  0.0269
16510W        W36044   2.815  11.952  13.783 -0.0243  0.2107  0.2345
16511W        W36045   8.701  10.862   0.984 -0.1668  0.0897 -0.0587
16512W        W36046   1.961  10.625   1.859 -0.1280 -0.0638 -0.1566
16513W        W36047  11.763   1.850   1.541  0.1019 -0.0749 -0.2119
16514W        W36048   2.111   7.511   3.084 -0.4694 -0.0884 -0.2653
16515W        W36049   2.038   8.861  13.760  0.0262  0.1001 -0.2391
16516W        W36050  16.634   3.951   0.973  0.3433  0.2540  0.0019
16517W        W36051  13.907  17.103   4.600 -0.0255 -0.2360  0.0628
16518W        W36052   6.592   6.823  15.632 -0.1978 -0.1334 -0.0260
16519W        W36053   5.198  16.469  13.163 -0.0631 -0.0845 -0.0870
16520W        W36054  13.591  10.056  16.614 -0.3133  0.1378 -0.0703
16521W        W36055  11.757   8.945   2.408  0.0064 -0.3531  0.1191
16522W        W36056   6.072   4.555  12.579 -0.1482 -0.0338  0.1472
16523W        W36057   5.455   8.602   2.641 -0.3006  0.0005  0.0619
16524W        W36058  12.415  14.587   1.210 -0.1413 -0.0783  0.5119
16525W        W36059   5.064  17.289   0.181  0.0743 -0.0379  0.2041
16526W        W36060  12.138  17.002   3.782  0.1206  0.0873 -0.0871
16527W        W36061  10.553   2.062   3.294 -0.0893 -0.0206  0.0806
16528W        W36062   9.637   1.640   1.100 -0.2666  0.2220  0.3056
16529W        W36063  15.792  17.005  15.117 -0.0360 -0.1346 -0.0539
16530W        W36064   7.251   1.603   0.341 -0.2951  0.1905  0.1413
16531W        W36065  16.604  15.543  14.406  0.2336 -0.1976  0.1931
16532W        W36066  12.117  13.857   3.772  0.0566  0.1835 -0.1793
16533W        W36067   2.537  12.663  15.494  0.0176 -0.1386 -0.3698
16534W        W36068   3.749   9.738   0.942  0.1807  0.0230 -0.0699
16535W        W36069  14.056  13.397  13.858  0.2244 -0.3190 -0.1888
16536W        W36070  14.742  14.434  12.885 -0.1818  0.1654  0.0413
16537W        W36071   3.863  14.609   1.242  0.5054 -0.1031 -0.1088
16538W        W36072   0.183   0.597  16.334 -0.0248 -0.0269  0.1416
16539W        W36073   6.259  15.937  13.782 -0.2239  0.0700  0.2281
16540W        W36074   1.006   4.130  15.288  0.1511 -0.1322 -0.0426
16541W        W36075   2.895   9.105  16.752  0.0690  0.0392  0.1574
16542W        W36076   6.880   8.037  15.704 -0.3397  0.1477 -0.1814
16543W        W36077   0.444   2.847   1.089 -0.2612  0.2136 -0.3780
16544W        W36078  13.346  14.895   1.059  0.0921 -0.0737 -0.4894
16545W        W36079   5.633  10.000  12.306 -0.0321 -0.1709 -0.3371
16546W        W36080  16.813   1.022   3.628 -0.1798  0.1310  0.2766
16547W        W36081  16.619  11.944   4.564  0.2659  0.3718 -0.0605
16548W        W36082  13.225  15.924   3.009 -0.1930 -0.0898  0.1749
16549W        W36083   4.649   7.156  12.794 -0.1164 -0.3333 -0.4802
16550W        W36084  12.582   1.670   2.962 -0.0227  0.2739 -0.1684
16551W        W36085   1.073   4.778  14.223 -0.1513  0.1146  0.0801
16552W        W36086   4.403   4.244  14.021 -0.1115 -0.1987  0.2947
16553W        W36087   5.432  15.057   2.190 -0.1058  0.2221  0.0628
16554W        W36088   4.801   2.887   0.601 -0.1437  0.2011 -0.0850
16555W        W36089   4.735  15.703  11.986  0.0056 -0.1097 -0.2139
16556W        W36090   1.245  13.568  13.441 -0.1168  0.0935  0.3726
16557W        W36091   9.501  10.508   5.822  0.2804  0.1469  0.0504
16558W        W36092   1.955  13.177   3.949  0.1690  0.0623  0.0563
16559W        W36093  17.768  12.896  15.783 -0.2483 -0.0739  0.3576
16560W        W36094  12.349  13.562  13.137 -0.1572 -0.3170  0.1965
16561W        W36095   9.991  16.726   0.018 -0.1642  0.0093  0.0559
16562W        W36096  14.614  12.976   1.627 -0.1724 -0.1093  0.1084
16563W        W36097   7.092   9.668   0.113  0.0765 -0.1099  0.3786
16564W        W36098  17.463   4.915   3.176 -0.0476 -0.6413 -0.0132
16565W        W36099   5.017  17.192   1.606  0.0690  0.1093 -0.3309
16566W        W36100  14.331  17.429  14.392  0.1249  0.0656  0.2470
16567W        W36101   7.557   0.861   3.073  0.0576 -0.0867  0.2876
16568W        W36102  11.476   6.685  13.053  0.0604 -0.0475 -0.3146
16569W        W36103   4.116  14.595   2.260  0.2131 -0.1052  0.1151
16570W        W36104   3.487  14.888   1.453 -0.4517 -0.2341  0.1165
16571W        W36105  14.913   6.885  13.119 -0.3834  0.0100 -0.0102
16572W        W36106   6.460   5.216  14.260 -0.1191 -0.1556 -0.1949
16573W        W36107   9.589  12.798  13.897  0.0695  0.0857 -0.1748
16574W        W36108  14.497   1.597   2.315 -0.0646  0.1959  0.0050
16575W        W36109   1.817   8.950  12.826  0.1794 -0.0999  0.0498
16576W        W36110   5.662   6.607  16.593  0.1674 -0.3075  0.0054
16577W        W36111   7.783  15.642  13.083 -0.0801  0.0465  0.1539
16578W        W36112   8.212  16.930  15.006  0.0166  0.2238  0.0257
16579W        W36113   7.610   3.116  14.632  0.1886 -0.0870 -0.1422
16580W        W36114   2.805   5.474  13.388 -0.0734 -0.2293 -0.1335
16581W        W36115   3.054   8.760   1.547  0.0862  0.0760  0.1431
16582W        W36116   4.058  12.084  13.249  0.3897 -0.0909  0.1761
16583W        W36117   4.927   6.756  15.200  0.2094  0.1524 -0.2134
16584W        W36118  16.885  13.123  15.675 -0.0955 -0.2463 -0.1170
16585W        W36119   3.432  14.545  16.211  0.0025  0.1040  0.0059
16586W        W36120  14.060  12.846  16.533 -0.2486  0.0163  0.0374
16587W        W36121   0.944   5.549  15.766  0.0055  0.0395  0.2135
16588W        W36122  13.182   9.801  16.666 -0.0084  0.0866  0.1619
16589W        W36123   2.561   5.695  15.752 -0.0362  0.0118 -0.0056
16590W        W36124   8.313   2.601   3.733  0.1205  0.0348 -0.2908
16591W        W36125   4.405   8.459   0.669 -0.0811  0.0307  0.2304
16592W        W36126   2.055  14.171   4.616 -0.0369 -0.1903 -0.0885
16593W        W36127   8.299   2.410   4.636  0.0674  0.0065  0.1452
16594W        W36128  17.733  13.271   2.856  0.1870  0.0834 -0.0005
16595W        W36129   4.652  15.904  14.501  0.1720 -0.3393  0.1124
16596W        W36130   1.581   2.510   3.616  0.1394  0.0778 -0.0331
16597W        W36131   0.560  16.770   0.181  0.0638  0.0045  0.0610
16598W        W36132   2.290   8.503  14.307 -0.0815 -0.3541 -0.2524
16599W        W36133   5.075  10.950   0.440  0.3410  0.1315 -0.0234
16600W        W36134   9.414   8.490  13.860 -0.0016  0.0428  0.1531
16601W        W36135  14.138  15.288  15.082  0.3386 -0.1943 -0.1617
16602W        W36136  11.544   6.839   4.304 -0.1447  0.2736  0.1375
16603W        W36137  12.299  10.149   4.865  0.3303 -0.0409  0.1112
16604W        W36138  15.022  14.486  12.080  0.0190  0.2751  0.0843
16605W        W36139  17.788  10.898  16.682  0.1871  0.0871 -0.3430
16606W        W36140   8.828   6.833   0.669  0.1638  0.1898 -0.1518
16607W        W36141   1.403  16.420   1.129  0.0309  0.3037 -0.0392
16608W        W36142   0.018   4.032  13.610  0.0632  0.2471 -0.1569
16609W        W36143   3.755  10.240  15.941  0.3049 -0.0115  0.1441
16610W        W36144   8.675  14.735  14.498 -0.3008 -0.1434 -0.1401
16611W        W36145  16.405   2.121  16.194 -0.0777  0.3645 -0.0130
16612W        W36146   7.359   1.455  16.052  0.1631  0.0801 -0.0087
16613W        W36147   7.902  14.810   3.315  0.2335 -0.2286 -0.4873
16614W        W36148   5.005   7.552   3.468  0.3151  0.0507  0.1520
16615W        W36149   2.712  17.344   3.320  0.0975  0.3998  0.3601
16616W        W36150   1.466   6.314  16.348 -0.0517 -0.2331 -0.0386
16617W        W36151  17.864   5.176   2.883 -0.0991 -0.3667  0.1920
16618W        W36152   3.619  13.575   3.533 -0.0683  0.0078 -0.2011
16619W        W36153   3.053   7.567  14.063  0.5227 -0.3979  0.0775
16620W        W36154  10.806  11.415  16.002  0.1888  0.1496  0.0959
16621W        W36155   2.357   9.987  14.187  0.0265 -0.0147 -0.0100
16622W        W36156  17.293   3.769  12.769 -0.0665 -0.0705 -0.0470
16623W        W36157   4.699   3.727  13.766 -0.0026  0.1028 -0.2587
16624W        W36158   5.116  14.261  12.189 -0.1712 -0.1684 -0.1680
16625W        W36159  15.016   3.456  14.510  0.2660  0.2122 -0.0248
16626W        W36160   0.390  17.624  12.649  0.2180 -0.1504 -0.1019
16627W        W36161   9.985   4.243   0.650 -0.1012 -0.3179 -0.0787
16628W        W36162  16.832  15.322  16.273 -0.2497 -0.0166  0.1941
16629W        W36163   1.765   7.689  14.801  0.2298 -0.1748 -0.2216
16630W        W36164  16.884  16.018  11.923  0.0011 -0.4291  0.2431
16631W        W36165   7.969  14.166  14.293 -0.3344  0.2239 -0.3136
16632W        W36166   1.143   1.097   3.354  0.0499 -0.0741  0.0536
16633W        W36167  13.890   6.524   0.341  0.2666  0.2350 -0.0868
16634W        W36168   6.038   0.500  16.256 -0.2407 -0.1418  0.0226
16635W        W36169  16.360   3.249   0.252  0.2851 -0.1690  0.0911
16636W        W36170   9.811   7.883  16.439 -0.0018  0.0360  0.0048
16637W        W36171   8.997   2.687   4.477  0.0766 -0.1307 -0.2722
16638W        W36172   8.012  10.896  16.499  0.1238 -0.1641  0.1365
16639W        W36173   6.989   3.740  15.220 -0.0771  0.1979 -0.2975
16640W        W36174   2.069   8.382   4.566  0.0127  0.2011  0.1532
16641W        W36175  12.355   9.678   1.413 -0.1544 -0.2058  0.1781
16642W        W36176   6.694  11.454   1.779 -0.1090 -0.0684  0.1091
16643W        W36177   9.152   0.182   4.366  0.0031 -0.0662  0.0205
16644W        W36178   2.163   7.175   3.564  0.2638  0.0249 -0.1691
16645W        W36179   6.019   1.680   1.181  0.1840  0.1108 -0.0054
16646W        W36180   0.898   6.964  13.915 -0.0695 -0.0159 -0.0174
16647W        W36181   1.475   2.698   1.462  0.0890  0.1661  0.2438
16648W        W36182   6.757   3.319  13.280 -0.1794 -0.0360 -0.0149
16649W        W36183  16.041  11.757   3.046 -0.4424 -0.1799  0.0450
16650W        W36184  12.365  10.128  16.232  0.1530 -0.0054 -0.1112
16651W        W36185  14.552   2.977   0.554  0.1349  0.0932  0.2050
16652W        W36186   3.587   2.589  12.779 -0.0325  0.1629  0.3182
16653W        W36187   6.938   0.874   1.415 -0.2508 -0.0509 -0.0688
16654W        W36188   6.972   2.542   1.886 -0.2010  0.2092 -0.1290
16655W        W36189   2.254  15.862   1.502  0.1473  0.1661 -0.0900
16656W        W36190   9.078   7.141   4.076  0.0231  0.0133 -0.2308
16657W        W36191  15.063  11.934  13.359 -0.0717 -0.2678  0.1196
16658W        W36192   5.455   7.663   0.883 -0.0163  0.0441  0.0881
16659W        W36193   9.390   0.266  12.816 -0.0207  0.1595 -0.0859
16660W        W36194  15.356  13.182  12.759  0.4498 -0.2814 -0.2084
16661W        W36195   9.607  10.567  13.749  0.1779  0.1247 -0.1065
16662W        W36196  12.872   9.893   4.288 -0.2705 -0.0706  0.1546
16663W        W36197   6.684   8.006   3.443  0.1158  0.1853 -0.1035
16664W        W36198  15.891   5.517   3.985  0.0450  0.4162  0.2000
16665W        W36199  11.722  12.186  15.912 -0.1012 -0.1896  0.0078
16666W        W36200  14.091  15.869   4.104 -0.1125 -0.2156 -0.2107
16667W        W36201  12.638   4.326   1.624  0.1020  0.1105 -0.0536
16668W        W36202  10.774   8.262   1.090 -0.0418 -0.0435 -0.0885
16669W        W36203   9.854   2.438  14.188  0.0499 -0.0158  0.0629
16670W        W36204   2.740   4.891   1.651  0.1134  0.1508  0.3378
16671W        W36205   1.217  11.675   3.165 -0.0875  0.2257 -0.0881
16672W        W36206   6.406  15.780   1.515  0.0165  0.0260  0.2426
16673W        W36207   9.758   0.496  16.679  0.0553  0.1588 -0.0067
16674W        W36208   8.462  15.541  15.107 -0.0349  0.1473 -0.2717
16675W        W36209   0.295  11.733  16.469  0.0808 -0.0667  0.3038
16676W        W36210  17.101   6.651   4.140  0.1672  0.1208  0.0969
16677W        W36211   4.076   0.644  13.003 -0.1261 -0.0001 -0.0376
16678W        W36212   0.704  10.259   1.308  0.2324 -0.0953 -0.0078
16679W        W36213  14.357   7.872   3.109  0.0046  0.0088 -0.2546
16680W        W36214   3.960   5.779  16.285 -0.1644  0.0644 -0.1582
16681W        W36215  10.078   7.948   4.619 -0.1002 -0.0203  0.0852
16682W        W36216   0.816   0.207   4.734  0.0950  0.1880 -0.2224
16683W        W36217  16.943   2.448  16.059 -0.0201 -0.0776  0.2846
16684W        W36218   9.821   6.913  13.847 -0.0788  0.0756 -0.1074
16685W        W36219   6.254   6.049   0.230  0.0802  0.2241  0.1559
16686W        W36220  15.172   0.911   3.102  0.0723  0.1024  0.1412
16687W        W36221  10.353  13.883  15.634 -0.0263  0.1066  0.3461
16688W        W36222  13.843   0.878   3.820  0.0359  0.2583  0.3003
16689W        W36223   0.327   9.966  11.708 -0.3583 -0.3812 -0.0581
16690W        W36224  10.122   9.518   0.013  0.2232 -0.4782  0.3033
16691W        W36225   0.549   5.140   3.872  0.0082 -0.0082 -0.2032
16692W        W36226   7.588   3.744   0.611 -0.0667  0.2663 -0.0820
16693W        W36227  13.227   6.311   2.685 -0.2147  0.0461 -0.1757
16694W        W36228  15.366  12.467   1.394  0.0227 -0.0195  0.2227
16695W        W36229  13.984  11.296  16.572 -0.0588  0.2475 -0.2106
16696W        W36230   9.818   4.784   1.432  0.2867  0.0677 -0.2769
16697W        W36231   4.904  10.225   2.322  0.0067  0.1391  0.2327
16698W        W36232  16.377  16.834   0.628 -0.4312  0.0681  0.0864
16699W        W36233  15.907   8.385  13.771 -0.1900 -0.0330 -0.2566
16700W        W36234   2.757  15.224  13.075 -0.2072 -0.2204  0.0568
16701W        W36235  17.200  12.368  13.950  0.0358 -0.2761  0.0218
16702W        W36236   2.623   2.127   1.254  0.1590  0.2442  0.1626
16703W        W36237   5.695  12.309   3.808 -0.0547 -0.0025  0.2004
16704W        W36238   9.678   8.215  14.207  0.1786 -0.1825 -0.0193
16705W        W36239  16.688  13.634   0.755  0.1010  0.0954 -0.1106
16706W        W36240  16.214  13.415   3.908  0.1448 -0.0479 -0.1293
16707W        W36241   5.795   6.011   4.982  0.2425  0.0342  0.1012
16708W        W36242   2.042   4.277  13.872 -0.1908 -0.2582 -0.0010
16709W        W36243   5.208  17.387   1.172 -0.1857 -0.0568 -0.0702
16710W        W36244   0.345   8.345   3.160 -0.1452 -0.2978  0.2328
16711W        W36245   8.296   4.389  14.860 -0.0891  0.0186  0.0091
16712W        W36246  10.037  13.071   3.127  0.0510 -0.3665 -0.0750
16713W        W36247   7.763   4.031   0.986 -0.0120  0.0689 -0.1420
16714W        W36248  10.879  17.170  12.902  0.3238  0.0491 -0.1760
16715W        W36249   4.788   9.675   3.137 -0.1706  0.3247  0.0241
16716W        W36250  17.745  17.522   1.631  0.1572  0.0993 -0.1645
16717W        W36251   9.760  10.007   2.396  0.1196 -0.1356  0.1301
16718W        W36252   0.537   9.502  12.667  0.3206  0.2888  0.1036
16719W        W36253  13.809  14.953   2.335 -0.0773  0.3320  0.1984
16720W        W36254   2.120  13.051  12.533 -0.3433 -0.0483 -0.1842
16721W        W36255  13.931   8.479  14.539  0.4782  0.2411 -0.0742
16722W        W36256   2.619   2.981  15.656 -0.3499  0.0222  0.1186
16723W        W36257  16.415  17.011   2.243  0.1864 -0.0421  0.3683
16724W        W36258   8.665  14.448   2.885 -0.0908  0.2695 -0.1221
16725W        W36259   2.056  11.547  15.748 -0.3331  0.2255 -0.0437
16726W        W36260  17.147  13.283  13.135 -0.3149  0.0547 -0.2468
16727W        W36261   0.435   3.908   4.671  0.0060  0.1970  0.1246
16728W        W36262   5.141  12.818   2.517 -0.0992 -0.2977 -0.0676
16729W        W36263   6.272   2.225  14.524 -0.1735  0.2387 -0.0767
16730W        W36264   1.252   3.235   4.127  0.0337  0.1040 -0.0192
16731W        W36265  15.034  17.770  14.864  0.4110  0.0324 -0.0301
16732W        W36266  12.901  15.944  13.473 -0.0081  0.1815 -0.0403
16733W        W36267   2.558   1.600   3.331  0.0923  0.1122  0.0157
16734W        W36268  13.093   8.370   2.326 -0.4549  0.1393  0.0418
16735W        W36269   7.209   9.738  15.461 -0.1995  0.0013 -0.2970
16736W        W36270  13.335   0.246  15.792  0.1166 -0.0410 -0.2451
16737W        W36271  15.603   2.218   4.256  0.2665 -0.0891  0.3068
16738W        W36272  13.094   2.254   1.826  0.0497  0.2133 -0.1635
16739W        W36273   9.045   0.497  12.506  0.3151 -0.0957 -0.0790
16740W        W36274  14.791  16.301   3.358  0.0401 -0.1395  0.4382
16741W        W36275   6.137   4.611   6.754 -0.2941  0.2464 -0.1910
16742W        W36276  13.028   3.938   3.850 -0.0897  0.1053  0.0755
16743W        W36277   9.634   4.469   3.874  0.1880 -0.0919  0.1545
16744W        W36278  17.532   7.576   2.995 -0.0404 -0.1571  0.0169
16745W        W36279   8.927   8.694  13.170  0.1420 -0.0171 -0.0839
16746W        W36280  13.296  13.307  13.389 -0.3269 -0.3671 -0.2092
16747W        W36281   7.853   0.699   3.950  0.0827 -0.2510 -0.3048
16748W        W36282   5.644   7.832  12.646  0.1317  0.0291  0.0283
16749W        W36283   5.848   6.523  12.260 -0.1032 -0.2121  0.2700
16750W        W36284  15.483   7.339   4.036  0.0458  0.1813 -0.0620
16751W        W36285   9.488  14.160   3.540  0.0091 -0.0200 -0.1703
16752W        W36286   7.655   6.065   4.549  0.3138  0.2550 -0.2161
16753W        W36287   2.712  10.171  12.803 -0.1047  0.2792  0.0420
16754W        W36288  13.555   3.884  14.401 -0.1056  0.2684  0.0784
16755W        W36289   3.307  15.713  13.668 -0.2434 -0.0436  0.0569
16756W        W36290  11.502   7.155  12.590  0.0441  0.2034 -0.1562
16757W        W36291   4.286   1.013   2.698 -0.2431 -0.1107 -0.1096
16758W        W36292  11.039  15.031   1.737 -0.2052  0.2469  0.1056
16759W        W36293   8.748  15.974   1.534  0.2712  0.0122  0.1664
16760W        W36294  16.088  17.327   0.739 -0.0770  0.0565 -0.1623
16761W        W36295   8.459   1.524   4.407  0.0769  0.5111  0.1065
16762W        W36296   8.507  16.513  14.896  0.2265 -0.2089 -0.1388
16763W        W36297  17.538   9.163  11.691 -0.2359 -0.1101 -0.1146
16764W        W36298  16.839   7.861  13.289  0.2185 -0.1733  0.3808
16765W        W36299   3.046   6.381   3.633  0.2037 -0.1571 -0.0293
16766W        W36300   7.581   9.563  15.174  0.1889 -0.2970  0.4377
16767W        W36301  12.878   5.492   3.086  0.0615  0.2124  0.0192
16768W        W36302  10.430  10.639  14.315 -0.2394  0.4586 -0.1259
16769W        W36303   3.628   8.456   0.182  0.1594 -0.0712 -0.1922
16770W        W36304   6.884   0.059   1.972  0.1343  0.0776 -0.0897
16771W        W36305   3.946  13.958   3.569  0.1998 -0.0638  0.1298
16772W        W36306  10.215  11.641  15.069  0.1906 -0.0683 -0.0780
16773W        W36307  10.994   6.272   2.728 -0.2401  0.1004 -0.2640
16774W        W36308   8.189   6.700  15.343 -0.0211  0.0136  0.0296
16775W        W36309   3.567  13.054  13.152  0.1738  0.0737 -0.1181
16776W        W36310  16.712   3.282   3.028 -0.1176 -0.0892 -0.2213
16777W        W36311   3.890   5.212   0.207  0.1654  0.0748 -0.2963
16778W        W36312   1.253   6.063  15.972 -0.4783  0.3003 -0.1608
16779W        W36313  17.648  17.112  13.038 -0.0110  0.2351 -0.2633
16780W        W36314  17.036  17.372  12.396  0.0174  0.0503 -0.0361
16781W        W36315   9.762   8.536   1.410  0.2595 -0.0289 -0.2616
16782W        W36316   7.994  13.368  13.286 -0.3424 -0.3320  0.0555
16783W        W36317   1.387   0.192   3.503  0.0411 -0.1228  0.2208
16784W        W36318   4.446  16.546   0.533 -0.0286  0.2382 -0.0501
16785W        W36319   4.069  15.366   5.185 -0.1262 -0.0776 -0.4053
16786W        W36320   2.267  15.359   1.209 -0.0855  0.0494  0.1433
16787W        W36321  12.055   9.914   1.957 -0.0028  0.0024  0.1291
16788W        W36322   3.058  13.965   3.842  0.0198 -0.1325  0.0754
16789W        W36323  17.763  17.017   1.466  0.1129  0.0356  0.3150
16790W        W36324   4.125   1.692  13.957 -0.0962  0.1075  0.1280
16791W        W36325   1.338   9.404  14.864  0.2131 -0.0542  0.0240
16792W        W36326  12.964   2.719  11.933 -0.2633 -0.0473  0.0441
16793W        W36327  13.047  14.965  13.588  0.0617 -0.0568  0.1699
16794W        W36328   7.426  16.684  15.959  0.0119  0.1502  0.2665
16795W        W36329   6.713   1.248  13.766 -0.2460 -0.2842 -0.0547
16796W        W36330  14.054   6.134  11.182 -0.3201  0.0648  0.2885
16797W        W36331  11.894   6.401  13.052 -0.0915  0.0531 -0.0767
16798W        W36332  15.073   7.904  13.944  0.1445 -0.0177  0.2904
16799W        W36333  12.525   8.558   1.729 -0.0208 -0.2121 -0.0536
16800W        W36334  11.329   0.105  13.265  0.0088 -0.2575  0.4371
16801W        W36335  10.603  11.792  16.661  0.0143  0.2457 -0.3329
16802W        W36336   2.300   9.638  14.992  0.0790  0.2871  0.2121
16803W        W36337  17.154  16.323  15.537  0.0286  0.0404 -0.2014
16804W        W36338  14.910   5.314  16.270  0.0250  0.2151  0.1748
16805W        W36339   5.949   6.543  16.187 -0.2454 -0.3301  0.1952
16806W        W36340   1.088  16.491   4.605  0.1348 -0.0372 -0.0200
16807W        W36341   6.322   6.810   5.117  0.3160  0.2854 -0.0348
16808W        W36342   7.051   3.270   3.486  0.0160 -0.0788 -0.3604
16809W        W36343   8.955  10.772  15.283 -0.0119 -0.1825  0.1364
16810W        W36344   5.050  14.456   3.398  0.0578 -0.2611 -0.0896
16811W        W36345   5.398   8.904  16.500 -0.2605  0.1360  0.1305
16812W        W36346   6.020  17.069  14.954 -0.0946 -0.0218 -0.0971
16813W        W36347   2.187   7.205  15.569  0.2030  0.1285 -0.0797
16814W        W36348   8.046   5.541   3.636 -0.3094  0.1021 -0.2469
16815W        W36349   4.697  11.216  16.328 -0.2929 -0.3575  0.0765
16816W        W36350  10.002   9.750  12.243  0.1953 -0.2152 -0.0454
16817W        W36351  11.736   0.887   3.602  0.0304  0.3970 -0.2503
16818W        W36352   0.114  10.972  12.511  0.3781  0.0184  0.0212
16819W        W36353  16.247  12.919  12.689 -0.2060 -0.1351 -0.0571
16820W        W36354  10.066   3.369   3.431 -0.2150  0.2400 -0.1092
16821W        W36355  12.558   4.320   0.800  0.1288  0.0641 -0.2865
16822W        W36356   2.162   5.289   4.705 -0.0065  0.4227  0.0582
16823W        W36357  15.765  11.340  15.189 -0.2849  0.1091  0.1918
16824W        W36358   7.023   4.479   0.935 -0.0776  0.2320 -0.0327
16825W        W36359  16.467  15.596  12.287  0.0938  0.1155  0.1754
16826W        W36360   9.354  11.805  13.892 -0.0021 -0.2676 -0.0381
16827W        W36361   7.165  16.548   2.738 -0.0350  0.1452 -0.0941
16828W        W36362   0.989  12.926   0.168 -0.4776  0.1618 -0.1044
16829W        W36363   3.817   3.059   0.271 -0.2627  0.0710  0.0838
16830W        W36364   2.863  11.688   0.702  0.0757  0.5892 -0.1801
16831W        W36365   4.846  16.817  13.354  0.1790 -0.0994  0.0330
16832W        W36366   1.149  12.281   3.906  0.3367 -0.0143  0.5291
16833W        W36367  17.626  15.554   1.152  0.0947  0.1026 -0.0688
16834W        W36368   9.513   0.305   5.790 -0.0180  0.0170 -0.0171
16835W        W36369  16.192   7.700   3.927 -0.2346 -0.5862  0.3125
16836W        W36370   7.099   3.665   4.270 -0.1670 -0.0403  0.0925
16837W        W36371   1.258   7.880  14.062  0.0247  0.1394  0.0430
16838W        W36372   5.740   0.074   3.290 -0.3233  0.1135  0.2486
16839W        W36373   2.812   5.332   0.984  0.0542  0.0053  0.1306
16840W        W36374   7.803   4.206  15.721 -0.2990  0.0437 -0.3744
16841W        W36375  14.911   0.814  13.996  0.3760  0.0122 -0.1230
16842W        W36376   8.384   3.415  13.826  0.3760  0.2492  0.4477
16843W        W36377   3.182   0.640  14.832 -0.0527 -0.2527 -0.2151
16844W        W36378  11.484   7.981  14.385  0.0887 -0.3759 -0.1077
16845W        W36379   7.907   6.782  13.904 -0.2391  0.0722 -0.0136
16846W        W36380  16.140  16.456  15.035  0.2420  0.1124  0.2692
16847W        W36381   5.738   1.979   3.300 -0.0789 -0.0769  0.1114
16848W        W36382  10.988   4.601  13.622 -0.0612  0.0406 -0.2089
16849W        W36383   1.123   4.862   0.785  0.1313 -0.0081 -0.3387
16850W        W36384   1.153  16.368  13.919  0.1691 -0.2148 -0.0023
16851W        W36385   9.426   9.154   4.020  0.1473 -0.1349  0.1819
16852W        W36386   0.520   3.278  13.519  0.1356  0.4139  0.0201
16853W        W36387  17.061   7.085   3.252 -0.1796  0.0225  0.0149
16854W        W36388  15.252   8.836  16.326 -0.0204  0.0096  0.2842
16855W        W36389  10.281   6.695   4.127  0.2069 -0.1869 -0.1100
16856W        W36390   4.121   3.934  11.864  0.0844 -0.2313  0.3732
16857W        W36391  12.208   0.410   1.763 -0.0177 -0.1292  0.0028
16858W        W36392   9.598  16.986  12.655 -0.1619  0.0270  0.0475
16859W        W36393   3.941  11.339  12.661 -0.1496  0.2796 -0.0197
16860W        W36394   5.717  15.408   4.025 -0.2105  0.1245 -0.1315
16861W        W36395  14.613   8.644  16.341  0.0816 -0.1253 -0.0373
16862W        W36396   3.848   0.109   1.727  0.1205 -0.0069  0.0173
16863W        W36397   2.503   7.341  14.675 -0.0814  0.2363 -0.0943
16864W        W36398  11.271   0.071  15.778 -0.0253  0.0665  0.1549
16865W        W36399  12.005  13.937   1.896  0.0882  0.0424 -0.0443
16866W        W36400   9.050   1.632   0.232 -0.1289  0.0546  0.1018
16867W        W36401  14.500  12.237  12.097  0.2321  0.1826  0.2429
16868W        W36402  13.099   1.925   4.553 -0.3305  0.1748  0.0019
16869W        W36403   9.271  16.176  16.414  0.1353  0.2898  0.1543
16870W        W36404  11.860   2.737   0.560  0.2607 -0.4035 -0.1358
16871W        W36405   6.182   1.769  12.547  0.1485 -0.0353  0.0025
16872W        W36406   9.358   0.612   4.582 -0.1308  0.0374 -0.0344
16873W        W36407  13.141  17.682   3.315 -0.0860 -0.0541 -0.0536
16874W        W36408   0.241  12.478  13.657  0.0038 -0.2479 -0.0886
16875W        W36409   9.401  17.840   2.428 -0.1286 -0.0815 -0.1967
16876W        W36410   7.152  17.617  13.125  0.1070 -0.2589  0.2196
16877W        W36411   6.263  16.849   3.123 -0.3065 -0.1602 -0.2815
16878W        W36412  13.940   1.609  13.394 -0.3945 -0.2141  0.2620
16879W        W36413  13.950   3.898   1.465  0.0390 -0.2309 -0.0066
16880W        W36414   2.195   9.549   5.012  0.0489 -0.3969  0.0282
16881W        W36415  15.155   8.592   3.954 -0.1922 -0.1725 -0.1950
16882W        W36416  14.897   2.638  13.883  0.0669 -0.1851 -0.2308
16883W        W36417   8.418  11.139   3.742 -0.1900  0.0489 -0.0628
16884W        W36418  14.688  11.266  14.435  0.1988  0.0840 -0.2043
16885W        W36419   8.213   2.467  13.119 -0.1149  0.1279 -0.1317
16886W        W36420   0.615  14.486   1.729  0.1853 -0.2359  0.0991
16887W        W36421  11.187  14.639   1.256 -0.0108 -0.2055  0.3516
16888W        W36422  10.325  10.607   2.486  0.0931  0.0118  0.0854
16889W        W36423   5.873   7.890  16.166 -0.0027 -0.0534  0.1172
16890W        W36424  10.785   4.982  15.621 -0.0952 -0.0664 -0.1979
16891W        W36425  16.347  12.373   4.389 -0.0919  0.3730 -0.3287
16892W        W36426  13.256   6.903   0.381  0.3023  0.1880 -0.2240
16893W        W36427   2.765   9.921   2.017  0.0148 -0.4175 -0.0687
16894W        W36428   4.859   5.479  15.712  0.0280 -0.2223  0.3173
16895W        W36429   2.329   6.725  13.978  0.4900  0.0240  0.0999
16896W        W36430   5.099  11.592   3.133  0.0190  0.3637 -0.0853
16897W        W36431  10.770  13.478  16.673  0.0918 -0.2218 -0.0343
16898W        W36432  17.768  10.006  11.445 -0.0373  0.1392 -0.0760
16899W        W36433  10.760  13.051  12.281 -0.0242 -0.0507 -0.0512
16900W        W36434   8.535   7.499  11.208  0.2442  0.1908  0.1110
16901W        W36435  14.856   9.156   2.026 -0.3325  0.1192 -0.2088
16902W        W36436  14.400  13.690  13.495  0.4354 -0.0146  0.0656
16903W        W36437  11.111  10.047   4.226  0.0814 -0.0716 -0.0910
16904W        W36438   4.781  11.095   1.336  0.0890  0.1096 -0.0795
16905W        W36439  10.220   1.869  13.425  0.0667  0.0530  0.0676
16906W        W36440   1.121  13.126  13.698  0.2717 -0.3126 -0.1435
16907W        W36441   1.195   4.089  12.561 -0.3302 -0.1992  0.8282
16908W        W36442   0.320   9.177  14.593  0.1206  0.2415 -0.3063
16909W        W36443   9.658   4.626   0.935  0.0120  0.2707 -0.0257
16910W        W36444  16.105   1.897  13.352 -0.0192  0.1739 -0.2542
16911W        W36445   7.784  16.003  15.241 -0.0277  0.2625 -0.1274
16912W        W36446   0.787   0.533   5.147 -0.0248 -0.3001 -0.1428
16913W        W36447   4.657   6.010   0.150 -0.3420 -0.1856  0.1414
16914W        W36448  12.000  10.018   4.223 -0.1122 -0.2484  0.0166
16915W        W36449   5.337  14.617   1.252 -0.0985 -0.0539 -0.1602
16916W        W36450   7.197  10.587  16.430  0.1753  0.0042  0.3793
16917W        W36451   0.605  16.437   4.285  0.3500  0.2457 -0.0472
16918W        W36452   5.956   0.948  14.008  0.1727 -0.0376 -0.0728
16919W        W36453  10.752   6.568   4.303 -0.0229  0.1788 -0.1359
16920W        W36454  12.002   9.804   3.080  0.2724 -0.1189  0.0488
16921W        W36455   9.194   3.504  12.958 -0.2056 -0.0446  0.4497
16922W        W36456  16.875   4.367   2.579  0.0237 -0.0584 -0.0745
16923W        W36457  17.684  14.529   0.811  0.0261  0.2709  0.1976
16924W        W36458   4.807  16.238  15.451 -0.1963  0.1960 -0.2616
16925W        W36459   6.284   3.146  16.221  0.0575 -0.1615 -0.1917
16926W        W36460   8.954   1.134  14.331  0.0922 -0.0390  0.0464
16927W        W36461   1.525  13.975   1.034  0.0267 -0.0218  0.2513
16928W        W36462  12.685   2.482   3.917  0.0521 -0.1048  0.0294
16929W        W36463  14.199  11.980   3.621 -0.0749 -0.2519  0.0271
16930W        W36464   5.777  13.623   0.329  0.2140 -0.1178  0.1140
16931W        W36465  14.025  15.202  12.866 -0.5842  0.3513  0.0202
16932W        W36466  16.624   9.483  11.714 -0.0161 -0.0701  0.5417
16933W        W36467  11.284   0.535  12.461  0.0441 -0.0444  0.2165
16934W        W36468  17.450  12.097   4.668 -0.0346  0.1329 -0.3797
16935W        W36469   2.187   5.664  15.308 -0.0214  0.3141 -0.0456
16936W        W36470   7.777  12.631   1.764 -0.0826 -0.4401  0.1912
16937W        W36471   7.683   1.052   0.195  0.0715 -0.2703 -0.1133
16938W        W36472  14.623   5.844  12.092 -0.1797 -0.4884  0.0469
16939W        W36473  10.941  14.471   4.857  0.4313  0.1381 -0.1272
16940W        W36474  11.168  14.363  16.619 -0.1194 -0.2765  0.0114
16941W        W36475  13.800   8.526  15.025 -0.0547 -0.0903  0.2636
16942W        W36476  16.232   3.484  11.888 -0.3799  0.0908 -0.2619
16943W        W36477   5.934   3.681  12.857  0.1280 -0.0837 -0.1732
16944W        W36478   4.989  10.171  16.342  0.0011  0.1246 -0.0746
16945W        W36479  10.257   0.802  14.395 -0.2686 -0.1078  0.1390
16946W        W36480  17.802   9.260   1.032  0.0388  0.0580  0.0969
16947W        W36481  11.570  12.290   2.258  0.2996 -0.2337  0.1065
16948W        W36482   7.567  17.289  12.149  0.1301  0.2912 -0.1944
16949W        W36483  11.993  12.128  16.359 -0.1605 -0.0594 -0.2382
16950W        W36484  10.096   9.615   0.526  0.0522 -0.1729 -0.0542
16951W        W36485  17.522   3.443   3.780  0.0669 -0.1808  0.0547
16952W        W36486   6.969   6.490   2.522 -0.2689  0.1307 -0.1352
16953W        W36487  14.979   7.912  15.435  0.0630 -0.0517  0.1197
16954W        W36488  11.526  15.027  16.588  0.0851 -0.0381 -0.0323
16955W        W36489  16.982   7.876   4.684 -0.3115 -0.4238  0.0235
16956W        W36490   9.278  11.362   4.821 -0.2257  0.1730 -0.1048
16957W        W36491  11.476  16.829   2.004 -0.3717 -0.2001  0.0157
16958W        W36492  13.081   8.018  13.061 -0.0860  0.2515  0.0195
16959W        W36493   7.235   1.407   2.186  0.2017 -0.0222 -0.0396
16960W        W36494   6.911   0.424   5.137  0.2446 -0.3021  0.0289
16961W        W36495   2.298   0.252   3.804 -0.1552  0.3342 -0.0673
16962W        W36496   6.800   7.972  13.210 -0.0115 -0.1676  0.1147
16963W        W36497   4.599   0.367   3.873  0.2418 -0.1663  0.2051
16964W        W36498   9.332   6.768   2.785 -0.0894  0.0048 -0.0218
16965W        W36499   8.182   0.748   2.667 -0.0213  0.2469 -0.0326
16966W        W36500  13.332   3.870   0.201 -0.1614 -0.1687 -0.0550
16967W        W36501   6.785  11.197  15.051 -0.0534 -0.0376  0.0951
16968W        W36502  13.331  11.654   3.256  0.0210  0.0159  0.2226
16969W        W36503   5.082   3.570  13.476 -0.1268  0.1896  0.1120
16970W        W36504   1.725  13.787   3.789 -0.1290 -0.2345  0.0656
16971W        W36505   9.066  15.899  14.889 -0.2673  0.0983  0.0625
16972W        W36506   8.643   8.856  14.433 -0.0146  0.1002 -0.0560
16973W        W36507  11.580  15.759  15.348  0.2323 -0.1400  0.0971
16974W        W36508   2.897   7.904   3.450 -0.1510  0.0967 -0.0280
16975W        W36509  15.956   2.539  12.994  0.0863 -0.3254 -0.1707
16976W        W36510  12.518   6.079   0.558  0.0605 -0.1246  0.0424
16977W        W36511  16.030   5.893  15.600 -0.1473  0.0631  0.1045
16978W        W36512   8.345   9.868  12.873 -0.3157  0.0713  0.3902
16979W        W36513   0.268   2.921  13.768  0.0214 -0.0255 -0.0052
16980W        W36514   7.374  15.905  14.219 -0.2127 -0.1728 -0.3370
16981W        W36515   9.096  13.174   1.901 -0.2167  0.1503 -0.3337
16982W        W36516  15.503   0.458   4.367 -0.0400 -0.0252  0.2635
16983W        W36517   5.351   8.112  15.435 -0.0103  0.0102 -0.1262
16984W        W36518  11.811   6.590   2.252  0.4500 -0.0685 -0.1848
16985W        W36519  11.407   0.926   0.142  0.0174  0.1230 -0.0907
16986W        W36520   5.589  15.164   2.662 -0.0470 -0.1764 -0.2057
16987W        W36521   9.688   2.699  13.747 -0.0504  0.2633  0.1170
16988W        W36522  16.587   1.464   3.371 -0.2549  0.0950 -0.3086
16989W        W36523  13.380  12.756  15.576  0.3475  0.1305  0.1788
16990W        W36524   0.384   1.490   4.077  0.0610 -0.1494  0.1323
16991W        W36525  12.172  14.595  15.202 -0.0438  0.2287  0.4619
16992W        W36526  14.218  16.816   4.014  0.3409  0.1599 -0.1289
16993W        W36527   3.866  12.694   4.956 -0.3346 -0.1521  0.0749
16994W        W36528   2.092  13.047  14.725 -0.3049  0.2034 -0.0272
16995W        W36529   4.862  12.906   3.752  0.2602  0.0960  0.2054
16996W        W36530  16.210   1.783   2.753 -0.0930 -0.1151 -0.0153
16997W        W36531  13.486   9.357   1.052 -0.2190 -0.0918  0.0721
16998W        W36532   0.912   2.768  15.685 -0.2775 -0.1129 -0.0932
16999W        W36533  17.085   6.636  12.004 -0.2823 -0.0207 -0.1720
17000W        W36534   8.854   2.700   2.292 -0.3615 -0.0584 -0.1304
17001W        W36535   2.605  12.736   1.950 -0.0509  0.1509 -0.0490
17002W        W36536   1.981   4.122  15.693 -0.0482 -0.1867 -0.0787
17003W        W36537  17.419   2.177  15.959  0.2493 -0.1354  0.0220
17004W        W36538   8.534   7.255  12.656 -0.1977 -0.3314  0.3615
17005W        W36539   2.535  12.006   3.126 -0.0009  0.1311  0.3408
17006W        W36540  12.188  14.386   1.944 -0.3005 -0.2195 -0.3970
17007W        W36541   0.658   9.673   4.001 -0.1888  0.0119  0.0372
17008W        W36542   7.040  11.324   2.236 -0.1883  0.0279 -0.1037
17009W        W36543   8.357   3.946   3.600 -0.1916 -0.0080  0.1523
17010W        W36544  17.331  14.859   0.561 -0.1796  0.0176 -0.0820
17011W        W36545   1.900   4.298   0.619  0.2997  0.4352  0.0867
17012W        W36546   6.445  11.293  13.253  0.0564  0.1994  0.0249
17013W        W36547   9.047  10.612   1.916 -0.2689  0.0141  0.3566
17014W        W36548  10.302   3.596  16.297 -0.0323  0.0357 -0.1229
17015W        W36549   2.023  13.736  12.836  0.0534  0.3889  0.0487
17016W        W36550   2.632   3.009  11.743 -0.0932 -0.0008  0.1248
17017W        W36551   5.106  14.462  16.100 -0.1852  0.0669  0.0065
17018W        W36552   4.927   6.930   1.707 -0.0055  0.0558  0.0039
17019W        W36553   8.956   4.178   0.410  0.3665 -0.0409  0.1930
17020W        W36554   9.591  14.229  13.606  0.0792  0.2399  0.3203
17021W        W36555   4.672  10.299  13.993 -0.0043  0.2788  0.1034
17022W        W36556   8.281  15.253   1.350 -0.1273 -0.1063 -0.1560
17023W        W36557   8.434  11.191  13.122 -0.0269 -0.2133 -0.1784
17024W        W36558  15.567   2.036  11.825  0.1170  0.1171  0.4848
17025W        W36559   8.753   2.298   4.825 -0.0106 -0.0989  0.2601
17026W        W36560  13.279   9.581  16.255  0.1688  0.0415  0.0879
17027W        W36561  11.103  15.133   2.264  0.1408  0.1836  0.0508
17028W        W36562   5.722  11.665   5.107  0.2894  0.2524 -0.2104
17029W        W36563   5.268   0.322  11.791 -0.3251 -0.1969  0.1425
17030W        W36564   5.604  16.268  13.613  0.0649  0.0763 -0.0876
17031W        W36565   3.605  17.210   1.447  0.1030  0.0319  0.2909
17032W        W36566  12.220   3.600   3.856 -0.0987  0.1863 -0.4230
17033W        W36567  14.503  12.676  14.553 -0.0289  0.4991  0.1218
17034W        W36568  11.828   4.389   4.081  0.4211  0.2438 -0.2570
17035W        W36569  16.932   0.095   3.781 -0.0032 -0.2613  0.0532
17036W        W36570   4.365   4.656   3.191 -0.1306 -0.0487 -0.2187
17037W        W36571   7.457   1.651  15.088 -0.1143 -0.2214  0.1635
17038W        W36572  13.087   2.740   1.608  0.1240 -0.0170  0.0958
17039W        W36573   1.808  17.280   3.701 -0.0763  0.1200  0.2596
17040W        W36574   1.580  11.264   2.236  0.0477  0.1514  0.2945
17041W        W36575   6.680   0.301   0.079  0.0958 -0.0154  0.1847
17042W        W36576  14.083   5.389  15.061  0.0356  0.1288 -0.1169
17043W        W36577  15.800   7.743  10.504  0.0326 -0.0199 -0.2485
17044W        W36578   0.404  14.858  14.155 -0.0395  0.0766 -0.0985
17045W        W36579   4.449  15.340  16.184  0.3709 -0.2404  0.2119
17046W        W36580   2.462   6.680   2.538  0.1476  0.1109 -0.1237
17047W        W36581  14.348   5.687  12.922 -0.1167 -0.0516  0.1746
17048W        W36582   9.764   6.992   4.725  0.0029 -0.0183 -0.0706
17049W        W36583   5.394  10.069  15.370 -0.1257 -0.0368 -0.0072
17050W        W36584   7.583   7.650   3.568 -0.1400  0.1406  0.0184
17051W        W36585   0.529   5.112   0.570 -0.2056  0.0068  0.1003
17052W        W36586  16.817  16.513   1.417 -0.0243 -0.0062  0.0304
17053W        W36587  16.441   8.870   0.071  0.0561  0.3842 -0.0879
17054W        W36588   3.296   9.011   2.537  0.1789  0.1414  0.2978
17055W        W36589  16.752   4.771   3.313 -0.1134 -0.0375 -0.0816
17056W        W36590   9.122  10.682   4.166  0.4725  0.0140  0.3204
17057W        W36591   1.249   1.783  12.627  0.0191 -0.0766 -0.5429
17058W        W36592  15.680  12.874  12.555  0.2839  0.1865 -0.1190
17059W        W36593   6.562  13.253  16.749 -0.1648 -0.0670  0.0543
17060W        W36594   5.880  17.843  15.546  0.5314  0.0912  0.0905
17061W        W36595   3.930   0.446   2.064  0.0875 -0.0965  0.2467
17062W        W36596   3.279   4.314   0.118  0.2816 -0.0740  0.0648
17063W        W36597   6.761  17.203  14.291  0.3428  0.0207  0.2804
17064W        W36598   4.605  16.045  15.044 -0.0205  0.0596 -0.2883
17065W        W36599   9.748   3.855   2.155  0.2098  0.0025 -0.0458
17066W        W36600   3.686  15.592  15.204 -0.1186  0.1995 -0.2499
17067W        W36601   9.366   9.384   4.475  0.0359 -0.1422 -0.1333
17068W        W36602   0.493  13.492  15.901 -0.1421 -0.2860 -0.4652
17069W        W36603   8.110   4.306   2.043  0.4594  0.2681  0.0120
17070W        W36604   6.191   1.878   1.659  0.1207 -0.0897 -0.1395
17071W        W36605  16.436   0.260  12.265  0.0735  0.0028  0.1310
17072W        W36606  16.864   3.024   1.050 -0.3300 -0.1937  0.3119
17073W        W36607  12.241  13.059   3.970 -0.0060  0.2750 -0.1342
17074W        W36608  17.352   1.064   0.320 -0.1097 -0.0299 -0.0378
17075W        W36609   0.835  14.410   3.915 -0.2751  0.2339 -0.2078
17076W        W36610  17.163   2.532   0.184  0.0465 -0.2302 -0.0444
17077W        W36611  15.339  12.270   4.146 -0.0805 -0.0385 -0.4504
17078W        W36612   5.810  17.641   4.615 -0.3536  0.4163 -0.0769
17079W        W36613   9.860  16.272  16.043  0.0042 -0.1048  0.1460
17080W        W36614   5.435   5.132  14.200  0.2383 -0.0666  0.2945
17081W        W36615   9.220  11.521   1.874 -0.3063  0.3707 -0.1140
17082W        W36616  11.540   5.841  14.036 -0.1571  0.2347 -0.3946
17083W        W36617   0.378  15.747   0.464 -0.1163  0.1110 -0.1357
17084W        W36618  14.706  15.773   1.625 -0.1822  0.1032 -0.0223
17085W        W36619   3.484  15.473  14.177  0.5152 -0.1586  0.4767
17086W        W36620   1.127   7.272   2.481 -0.0277  0.0617  0.2689
17087W        W36621  13.696   8.888  11.929  0.2137  0.0627  0.0932
17088W        W36622   9.189  15.100   4.126 -0.0115  0.0025  0.5545
17089W        W36623  16.413   6.342  15.896  0.1147 -0.1871 -0.0920
17090W        W36624  17.655   8.977  15.404  0.1166 -0.0304 -0.2728
17091W        W36625   7.281   5.191   5.332  0.0208 -0.0081 -0.2043
17092W        W36626  13.641   2.674   1.041 -0.0044  0.1300  0.0693
17093W        W36627   3.563  13.434  13.547  0.1260  0.1959  0.0256
17094W        W36628   0.125   8.479  13.347 -0.2787  0.0724 -0.1124
17095W        W36629   3.176  17.016  12.195 -0.0672 -0.1771 -0.2156
17096W        W36630  15.605  15.497  13.419 -0.0625 -0.0814 -0.0309
17097W        W36631  15.548  14.728  16.189  0.0741 -0.3383  0.1795
17098W        W36632   5.465   3.901   2.715 -0.0934 -0.0210  0.3623
17099W        W36633  12.626  13.932  13.456 -0.2917 -0.0770  0.0061
17100W        W36634   7.157  16.190   2.104  0.1401  0.1820 -0.0779
17101W        W36635   9.501  12.860  12.051 -0.0817 -0.2760  0.2311
17102W        W36636  13.061  11.493   2.042 -0.1675 -0.3194  0.0242
17103W        W36637   9.547   4.687   0.092  0.2000  0.0932 -0.1837
17104W        W36638  11.357  11.422   1.874 -0.4070 -0.5089 -0.0743
17105W        W36639  11.972   9.450  16.055  0.2988  0.2852  0.0682
17106W        W36640   6.486  14.152   4.797  0.0495 -0.4270  0.1588
17107W        W36641   4.703   8.510  15.678  0.1911  0.0147  0.0897
17108W        W36642   2.253   5.342   3.675  0.1193  0.0379 -0.2470
17109W        W36643   6.846   4.566  14.794  0.0351 -0.0399 -0.0735
17110W        W36644   4.337  10.395   5.585  0.0540  0.1765  0.1513
17111W        W36645   6.928  15.912   4.206 -0.1926  0.0690 -0.3922
17112W        W36646   5.593  14.127  16.073 -0.0259  0.0596  0.1095
17113W        W36647   0.050   1.087   4.867 -0.2899  0.1103  0.1376
17114W        W36648  11.820   1.431  16.077 -0.5028 -0.1135 -0.0469
17115W        W36649   4.566  12.827   3.284  0.0117  0.3611  0.0983
17116W        W36650  16.958   3.540  12.410  0.1860  0.2480  0.1423
17117W        W36651  13.410  13.563  12.024 -0.1011  0.1221 -0.3214
17118W        W36652   9.562   2.852  14.450 -0.0162  0.1001  0.2294
17119W        W36653   1.390   0.604  12.810 -0.1237 -0.2167 -0.0285
17120W        W36654  15.824   9.781  14.489  0.0273  0.0322  0.3468
17121W        W36655   8.777   6.654  13.768 -0.0325  0.1816 -0.1359
17122W        W36656   3.784  10.946  14.642  0.0094 -0.1402  0.1351
17123W        W36657   6.016  14.267   0.665 -0.0877  0.2153 -0.0679
17124W        W36658   9.233  13.018  15.248  0.4278  0.2453 -0.0343
17125W        W36659   3.699   4.978  13.277  0.1086  0.0201 -0.0353
17126W        W36660  14.998  11.113   2.797 -0.0728 -0.1253 -0.1560
17127W        W36661   9.890  12.080   0.944  0.3959  0.0494  0.0100
17128W        W36662  13.900  16.620   1.422 -0.0697  0.1084 -0.0003
17129W        W36663   4.240  12.321   0.086 -0.2711 -0.0025 -0.1117
17130W        W36664  16.138   7.505   2.827  0.0883 -0.0875  0.0560
17131W        W36665  16.762   3.870  16.407  0.3063  0.0736 -0.2224
17132W        W36666  14.364   0.519  15.892 -0.1747 -0.0619  0.0170
17133W        W36667   9.504  16.268   3.053  0.2732  0.0297 -0.1697
17134W        W36668   0.627  16.842  15.051  0.1853  0.1194 -0.1943
17135W        W36669  10.330   1.648   4.800 -0.2306  0.3344 -0.0434
17136W        W36670   1.656   5.696   1.088 -0.1055 -0.1796  0.0177
17137W        W36671  15.350  12.069  14.610  0.0296 -0.0355  0.2061
17138W        W36672  15.204   5.701   0.456 -0.3529  0.4241 -0.1368
17139W        W36673  16.001   4.461   0.635 -0.1966 -0.4639 -0.1987
17140W        W36674   1.652  12.895   1.908 -0.3649 -0.2176 -0.3462
17141W        W36675   1.146  10.779  10.972  0.3737  0.0712 -0.0343
17142W        W36676   6.023   0.478   1.619  0.3342 -0.1127 -0.3083
17143W        W36677  14.848  12.719  16.142  0.0997 -0.2805 -0.0512
17144W        W36678   6.959   2.610   0.484  0.0154  0.3731  0.3194
17145W        W36679  13.795  10.819  15.459 -0.2528  0.3277 -0.2011
17146W        W36680   3.321   5.905   5.276 -0.1364 -0.4928  0.1420
17147W        W36681  16.237   0.660   1.700  0.0258 -0.0533  0.0308
17148W        W36682   7.426   4.051   3.609 -0.2034 -0.0742  0.0066
17149W        W36683  10.290  15.428   4.449  0.2102 -0.2341  0.0136
17150W        W36684  10.210   4.937  14.007 -0.0719 -0.1542 -0.0902
17151W        W36685   3.178   2.082   2.742  0.0938  0.2112 -0.1836
17152W        W36686   4.284  12.748  14.434 -0.1569 -0.1714 -0.0205
17153W        W36687   5.384   7.304  12.116  0.2553  0.1042 -0.0320
17154W        W36688  16.856  13.807   3.574 -0.1275  0.1406 -0.1980
17155W        W36689   6.934   6.353  15.903  0.2315  0.5054 -0.2544
17156W        W36690   4.612  10.541  15.395  0.0174  0.1012 -0.1479
17157W        W36691  12.145  14.164  16.187  0.2483  0.1824  0.0539
17158W        W36692   0.577  10.126  13.208 -0.0273  0.0310  0.0057
17159W        W36693   5.503   3.619  10.944 -0.1132  0.0685  0.0225
17160W        W36694   9.747  17.675   0.680 -0.2808 -0.4082  0.2808
17161W        W36695   4.167   2.167  14.106  0.2017  0.0151  0.1282
17162W        W36696   1.353  17.551   3.370 -0.3031  0.0271  0.0327
17163W        W36697  12.675  17.076   1.904 -0.1552 -0.0542  0.1287
17164W        W36698  15.579  12.325  14.012 -0.0640 -0.1040  0.2871
17165W        W36699  15.743  15.611  14.450  0.0882 -0.0408 -0.1226
17166W        W36700   8.147   6.154  12.545 -0.3223  0.2476  0.1174
17167W        W36701   4.571   3.169   4.953  0.0025 -0.0764 -0.1943
17168W        W36702  13.950  14.333  12.283  0.0307 -0.1315  0.0191
17169W        W36703  15.860  17.851  13.719  0.2779  0.4005  0.1734
17170W        W36704   6.344  10.608   4.939  0.0177 -0.0701  0.1240
17171W        W36705  17.169   5.880   0.190 -0.0370  0.0039 -0.0804
17172W        W36706  17.765  16.216  13.096 -0.0329  0.0088 -0.3063
17173W        W36707  10.640   6.239   1.467 -0.0025  0.0706 -0.3795
17174W        W36708  15.849   8.148  11.752 -0.1453  0.1480  0.1477
17175W        W36709  15.811   3.865  14.214  0.3898  0.2641  0.0421
17176W        W36710  15.542   7.621   0.591 -0.3941  0.0312  0.0568
17177W        W36711   3.691   8.110  12.798  0.0883  0.1922  0.1198
17178W        W36712  12.673   6.615  14.471  0.1792 -0.1299 -0.1529
17179W        W36713   1.297   8.787   3.203 -0.4045  0.0250 -0.0861
17180W        W36714  12.419   7.760  14.748  0.0200 -0.3456 -0.0738
17181W        W36715   4.418   7.818   3.361  0.2764 -0.1857  0.0757
17182W        W36716   0.815   1.754   0.550  0.0033  0.0211 -0.1672
17183W        W36717   3.880  13.280   2.159  0.1626  0.1439 -0.1089
17184W        W36718   1.828   3.442  12.806 -0.1601  0.0435 -0.0688
17185W        W36719   3.201   2.006   0.046 -0.0234 -0.0069  0.0374
17186W        W36720   4.199   6.786   0.408  0.0879  0.0562 -0.2415
17187W        W36721  15.618  17.068  13.359  0.1786  0.0197  0.3398
17188W        W36722  12.765  16.332   4.028 -0.0317  0.1357 -0.1918
17189W        W36723  12.451   3.299   3.475  0.0231  0.0815  0.0252
17190W        W36724  12.390  12.315  12.949 -0.2351 -0.1544 -0.0742
17191W        W36725   0.747  12.509  13.707  0.3456 -0.1602 -0.1556
17192W        W36726   1.662  14.313   0.675  0.0065 -0.0775 -0.1116
17193W        W36727  11.953  16.400  13.062 -0.1345 -0.1631 -0.0328
17194W        W36728   1.092  13.224   3.624 -0.0694 -0.0103  0.0447
17195W        W36729  16.153   2.335   2.552 -0.2177  0.2715  0.0739
17196W        W36730  16.512   4.573   2.865 -0.1421 -0.2134 -0.0747
17197W        W36731   0.950  14.171   3.477  0.1179 -0.0885  0.2207
17198W        W36732  15.659  17.814  15.833  0.1273  0.0020  0.1182
17199W        W36733   5.482   8.765  12.174 -0.0582 -0.1909  0.0999
17200W        W36734   2.949   1.794   4.368 -0.0020 -0.2719  0.1634
17201W        W36735  16.898   6.918  14.278  0.0952 -0.1161 -0.0155
17202W        W36736   2.141   8.018  15.123 -0.1980  0.2047  0.1243
17203W        W36737  13.463   6.518   4.806  0.0789  0.1955  0.0931
17204W        W36738  16.600   6.783  16.227  0.1106  0.0947 -0.0269
17205W        W36739   3.068   1.735   1.948 -0.0271 -0.0172 -0.0826
17206W        W36740   6.455   4.902  10.437  0.0668  0.1160 -0.1119
17207W        W36741   1.098   7.173  12.462 -0.0471 -0.1903  0.1633
17208W        W36742   6.068  15.370  13.373 -0.0226  0.1696  0.1007
17209W        W36743   4.039  11.456  11.679  0.2565  0.2759  0.1880
17210W        W36744   9.598  16.814  15.646  0.1690 -0.0505  0.1486
17211W        W36745  10.900  10.955   3.835  0.3001  0.2710  0.0410
17212W        W36746   9.357   8.687  14.318 -0.3218 -0.1603  0.2024
17213W        W36747   1.569  11.996   3.363 -0.4815 -0.0964  0.3355
17214W        W36748  10.045  16.139  12.136  0.1475  0.0923  0.0097
17215W        W36749   5.391  15.867  15.136 -0.1001  0.0929 -0.0216
17216W        W36750   2.026   4.144  12.707 -0.2574 -0.0710  0.0804
17217W        W36751  16.863  13.480  16.678  0.0535 -0.2311 -0.2216
17218W        W36752   1.525  15.251  12.978 -0.0794 -0.0248  0.0373
17219W        W36753   2.346   2.392   3.536  0.0854  0.0396  0.5056
17220W        W36754  16.303  12.095  12.662 -0.0029 -0.1238 -0.0339
17221W        W36755  14.649   8.449   3.999 -0.4649  0.1635 -0.0209
17222W        W36756   6.430  11.479  16.042  0.0491  0.2499 -0.0294
17223W        W36757  15.045  11.008   0.661  0.2546  0.2130 -0.2049
17224W        W36758   1.438   9.542   1.644 -0.1484 -0.0985  0.0419
17225W        W36759  10.343   9.268  14.277  0.2219 -0.2558 -0.0504
17226W        W36760   3.834  15.807  14.279 -0.0217  0.0947  0.2309
17227W        W36761   2.534   3.833   0.370 -0.4399  0.0604  0.0689
17228W        W36762   4.762  13.275   2.328 -0.2297 -0.1451 -0.0922
17229W        W36763   9.063  10.258   1.439 -0.0277 -0.1695  0.0514
17230W        W36764  12.799  11.526  13.107  0.0861 -0.1024 -0.1193
17231W        W36765  16.057   2.068  12.038 -0.3298  0.0557 -0.2943
17232W        W36766   8.966   9.813   1.707 -0.0570 -0.1566 -0.0951
17233W        W36767  16.833   7.323  11.599  0.4670 -0.0653 -0.1003
17234W        W36768   2.501  10.070  14.740  0.1010  0.1557 -0.0312
17235W        W36769   0.010   7.929   3.060 -0.1308 -0.1095 -0.1376
17236W        W36770  11.319   7.763  13.478  0.1488 -0.1537 -0.0972
17237W        W36771   9.809   2.875   3.796 -0.2113 -0.0422  0.3617
17238W        W36772   1.666  16.033   1.490 -0.0495 -0.3015 -0.1231
17239W        W36773   5.056  16.451  12.265  0.3807  0.5330 -0.0186
17240W        W36774   8.087   3.811   0.276 -0.0387  0.3500  0.1174
17241W        W36775  10.626  13.857  12.874  0.3654 -0.1711  0.2671
17242W        W36776   0.175  11.691  15.923 -0.0862  0.0895  0.0800
17243W        W36777   7.393   5.504  16.260  0.0810 -0.0646 -0.0507
17244W        W36778  16.036   1.181   4.088  0.1014 -0.1087  0.1954
17245W        W36779   1.496   6.321   2.490  0.0605  0.1755 -0.5769
17246W        W36780  10.323   7.659   2.583  0.3167 -0.2226 -0.0099
17247W        W36781  13.550   6.692  16.010 -0.1224 -0.0627 -0.0037
17248W        W36782   2.404  11.727   0.529  0.3317 -0.2879  0.0052
17249W        W36783  10.320  15.567   3.924  0.1975  0.0210 -0.3374
17250W        W36784   9.470   5.893   3.861  0.1742  0.1064  0.1884
17251W        W36785   2.474   1.098   3.229  0.2601  0.1682  0.3228
17252W        W36786  17.729   8.556  12.933  0.2942  0.0250  0.0590
17253W        W36787  17.505   2.029   3.891 -0.1108  0.0100 -0.0337
17254W        W36788   8.339  13.334  11.598 -0.4257 -0.1339 -0.2798
17255W        W36789  15.718   0.685  16.187  0.3186  0.0563 -0.1291
17256W        W36790  16.964   8.314  15.753 -0.0674 -0.2100 -0.3413
17257W        W36791  11.726   8.634  13.765  0.0701 -0.0931  0.3643
17258W        W36792   6.521  14.253   0.097  0.0143 -0.3274  0.2485
17259W        W36793   9.863  16.905   1.871 -0.0273 -0.2253  0.0432
17260W        W36794   5.469   4.344  14.585 -0.0724  0.2874 -0.1153
17261W        W36795  10.831  15.196  11.850 -0.4900 -0.1467 -0.0154
17262W        W36796  16.524   6.811  15.715  0.1557 -0.1730 -0.0372
17263W        W36797  12.679  10.784   3.495 -0.0829 -0.0360  0.2485
17264W        W36798   5.924   8.949   0.597  0.0944  0.0998  0.1051
17265W        W36799   7.368  13.048  14.900  0.0291 -0.1483  0.0445
17266W        W36800   5.848  14.901  16.637  0.3050 -0.2069  0.0450
17267W        W36801   0.165   8.000  13.426 -0.0353  0.0820  0.0884
17268W        W36802  16.867  11.692   4.142 -0.0983  0.1532 -0.0615
17269W        W36803   6.041   2.844   1.845  0.0211  0.2415 -0.0636
17270W        W36804  14.294   0.206   1.584  0.2993 -0.0629  0.1977
17271W        W36805  10.115   1.245   4.155  0.3871  0.1139  0.2140
17272W        W36806  16.755  17.033   4.400  0.4041  0.0301 -0.2795
17273W        W36807  12.969  12.668  12.357  0.2287 -0.0228 -0.0272
17274W        W36808  15.902  16.632   1.854 -0.1922 -0.3772  0.1638
17275W        W36809   5.711  13.486  12.934 -0.2293 -0.2351 -0.1785
17276W        W36810  17.487   4.214  11.014 -0.3396 -0.0741 -0.3963
17277W        W36811   3.280   6.703   0.279  0.0054 -0.0018 -0.4846
17278W        W36812   8.276   6.280  13.826  0.1703 -0.3046 -0.1356
17279W        W36813  12.246  11.959  12.625  0.0018 -0.2826  0.1774
17280W        W36814  12.304   7.354   3.442  0.1715 -0.2273  0.3191
17281W        W36815  17.212  11.662   2.153  0.0013  0.0897  0.2704
17282W        W36816   0.387  11.843   0.599  0.0643  0.1664  0.0876
17283W        W36817   6.484  17.725  12.570  0.0239 -0.3727  0.1265
17284W        W36818   5.026   6.441  15.816 -0.4516 -0.1646  0.1174
17285W        W36819  17.327  11.788  13.873  0.1329  0.2115  0.0168
17286W        W36820   8.079   0.756  15.203  0.0736  0.0376 -0.3369
17287W        W36821   6.632  16.012  15.751 -0.0116  0.1157  0.2714
17288W        W36822   2.504   2.816   3.304 -0.0475  0.0565 -0.0192
17289W        W36823  12.684   5.547  13.853 -0.1974  0.0256  0.0336
17290W        W36824   3.982  11.015   3.827  0.2726  0.1393  0.0621
17291W        W36825   1.601  11.904  13.065 -0.4985  0.2101 -0.0372
17292W        W36826   7.596   9.291   1.955  0.0447 -0.0992  0.1399
17293W        W36827  17.489  10.563  15.295  0.1040 -0.4017  0.1447
17294W        W36828   3.774  16.837   4.810  0.0800 -0.3061 -0.0267
17295W        W36829  14.842   4.223   0.115 -0.0334 -0.1549 -0.0196
17296W        W36830  15.373   9.830   2.647  0.1949  0.1582  0.0415
17297W        W36831  14.212   8.467   0.397 -0.1589  0.2132  0.1959
17298W        W36832  11.953  15.793  12.923 -0.2849 -0.3739 -0.1817
17299W        W36833   0.151   5.445   1.383  0.0947 -0.0276  0.1530
17300W        W36834  10.693   3.492  13.836 -0.0771 -0.0436 -0.0243
17301W        W36835   8.088   5.656  16.500  0.0354 -0.1668  0.0431
17302W        W36836   2.144  10.299   1.499 -0.2399  0.1182  0.1804
17303W        W36837   9.221   5.322  11.842  0.0503 -0.6170  0.1203
17304W        W36838   6.976   2.555  12.652 -0.0884  0.0336 -0.1649
17305W        W36839   2.633   2.955  12.592 -0.1726 -0.2357 -0.1239
17306W        W36840   6.085   1.085  13.238  0.0326  0.1570  0.1083
17307W        W36841  16.357   8.220  11.882  0.3237  0.0116 -0.1918
17308W        W36842   3.373   2.403   5.845 -0.3771  0.1420 -0.2022
17309W        W36843  15.015   7.098   3.951  0.1422 -0.0783  0.0873
17310W        W36844  11.794   4.448   2.112  0.2586  0.0294  0.1786
17311W        W36845   7.147   8.609   3.661 -0.2429 -0.3650 -0.0391
17312W        W36846   3.316   7.573   0.547  0.1396  0.0010  0.0598
17313W        W36847  13.526  11.605  14.647 -0.2298  0.1539 -0.2879
17314W        W36848  15.682  15.941  12.516 -0.2187 -0.2328 -0.0188
17315W        W36849   2.302   6.092   3.382 -0.0615  0.0471 -0.2531
17316W        W36850   4.513   9.366   3.914  0.1181 -0.1774 -0.2217
17317W        W36851  17.186   9.453   0.184 -0.3101  0.2592  0.0458
17318W        W36852   6.833   5.434  12.461 -0.1242 -0.1558 -0.1579
17319W        W36853   2.882  12.227  12.908 -0.1173  0.2057 -0.1289
17320W        W36854   2.528   7.099  12.734  0.1873 -0.0459  0.0948
17321W        W36855   1.509  15.809  11.644 -0.0111 -0.1113  0.4062
17322W        W36856  15.501   3.580  15.376  0.1188 -0.4737 -0.1007
17323W        W36857   2.053  10.868   4.243  0.0253 -0.2128 -0.1679
17324W        W36858   4.822   2.453  12.420 -0.0785 -0.5760  0.4388
17325W        W36859   5.901   8.814  15.315  0.0677 -0.1609  0.2021
17326W        W36860  12.489   1.289   1.445 -0.1170 -0.5272  0.1955
17327W        W36861  12.975   6.056  16.681 -0.2568 -0.0835 -0.1910
17328W        W36862   4.258  12.447  12.383  0.2083  0.3021  0.0582
17329W        W36863  10.542   5.881   1.819  0.0849  0.1409  0.0480
17330W        W36864   6.519   2.777  15.892  0.0737 -0.2441 -0.0021
17331W        W36865   7.153   4.098  12.391  0.2229  0.0939  0.0816
17332W        W36866  15.280   7.756   3.309 -0.1919  0.0822  0.0123
17333W        W36867  14.517   0.113   0.617 -0.1087  0.0709 -0.1225
17334W        W36868  12.291   5.391  16.403  0.0240  0.0929 -0.2760
17335W        W36869   8.606   2.977  16.566 -0.0752 -0.1161  0.2866
17336W        W36870  11.254   5.933   4.165  0.0909  0.0685 -0.2953
17337W        W36871   1.667  15.063  14.160  0.2671 -0.4161 -0.0945
17338W        W36872   6.548  11.666  15.078 -0.0387 -0.0728 -0.1043
17339W        W36873   4.121   1.362   2.297 -0.1552 -0.0404  0.0255
17340W        W36874  12.550   6.153  11.913 -0.2488  0.2316 -0.0156
17341W        W36875  17.230  14.287   2.724 -0.0523 -0.2762  0.0667
17342W        W36876   9.119  17.543  16.154  0.2599 -0.1648  0.2073
17343W        W36877  14.613   3.950  13.203  0.0781  0.0521 -0.0017
17344W        W36878   4.741   9.279   4.750  0.0161 -0.1446 -0.3810
17345W        W36879   8.922  12.165  15.735  0.0047  0.2186 -0.1058
17346W        W36880  10.893   8.374   2.546 -0.0180 -0.0120  0.2403
17347W        W36881  15.303  13.462  16.487  0.1679  0.0294 -0.2560
17348W        W36882   6.506  17.335   0.035 -0.1693 -0.1871  0.4439
17349W        W36883   1.133  13.051   0.646  0.0388  0.0617  0.4308
17350W        W36884   7.004  11.528   3.455  0.2051 -0.2545 -0.3310
17351W        W36885  11.287  13.317   2.884  0.0327  0.1838  0.0509
17352W        W36886   3.991  10.512  12.305  0.0006  0.0283 -0.0205
17353W        W36887   6.900  12.630  16.072  0.1455  0.2212  0.1672
17354W        W36888   7.401  16.056  12.789  0.2296 -0.1766  0.0988
17355W        W36889   7.597  13.600   2.899  0.0693  0.0192  0.0347
17356W        W36890  14.373   5.024   0.803 -0.1861 -0.1710  0.3888
17357W        W36891  16.448  15.393  12.796 -0.1349  0.1302  0.0426
17358W        W36892   7.704   1.163  16.432 -0.3733  0.1449  0.0465
17359W        W36893   4.892  16.881   2.914 -0.1122 -0.0551  0.3106
17360W        W36894   2.420  12.925  12.136 -0.1641  0.1530 -0.4076
17361W        W36895   2.905   2.224   4.093 -0.1866 -0.1396 -0.1107
17362W        W36896   3.817   0.252  12.281 -0.1784 -0.2329  0.3137
17363W        W36897   9.176  14.010   0.314  0.1042  0.2924  0.0351
17364W        W36898   4.574   3.917  15.364 -0.3828 -0.0890 -0.2677
17365W        W36899  11.985  14.772   0.906 -0.2154 -0.0409  0.0593
17366W        W36900   1.941  12.818   3.551 -0.0273 -0.0896 -0.0995
17367W        W36901  12.664  17.100   2.891 -0.2027  0.2733  0.0431
17368W        W36902   8.559   1.933  16.047  0.0365  0.1110 -0.1043
17369W        W36903  16.110   4.888  12.994  0.1652  0.1286  0.1406
17370W        W36904   6.188  11.894   2.374  0.0235 -0.1961 -0.3284
17371W        W36905   0.207  10.089   4.556  0.2489 -0.1365  0.0675
17372W        W36906   4.735  16.956   4.544  0.0394 -0.2577 -0.0083
17373W        W36907   8.861   2.270  15.665  0.0584 -0.0521  0.2880
17374W        W36908   7.398  12.668   0.989 -0.1151  0.0743 -0.2020
17375W        W36909  17.220  12.102  16.132 -0.0953  0.3226  0.2008
17376W        W36910  10.949   6.546  14.125 -0.0230  0.2701  0.1207
17377W        W36911   5.098   9.390  13.762  0.0597  0.0523 -0.1698
17378W        W36912   9.662  10.709   2.099 -0.1598 -0.1424 -0.2437
17379W        W36913  15.917   8.619   3.481 -0.0057  0.3141  0.1696
17380W        W36914  17.314   2.505   1.733  0.3702 -0.0005  0.0107
17381W        W36915  14.291   7.019  13.155 -0.2623  0.1486 -0.1123
17382W        W36916   0.452   2.920  12.570 -0.3067  0.0039 -0.2533
17383W        W36917   5.334  17.674  16.119  0.1568  0.1614  0.2321
17384W        W36918   9.887   6.507  15.223  0.0207  0.0208  0.1816
17385W        W36919   0.476   8.728   1.511 -0.1321  0.0435 -0.3004
17386W        W36920   2.180  14.098   4.108 -0.1318 -0.2391  0.1323
17387W        W36921   6.824   0.415   1.575 -0.0912 -0.0056 -0.0624
17388W        W36922   2.122   9.646  14.516  0.1191  0.0656 -0.1090
17389W        W36923   9.359  13.736   3.648  0.2570 -0.0878 -0.1346
17390W        W36924  12.151   5.982   3.978  0.1231  0.4512 -0.1207
17391W        W36925   8.596   6.006   0.544  0.2170  0.1542  0.1443
17392W        W36926   4.205   1.256  13.695  0.1072  0.1497 -0.0837
17393W        W36927   1.362  10.527  16.466  0.2719 -0.3777 -0.1715
17394W        W36928   9.739  16.650  12.980 -0.0400 -0.0186  0.0972
17395W        W36929  13.854   2.538   3.542  0.2338 -0.3245  0.2730
17396W        W36930  11.158   9.219  16.407  0.2173 -0.0559  0.0515
17397W        W36931  17.007   7.179   1.008 -0.0957 -0.1291  0.4200
17398W        W36932   8.507  13.483   1.094  0.2893  0.0933  0.0713
17399W        W36933   8.206   4.522   3.790  0.0598  0.2594 -0.3023
17400W        W36934   3.666   4.349  12.487  0.1092  0.1953 -0.2562
17401W        W36935  16.364   4.102   2.951 -0.0917  0.0113 -0.3955
17402W        W36936  12.739   4.137   3.244  0.1259 -0.1221  0.2906
17403W        W36937   8.695   9.060  15.341  0.1715 -0.1528 -0.2907
17404W        W36938   2.244  10.927  12.346 -0.1174 -0.0858  0.2162
17405W        W36939   3.588  11.708   4.849  0.1347  0.2784  0.2405
17406W        W36940   7.517   3.498   3.161 -0.1109 -0.1730  0.0005
17407W        W36941   6.628   8.365   2.462  0.1785  0.0914  0.1118
17408W        W36942  13.697   8.835  14.217  0.0735 -0.2170  0.2432
17409W        W36943   9.218   3.929  12.086 -0.0940 -0.3457 -0.1369
17410W        W36944   9.418  11.282   0.102 -0.2541 -0.3000  0.0837
17411W        W36945  16.287  17.380   3.488  0.1488 -0.2259  0.1868
17412W        W36946  12.732  14.975   4.587  0.2009  0.0587  0.2957
17413W        W36947   6.968   6.117   1.419  0.4357  0.1429 -0.0920
17414W        W36948   4.477   5.474  12.490  0.2804  0.3473  0.4574
17415W        W36949  13.045  16.275  13.817 -0.2336 -0.0899  0.0752
17416W        W36950   5.080   5.571  13.975 -0.2834  0.3545 -0.0818
17417W        W36951   1.954   1.989  15.000 -0.0348 -0.0381 -0.1261
17418W        W36952   4.784  14.360   4.602  0.2910  0.1255  0.1234
17419W        W36953   7.065   8.233   5.337 -0.0925  0.1533  0.1518
17420W        W36954   8.544   0.525  14.776  0.2267  0.1648  0.0942
17421W        W36955   1.418  14.111   5.161  0.1831 -0.0863 -0.1019
17422W        W36956  15.438   4.253   1.457  0.2261  0.1090 -0.3712
17423W        W36957   8.357   1.387   1.441 -0.1372 -0.3415  0.1123
17424W        W36958  13.689   6.520   3.999 -0.0506  0.1632 -0.3501
17425W        W36959  14.575  15.479   4.501  0.1146 -0.1305 -0.1795
17426W        W36960   3.068   3.788   3.855  0.1143 -0.5724 -0.4162
17427W        W36961   6.523  16.905  16.528 -0.2423  0.3265  0.0654
17428W        W36962  15.966   6.450   4.083 -0.0302  0.0294  0.1390
17429W        W36963   9.445   2.880   1.637  0.0177  0.0900  0.1566
17430W        W36964   1.391  10.998  13.740  0.2551 -0.0856 -0.0234
17431W        W36965   5.390  17.210  15.922  0.2721  0.2224 -0.0851
17432W        W36966   1.067  17.014   4.193  0.0049  0.0306 -0.3243
17433W        W36967  12.995   3.499   1.526 -0.0654 -0.1455 -0.6181
17434W        W36968   5.477   3.595  12.728  0.0019 -0.0599  0.0360
17435W        W36969   8.833  10.615   4.786  0.2379 -0.0964 -0.0612
17436W        W36970   4.354  16.760  14.851  0.0296  0.1378  0.0135
17437W        W36971  15.333   3.893  14.574  0.1848  0.0403 -0.0789
17438W        W36972  11.131   2.715  11.816  0.1957  0.0058  0.0372
17439W        W36973  15.212   1.756  13.233  0.1321  0.0488 -0.3002
17440W        W36974   3.152   9.527  13.410 -0.1401  0.0836 -0.0681
17441W        W36975   9.543  14.682   3.348 -0.1846 -0.2404  0.2256
17442W        W36976  10.265  12.482  14.503 -0.1725  0.2692  0.2019
17443W        W36977  15.676   9.996  12.463  0.0538  0.0502 -0.0020
17444W        W36978   4.257  15.398   0.685  0.0456 -0.1345 -0.3196
17445W        W36979  16.472   5.148  16.138 -0.2231  0.0259  0.5255
17446W        W36980   5.907   3.224  11.951 -0.2512 -0.0582  0.3265
17447W        W36981   3.544  16.878  14.858 -0.2533 -0.1794 -0.0713
17448W        W36982  16.440   1.185  16.075  0.2781 -0.3749 -0.0441
17449W        W36983   9.711   9.823   1.863  0.0335 -0.0244 -0.2360
17450W        W36984  12.292   6.704   0.354 -0.2731  0.0712  0.0562
17451W        W36985  15.951  15.979   4.230 -0.0236  0.0779  0.3097
17452W        W36986  13.346   0.317  12.229 -0.0016  0.1233 -0.0177
17453W        W36987   0.130  16.581  14.543  0.1452  0.0834 -0.2232
17454W        W36988  14.547  12.996   1.124  0.0803  0.1261  0.1642
17455W        W36989   0.069  12.991   3.350 -0.1017 -0.0116  0.0029
17456W        W36990  11.724   4.958  14.596 -0.2970 -0.0276  0.4306
17457W        W36991  14.200   5.478   1.753  0.3251 -0.2348  0.0647
17458W        W36992   9.033   7.814  15.367  0.0764 -0.3469  0.1591
17459W        W36993   1.714  13.005  15.145 -0.1655  0.1275 -0.1831
17460W        W36994  16.708   5.292   2.232 -0.0826  0.1399  0.3451
17461W        W36995   2.221   8.774   5.670 -0.3373  0.1163  0.1720
17462W        W36996   2.769   2.170  13.727 -0.2371  0.2816 -0.0578
17463W        W36997  14.448   5.182   1.354 -0.0679 -0.0941 -0.0239
17464W        W36998  16.821   1.934  15.070 -0.1269 -0.2409 -0.0983
17465W        W36999   9.063   6.931   4.607  0.0725  0.1060  0.2217
17466W        W37000   4.651   4.558   3.830 -0.0291 -0.1426 -0.0698
17467W        W37001   7.880  16.762   3.881 -0.0420 -0.1431 -0.3525
17468W        W37002  12.941  14.147   3.660 -0.1457  0.2381  0.3066
17469W        W37003   2.624  14.475  16.662  0.2542  0.2727  0.1596
17470W        W37004  10.923   0.558  13.457  0.0222 -0.1085  0.1266
17471W        W37005  16.127  15.413   0.493  0.1224 -0.0890 -0.1713
17472W        W37006  14.278   6.398  13.651  0.0010  0.0584 -0.0278
17473W        W37007   3.061  12.454   3.775 -0.3051 -0.1146  0.0619
17474W        W37008   3.182   6.189   2.838 -0.0664 -0.0973 -0.0630
17475W        W37009   8.036  12.785   4.538  0.1548  0.1804 -0.0257
17476W        W37010  12.614   1.400  13.610  0.1017  0.3598  0.0319
17477W        W37011  16.120  14.744  13.674  0.1336 -0.1673  0.0262
17478W        W37012   2.670  10.362  13.298 -0.0936 -0.1552 -0.0268
17479W        W37013  10.054   6.774  14.335  0.1842 -0.0407 -0.1185
17480W        W37014  13.911   5.129  14.648  0.1309  0.0531 -0.1991
17481W        W37015   7.839   5.557  16.015  0.0514  0.0414 -0.1276
17482W        W37016   7.565   2.754  15.811  0.2283  0.2131  0.1510
17483W        W37017   7.902  12.327  13.652  0.0412 -0.2979  0.0597
17484W        W37018   4.169   1.222   0.706  0.3109 -0.1592 -0.1184
17485W        W37019   7.460   0.776   3.615 -0.0574 -0.1440 -0.0647
17486W        W37020  10.496   7.798  16.227 -0.0346  0.2939  0.2044
17487W        W37021   6.811  15.456   4.161  0.3146 -0.2680 -0.1695
17488W        W37022   8.937   1.789   5.382 -0.1031  0.1950  0.0466
17489W        W37023   3.672   9.611   3.832 -0.1852 -0.1266 -0.0318
17490W        W37024   9.403   9.290   1.414  0.1663 -0.0488  0.1334
17491W        W37025  11.908  15.636   2.535 -0.2751  0.1623  0.0906
17492W        W37026  15.572  14.710   0.852  0.1518  0.1235 -0.0490
17493W        W37027   8.913  15.503  16.456 -0.1319 -0.2640  0.1141
17494W        W37028  17.773  10.405  16.401  0.0495 -0.2763  0.1952
17495W        W37029   2.708  10.004   0.583 -0.0062  0.1844  0.0404
17496W        W37030  17.462   8.629  15.734  0.2524  0.1086 -0.0841
17497W        W37031  16.104   5.524   1.884  0.3736  0.0222  0.0071
17498W        W37032  12.080  15.890  15.494 -0.1610  0.1295 -0.2753
17499W        W37033   4.497   8.374  14.215 -0.1045 -0.0707 -0.1391
17500W        W37034   7.562  11.262  14.392  0.1831  0.0154 -0.1304
17501W        W37035  16.194  17.618   0.314  0.4214 -0.0453  0.0893
17502W        W37036  11.114  13.720  12.836  0.2005  0.1181 -0.2838
17503W        W37037   6.533   1.644  11.878  0.2927  0.1588  0.0838
17504W        W37038   8.729  11.006  13.539 -0.1469  0.1967  0.1476
17505W        W37039   7.245   0.580   4.011  0.0166 -0.0973 -0.1064
17506W        W37040   0.952  14.111   4.326 -0.0181 -0.1428 -0.1822
17507W        W37041   8.477  17.661   4.300 -0.1320  0.2562 -0.4817
17508W        W37042   1.609   7.924   0.858  0.2435  0.1106  0.0620
17509W        W37043   1.530  11.802   0.187  0.1217  0.2399  0.2095
17510W        W37044   7.482  11.583  16.085  0.2505  0.3673  0.1463
17511W        W37045   7.924  14.144   4.567  0.0254  0.0407  0.0804
17512W        W37046   0.936  11.888  12.841  0.1563  0.0681 -0.2020
17513W        W37047   4.621  13.811  16.243  0.1272 -0.1001  0.0183
17514W        W37048   3.197  13.289   0.600  0.0201  0.2605 -0.0476
17515W        W37049  17.161   0.666   1.655  0.3304 -0.0320 -0.3392
17516W        W37050  17.476   4.628  15.563 -0.1833 -0.3251 -0.4344
17517W        W37051   4.601   3.750  11.793  0.3021  0.1268 -0.3751
17518W        W37052   3.977   3.027   3.290  0.1828  0.1159 -0.1454
17519W        W37053   3.584  13.405   3.077 -0.5156  0.1802  0.0478
17520W        W37054  15.301   6.593  15.433  0.3365  0.0917 -0.1922
17521W        W37055   8.440  16.860   4.026  0.1102  0.1566  0.0545
17522W        W37056   5.404   9.620   5.118  0.0654  0.2760  0.4171
17523W        W37057  14.399   7.655  14.570 -0.0023  0.1401 -0.2635
17524W        W37058   4.646   4.730   0.128  0.2218  0.1247  0.0676
17525W        W37059   1.823  10.496  13.131 -0.2693 -0.0555  0.1765
17526W        W37060   2.435   6.593   0.372 -0.1448  0.2639 -0.2352
17527W        W37061  17.227   6.320   0.474  0.1733 -0.3174  0.0904
17528W        W37062  16.906   0.536   4.431 -0.1751  0.5078 -0.0584
17529W        W37063   1.230   6.254   3.149 -0.2818  0.2200  0.0074
17530W        W37064  10.601   0.684  14.759  0.1069 -0.1791 -0.2479
17531W        W37065  16.432   5.826   2.710  0.0912  0.1638  0.0644
17532W        W37066  12.141  11.845   0.941  0.3084  0.3385 -0.4889
17533W        W37067   3.787  10.654   4.124 -0.1854  0.0786 -0.0054
17534W        W37068  15.451   2.849   0.089 -0.0982 -0.3351  0.0849
17535W        W37069  14.838  17.101   3.712 -0.0752  0.3688 -0.0539
17536W        W37070   3.932   5.347   4.852 -0.1480 -0.0555  0.1022
17537W        W37071  17.041  16.612  14.587 -0.0060  0.0682  0.0410
17538W        W37072  11.251   0.634  16.030  0.2067 -0.1542 -0.0017
17539W        W37073  15.671  17.293  12.331  0.2923  0.1306 -0.0498
17540W        W37074   8.551   8.930   1.852  0.2668  0.0677  0.1314
17541W        W37075   5.483  13.686  12.448 -0.0254  0.2189  0.0563
17542W        W37076   8.430  17.041  16.668  0.2869  0.0829  0.2581
17543W        W37077   7.939   8.667   2.709 -0.3467  0.0973 -0.1703
17544W        W37078  17.443  13.817   0.562  0.1540  0.1308  0.0913
17545W        W37079   0.711  12.852   4.332  0.1081  0.1336  0.0848
17546W        W37080  12.647   1.155  14.866 -0.0565 -0.0471  0.0856
17547W        W37081  14.424   6.398  14.186  0.0354 -0.1303 -0.0685
17548W        W37082  13.374  15.969  15.057 -0.3231  0.0970 -0.1957
17549W        W37083   5.590   6.993  13.828 -0.1720 -0.2472  0.1539
17550W        W37084   4.752  13.038  15.702  0.1955 -0.3266 -0.0156
17551W        W37085  14.799   3.961   4.812  0.1112 -0.1541  0.2425
17552W        W37086  11.575  10.231  16.543 -0.0221 -0.0421 -0.1610
17553W        W37087  13.188  16.947   3.842 -0.4430 -0.1791  0.1278
17554W        W37088  13.424  16.741  12.267 -0.0449 -0.1238  0.0735
17555W        W37089   5.776  13.098   0.354  0.4127 -0.1251 -0.1587
17556W        W37090   9.195   1.027   0.967  0.1801 -0.2583  0.0844
17557W        W37091   9.211   3.209  16.691 -0.2448  0.0586 -0.2354
17558W        W37092   9.996  12.247   4.375 -0.1646 -0.2170 -0.0800
17559W        W37093  13.315  16.126  15.582  0.1069 -0.2518 -0.0465
17560W        W37094  13.862   9.656  13.505  0.1781 -0.1269  0.0896
17561W        W37095  11.698  11.060   3.773  0.0761 -0.0722  0.0849
17562W        W37096  14.818  17.582   3.889  0.0581  0.2811  0.0304
17563W        W37097   3.315  12.913   0.249 -0.4413 -0.1254  0.0005
17564W        W37098  15.571   5.167  14.940 -0.0669  0.0852 -0.2680
17565W        W37099  15.759  11.755   3.436 -0.0430 -0.1323 -0.0813
17566W        W37100  12.719  11.908  12.796  0.1146  0.1933 -0.0375
17567W        W37101  12.592   7.079   2.666  0.3429 -0.2379  0.2497
17568W        W37102  13.123  15.255   4.160  0.1077  0.0458  0.2437
17569W        W37103   8.391   9.038  15.785  0.4099  0.1739 -0.0583
17570W        W37104  17.277  14.775  12.233  0.2576 -0.0418  0.2903
17571W        W37105   4.388  15.991  15.563  0.1033  0.1013  0.2694
17572W        W37106   4.753  14.976  15.846 -0.0856  0.2903 -0.0814
17573W        W37107  16.530   9.019   2.500 -0.2547 -0.1894  0.1173
17574W        W37108   8.243  15.713   5.018 -0.1527  0.4566 -0.3415
17575W        W37109   7.234  13.693  13.759  0.0849  0.1327  0.2400
17576W        W37110   9.303  11.943   3.552  0.2981 -0.1389 -0.2350
17577W        W37111   4.123   2.681   4.564 -0.2523 -0.0850 -0.1903
17578W        W37112   3.456   3.904  12.540  0.3177  0.1376 -0.0013
17579W        W37113   7.626  15.779  12.089 -0.0205 -0.0583 -0.0251
17580W        W37114   5.959   4.573   3.717  0.1983  0.2013 -0.2568
17581W        W37115   6.416   2.265  13.944  0.3282 -0.0149  0.1915
17582W        W37116   0.086   9.505  16.487 -0.0180 -0.1644  0.0340
17583W        W37117   8.169   5.469   1.351 -0.0023 -0.2976  0.0877
17584W        W37118   1.630  10.153  15.232  0.4144  0.3064 -0.1865
17585W        W37119   5.707   5.710   2.830  0.0527  0.0647  0.0364
17586W        W37120   8.793   9.614   0.827  0.0541 -0.1254 -0.0323
17587W        W37121  17.550   9.993  12.431  0.2196  0.1526  0.1927
17588W        W37122  14.011   6.439   3.537  0.1161  0.2486 -0.1952
17589W        W37123  16.239  15.991   1.770  0.0813 -0.1281 -0.2138
17590W        W37124  12.048   5.746   5.456 -0.1582 -0.3705 -0.2212
17591W        W37125   6.502  10.289   2.671 -0.0361 -0.1463  0.0510
17592W        W37126   9.099   0.198   4.904  0.1182 -0.3276 -0.0287
17593W        W37127   5.908  17.562  14.221  0.0949 -0.1628  0.0866
17594W        W37128   7.314  10.697  12.988 -0.2866  0.1005 -0.2159
17595W        W37129  16.531  10.643   0.334 -0.1044 -0.0016 -0.2420
17596W        W37130  15.175  14.729   4.600  0.0056  0.0202 -0.2801
17597W        W37131   1.344   7.019   0.289 -0.0735  0.0366 -0.0849
17598W        W37132   7.808  11.226   4.064 -0.3392 -0.1237 -0.4372
17599W        W37133  10.719   0.429   1.773 -0.0827  0.1061 -0.0350
17600W        W37134  11.787  15.849   0.441 -0.0481  0.2216 -0.1629
17601W        W37135  14.394   2.457  16.279 -0.0144  0.2707  0.0121
17602W        W37136  15.492   6.067  16.473  0.0676 -0.0337  0.3495
17603W        W37137   8.140   5.060   2.671 -0.2820 -0.2295 -0.2683
17604W        W37138   0.186  14.251  13.142  0.3099  0.1019  0.1730
17605W        W37139   2.899   3.648  13.286  0.1094  0.3806 -0.1904
17606W        W37140  14.106   4.566   4.187 -0.2100  0.0970  0.2072
17607W        W37141  11.457  11.005  14.649 -0.1579  0.3057  0.1205
17608W        W37142   1.469   0.764   3.182  0.1932 -0.2696 -0.1210
17609W        W37143   1.648   7.667   3.015  0.1076  0.2231 -0.3424
17610W        W37144   1.872   3.757   1.851  0.2161 -0.1683  0.1644
17611W        W37145   0.651  10.134   0.371  0.2296  0.4807  0.0492
17612W        W37146  17.264   1.955  15.297  0.0373 -0.1103  0.4610
17613W        W37147   3.311   6.867   1.005 -0.0729  0.1517 -0.3717
17614W        W37148   4.299   5.165   6.554  0.0491  0.0085 -0.2618
17615W        W37149   5.414  10.546  14.429  0.0849 -0.0016 -0.0956
17616W        W37150  12.635   2.478  16.678  0.0045 -0.1069 -0.2518
17617W        W37151  10.253   3.198   1.078 -0.0230  0.3817  0.1135
17618W        W37152  16.149  17.332   2.538 -0.0284 -0.1505  0.2106
17619W        W37153   7.455   1.275   1.121 -0.1683 -0.0337 -0.0585
17620W        W37154   3.298  16.018  15.026 -0.1765  0.0350 -0.1597
17621W        W37155  15.557   8.964  11.606  0.1659 -0.0891 -0.1138
17622W        W37156  16.166  17.770   3.960 -0.0479 -0.0678  0.1832
17623W        W37157   0.033   5.841   0.974 -0.0145 -0.1012 -0.1182
17624W        W37158  11.917  11.023   0.424  0.4100 -0.1416  0.0037
17625W        W37159  10.711   3.114   2.792  0.1551  0.0550 -0.1139
17626W        W37160  11.466  11.964  13.874 -0.0869  0.0315 -0.0223
17627W        W37161   9.413  15.302   3.657 -0.0591 -0.2790  0.0204
17628W        W37162  14.821   7.321  13.266  0.0221  0.0503  0.2220
17629W        W37163  15.236   7.045  15.842  0.2838 -0.1015 -0.0407
17630W        W37164   1.215  12.940  16.461  0.2089 -0.0043 -0.2076
17631W        W37165  16.775   0.268   0.741 -0.2605 -0.2198 -0.1453
17632W        W37166  12.716  12.024  13.320  0.1110 -0.0671 -0.2728
17633W        W37167  13.569  13.590   4.062 -0.0221  0.0464  0.0325
17634W        W37168   1.588  10.180   0.036 -0.0851  0.1772 -0.1247
17635W        W37169  12.177  11.389   0.143 -0.0620  0.0240 -0.0761
17636W        W37170  17.817   1.587  13.015 -0.0161  0.0221 -0.1416
17637W        W37171  15.672   3.408   1.641 -0.2788 -0.0712  0.1147
17638W        W37172  16.732   5.114  14.361  0.1226 -0.0952 -0.0533
17639W        W37173   4.038   8.839   1.493  0.0357  0.1022  0.0815
17640W        W37174  13.947  10.827   1.790 -0.2390 -0.0338  0.2211
17641W        W37175  11.762  12.668   0.368 -0.1295 -0.2244  0.1752
17642W        W37176  10.764   6.143  12.918  0.0192  0.4303  0.0437
17643W        W37177   3.706   7.020   2.739  0.1123  0.3316  0.1752
17644W        W37178   7.765  17.493   3.326 -0.0472  0.3407  0.2898
17645W        W37179   4.864   8.663  13.972 -0.1114 -0.1374 -0.1713
17646W        W37180   2.148   1.242  12.559 -0.2383  0.0836  0.0109
17647W        W37181  12.944  14.514   4.621  0.1140 -0.1115  0.3562
17648W        W37182   4.145  11.821  11.269  0.2423 -0.0028 -0.0285
17649W        W37183   7.166  14.324   2.784 -0.3475 -0.0171  0.2185
17650W        W37184  16.309   5.442  15.790 -0.0929  0.1700  0.0440
17651W        W37185  11.996  14.409   4.717  0.1081  0.0036  0.5083
17652W        W37186   7.463   1.520  13.559  0.0452 -0.0673 -0.2095
17653W        W37187   9.507   8.478  11.916  0.1201  0.1071  0.1668
17654W        W37188   4.091   4.339  12.148  0.1926 -0.1515 -0.0475
17655W        W37189  14.698   9.741   0.521  0.0231 -0.0441 -0.2638
17656W        W37190  12.094  13.052   4.455 -0.1733  0.0277 -0.1962
17657W        W37191   6.182  11.705   3.414  0.0254  0.1856  0.0618
17658W        W37192   6.467  17.516   4.903 -0.2364 -0.2822 -0.1540
17659W        W37193  10.898   0.041  15.173 -0.0847 -0.3032  0.1823
17660W        W37194  15.042  17.524   0.098  0.0213  0.3157  0.0964
17661W        W37195   1.754  13.709   4.805  0.1131  0.1301  0.0697
17662W        W37196   3.898   3.970   1.501  0.1065 -0.0959  0.0920
17663W        W37197   5.511  16.765  16.261 -0.0489 -0.1408 -0.0979
17664W        W37198  16.064   1.701  12.436  0.2745  0.4299 -0.0119
17665W        W37199   2.200   9.563  16.326 -0.1262 -0.0807  0.3444
17666W        W37200   7.016   2.396  13.437 -0.3194 -0.1948 -0.1899
17667W        W37201   7.904   4.731  16.547  0.1848 -0.0030 -0.1549
17668W        W37202  11.049  16.395   1.529  0.0869 -0.2859 -0.0938
17669W        W37203   2.555   3.911   2.680 -0.1132 -0.1521  0.0157
17670W        W37204   8.430  12.338  16.010  0.0869 -0.0283  0.0758
17671W        W37205   5.930   7.490   3.739 -0.0827 -0.0787 -0.1586
17672W        W37206   9.195  12.058  14.859 -0.0058  0.2246  0.0492
17673W        W37207  12.262   9.029  16.534 -0.4410  0.0250  0.3439
17674W        W37208   3.366   3.245   3.681 -0.0342  0.1382  0.0569
17675W        W37209  17.225   5.994   3.702  0.1471 -0.1732 -0.3053
17676W        W37210  11.912   0.282  15.217 -0.2003 -0.0255 -0.1763
17677W        W37211   9.424   2.977   1.048  0.0305 -0.0974  0.3983
17678W        W37212  17.504   4.264   1.368 -0.1248  0.1504  0.1130
17679W        W37213  14.338  16.975  14.104 -0.1129 -0.2439  0.1282
17680W        W37214  12.621   6.859  13.633 -0.2938 -0.1033  0.1459
17681W        W37215   5.643   5.165   5.044  0.3190 -0.1150  0.0319
17682W        W37216  17.081  17.851  13.431 -0.1623  0.4845 -0.2121
17683W        W37217   9.930  17.847  15.716 -0.0748 -0.1534  0.3698
17684W        W37218  13.759   3.414   3.490  0.0998 -0.6239  0.2066
17685W        W37219  14.704   8.319   2.974 -0.2053 -0.1121 -0.2004
17686W        W37220   5.492  12.959   0.785  0.2106  0.0579 -0.0051
17687W        W37221  13.943   0.249  16.574  0.2049 -0.1691  0.0301
17688W        W37222   8.431   3.681  12.116  0.0159  0.0059  0.2285
17689W        W37223  10.287  13.490  12.788 -0.0601  0.4525  0.0486
17690W        W37224   8.080   7.990  15.282 -0.0243  0.0385 -0.0238
17691W        W37225  16.460  11.816   0.295 -0.4098 -0.1081 -0.3369
17692W        W37226  11.458  14.967   2.844 -0.1280 -0.0102  0.4217
17693W        W37227  14.128  12.434   3.105 -0.1387 -0.4026 -0.1251
17694W        W37228   3.159  13.858  13.862  0.0110  0.1294  0.1380
17695W        W37229   8.529   7.119   2.955  0.0475  0.0021 -0.1257
17696W        W37230   8.334   4.238  14.165  0.2113  0.0834  0.2004
17697W        W37231  12.156  10.863  13.369 -0.1316 -0.2308 -0.4108
17698W        W37232   3.187   7.242  12.984  0.4713 -0.1082  0.0294
17699W        W37233   7.877   4.531  16.061 -0.0942  0.2589  0.0739
17700W        W37234   3.361  17.003  13.981 -0.1017 -0.0842 -0.1547
17701W        W37235  16.928   0.008  14.377  0.1580  0.0397  0.2736
17702W        W37236   8.448   4.422   3.300  0.1638  0.0180 -0.0637
17703W        W37237   2.326   8.694   4.328  0.1958  0.0373 -0.2254
17704W        W37238   3.490   9.503   1.578 -0.0194 -0.0675  0.1885
17705W        W37239   1.029   5.566   2.306  0.1534 -0.0268  0.1644
17706W        W37240  10.288   5.596   0.803 -0.2363 -0.1190 -0.0936
17707W        W37241  12.270  11.181   2.404  0.0330 -0.0196 -0.1662
17708W        W37242   0.639   0.403   2.875 -0.2074 -0.1322  0.0143
17709W        W37243  15.419  15.271   3.763 -0.2497  0.0612  0.4133
17710W        W37244   4.308   1.712  16.343  0.1196  0.0485 -0.0653
17711W        W37245   0.602   6.198  12.339 -0.0488 -0.2764 -0.1753
17712W        W37246  14.854   5.738  13.219  0.1204  0.0982  0.3309
17713W        W37247   9.835  10.341   4.590 -0.1630  0.1844 -0.2980
17714W        W37248  13.733  13.317   3.118  0.1000 -0.1958 -0.1888
17715W        W37249  16.851   4.233  14.795  0.2378 -0.1212  0.0619
17716W        W37250   0.764   0.697  12.929  0.0212 -0.2048 -0.2841
17717W        W37251  10.057  17.259   0.922 -0.4410 -0.2661 -0.2566
17718W        W37252   4.218  14.221  15.641 -0.3244  0.1528 -0.4942
17719W        W37253   0.889   8.942  14.529 -0.1244 -0.0582  0.1031
17720W        W37254   7.539  15.449   4.692 -0.0159  0.1559 -0.1803
17721W        W37255   6.032  17.063   3.541 -0.1569  0.2697 -0.3260
17722W        W37256   9.201  17.611   1.989  0.0327  0.1669  0.1180
17723W        W37257  16.494  11.532   3.816  0.0129 -0.1470 -0.0092
17724W        W37258   2.365  17.591  14.830 -0.1403  0.1514 -0.0352
17725W        W37259  10.208  11.139  14.255 -0.2819  0.1284 -0.0433
17726W        W37260  15.238   9.695  14.569  0.3364  0.1818  0.0527
17727W        W37261   1.834  15.612   1.712  0.1732  0.0736  0.2108
17728W        W37262   7.059  13.434  13.329  0.2916 -0.1239  0.2434
17729W        W37263   3.416   5.363   1.764 -0.2633  0.0167  0.2758
17730W        W37264  12.358   5.728   4.337 -0.0298  0.0667  0.0661
17731W        W37265  17.158  15.930   1.878 -0.0150  0.1191 -0.1815
17732W        W37266   4.332  16.168   1.272 -0.0398 -0.0337  0.3932
17733W        W37267   5.661  12.043   2.460 -0.0353  0.0065  0.0532
17734W        W37268  16.660  17.391  11.556  0.4882  0.0454 -0.2829
17735W        W37269   2.788   3.848   1.816 -0.0253 -0.3645 -0.0104
17736W        W37270  12.166   6.403  11.755  0.1223 -0.1690 -0.1594
17737W        W37271  14.166  15.291   2.245 -0.4710 -0.2013  0.1865
17738W        W37272   5.260   9.798   3.317  0.0153 -0.1584  0.0738
17739W        W37273  11.627  15.145   4.161  0.0339 -0.3298 -0.0012
17740W        W37274   7.360   9.816   3.110 -0.0912  0.1886  0.1807
17741W        W37275   0.143  15.724  12.832  0.1884  0.2331 -0.2468
17742W        W37276   1.484  16.889   1.986  0.0220  0.1644 -0.2606
17743W        W37277   6.004  10.018  13.011 -0.1216  0.0358 -0.0827
17744W        W37278   1.991  15.661  15.919  0.1224  0.1892 -0.1011
17745W        W37279   7.784   2.849   2.993  0.1514 -0.0272  0.2215
17746W        W37280   3.995   9.281   1.283  0.0263 -0.1918  0.0741
17747W        W37281  11.634   3.049   3.465 -0.0452 -0.2396  0.0526
17748W        W37282  11.245   3.190  12.629 -0.1533 -0.2577 -0.1773
17749W        W37283   9.193  10.251  12.574  0.1180 -0.0116 -0.1401
17750W        W37284  15.250  12.522   0.699 -0.1059 -0.0983 -0.1509
17751W        W37285   3.284  16.048   1.940 -0.0444  0.0561  0.1067
17752W        W37286  14.265   8.146   4.086 -0.1116  0.0796 -0.1944
17753W        W37287   1.292  11.475   4.517 -0.0905 -0.1855  0.1094
17754W        W37288   6.207   7.636  11.688  0.3754  0.2059  0.1915
17755W        W37289  16.769  16.761  15.032 -0.0842  0.0721 -0.4381
17756W        W37290  16.768   4.710  14.720  0.2306 -0.0425  0.1841
17757W        W37291  15.401  17.653   1.831  0.1923 -0.1824 -0.0551
17758W        W37292   6.442  13.786  11.347 -0.0483  0.1850 -0.0766
17759W        W37293  17.528   6.833  13.485  0.0982 -0.1211  0.0976
17760W        W37294   9.825  17.507   0.143 -0.0905 -0.2450 -0.2081
17761W        W37295   6.119  11.696  14.176  0.4049  0.3890  0.1057
17762W        W37296   8.336  11.061   0.679 -0.1254  0.1922  0.3405
17763W        W37297   2.630  14.040  14.917  0.2152 -0.1114 -0.0806
17764W        W37298   5.991   7.661  16.704  0.1246  0.0142 -0.0884
17765W        W37299  15.582  14.597  11.716 -0.1731 -0.1952  0.1666
17766W        W37300   8.546   0.239   0.572  0.0428 -0.1487  0.0072
17767W        W37301  11.507   6.216   2.916 -0.0383  0.3316 -0.1750
17768W        W37302  17.177   4.631   1.219 -0.1380  0.1166 -0.0173
17769W        W37303   6.877  11.205   0.708  0.0366 -0.4245 -0.3781
17770W        W37304   0.117   8.318  14.881 -0.3555  0.0005 -0.0989
17771W        W37305  16.766  16.567  12.080 -0.1077  0.0427  0.0847
17772W        W37306   2.639   6.406  14.219 -0.1063 -0.2292  0.0102
17773W        W37307   6.479  14.794   5.155  0.1994 -0.2504  0.2469
17774W        W37308   2.042   6.825   0.131  0.1285  0.0173 -0.0717
17775W        W37309  17.553   6.440   2.277 -0.2141  0.2213  0.0249
17776W        W37310  14.607  17.503   0.834 -0.2948 -0.1459 -0.2062
17777W        W37311   4.404  13.114   2.042  0.1939 -0.1210  0.3062
17778W        W37312  11.017  15.633  12.011 -0.2439 -0.1610 -0.2879
17779W        W37313   9.492   9.095  14.011  0.2238  0.1047 -0.0139
17780W        W37314   3.692   4.071   3.270 -0.0423 -0.1564 -0.1744
17781W        W37315   6.543   8.916   0.058 -0.3150  0.2095 -0.3021
17782W        W37316  14.311  14.049  12.105  0.0835 -0.0554 -0.0716
17783W        W37317   4.108  16.241  12.261  0.6553  0.0468 -0.0019
17784W        W37318  16.420   9.585   2.455  0.0412 -0.0547  0.3175
17785W        W37319  10.517  16.237  15.081 -0.0740  0.0411  0.0442
17786W        W37320  11.808   5.573   0.837  0.0548 -0.1318 -0.1283
17787W        W37321  10.280   2.577  12.584  0.1144  0.0319  0.0660
17788W        W37322  15.726   8.924  14.429  0.0977  0.0480 -0.2393
17789W        W37323   9.583   3.349   3.555  0.1340 -0.0130  0.4855
17790W        W37324  17.249   5.977  16.195  0.2723  0.0043  0.3156
17791W        W37325   9.407  13.768  15.336 -0.0682 -0.2561 -0.2859
17792W        W37326   4.216  10.623   0.702  0.1216 -0.2237 -0.0021
17793W        W37327   2.453  13.169   3.876  0.2003 -0.0447  0.2994
17794W        W37328  15.443  12.843   1.079  0.1066  0.0612  0.4024
17795W        W37329   1.655  11.111  12.266  0.1780 -0.1247  0.1863
17796W        W37330   9.667   0.838  16.354 -0.1630  0.3695  0.1092
17797W        W37331   3.616   9.030   3.486  0.1262  0.0031 -0.0434
17798W        W37332  13.147   8.946   4.183  0.1890  0.4153  0.0926
17799W        W37333   3.347   9.594  15.151 -0.0416 -0.3514 -0.0297
17800W        W37334   3.109   1.752  15.993  0.1050 -0.2607  0.2276
17801W        W37335  15.202  11.075  13.422 -0.1832 -0.0384 -0.2145
17802W        W37336  11.597  17.759  16.175  0.1653  0.0942  0.3060
17803W        W37337  14.213   6.469   4.100 -0.1456  0.1878 -0.0412
17804W        W37338   0.807   1.594   1.922  0.0425  0.4348  0.1119
17805W        W37339  14.414   3.471   2.133  0.2366 -0.2859 -0.2093
17806W        W37340   4.795  14.568  15.492  0.1116 -0.0920  0.2981
17807W        W37341   8.451   8.367  12.390  0.0481 -0.1401  0.0921
17808W        W37342  17.057  13.231  15.147  0.3664  0.0101 -0.2029
17809W        W37343  10.538   2.411   1.691 -0.0344  0.0610  0.2931
17810W        W37344   6.741  12.224   2.160 -0.1835  0.0664  0.2252
17811W        W37345   0.518   7.309   5.378  0.0739 -0.0817 -0.3265
17812W        W37346  12.919  16.848   3.189 -0.0532  0.2752  0.0511
17813W        W37347   7.516   2.862  14.218 -0.0017 -0.1287 -0.0121
17814W        W37348   1.942   5.344   2.018 -0.3923 -0.2831  0.0751
17815W        W37349   2.229   1.886   1.438  0.6290  0.0824  0.0048
17816W        W37350  11.961   0.640  13.259  0.4222  0.3059  0.0317
17817W        W37351   7.891  13.221   2.583 -0.0235 -0.1423 -0.1546
17818W        W37352   4.690  12.126   2.536  0.0659  0.0106 -0.0594
17819W        W37353   2.501   7.453   4.529 -0.0825 -0.2755 -0.2311
17820W        W37354   0.412  12.063   3.510  0.2536  0.0942  0.0445
17821W        W37355  12.239   1.755  13.021 -0.1068  0.3933 -0.0404
17822W        W37356   2.663   7.139  13.221 -0.1379 -0.1935 -0.1372
17823W        W37357   6.744   1.951   2.593 -0.2364 -0.0328 -0.0404
17824W        W37358   0.483  16.624  14.202 -0.1458 -0.2296 -0.3237
17825W        W37359   7.836  12.355  16.390  0.0723  0.2432 -0.2488
17826W        W37360   6.647   1.296  14.800 -0.3478 -0.2596 -0.0359
17827W        W37361   8.626   3.057   1.993  0.0867 -0.0341  0.0542
17828W        W37362   2.151   0.956   4.511  0.0767 -0.0910  0.0408
17829W        W37363  14.556  14.908  15.771 -0.0953 -0.0398 -0.0280
17830W        W37364  12.531   3.999   3.798  0.0605 -0.1885 -0.0744
17831W        W37365   8.971  12.421  15.219 -0.1362  0.0510  0.2109
17832W        W37366  14.299   2.699   4.345 -0.0575  0.1166  0.1683
17833W        W37367  15.330   5.183  12.061 -0.1981  0.0872  0.0053
17834W        W37368  12.988   6.270   1.367 -0.1627  0.1534 -0.3497
17835W        W37369   5.561   7.628  14.402 -0.0568 -0.2914 -0.2449
17836W        W37370   2.325   4.459  16.419 -0.3715  0.2117 -0.1874
17837W        W37371   7.221  16.327   4.146 -0.0731  0.0583  0.1176
17838W        W37372  16.836  15.577  13.068  0.2729  0.1031  0.0013
17839W        W37373   6.140  14.615   4.182 -0.0322  0.3687 -0.0139
17840W        W37374   2.963  17.295   4.760  0.2051  0.0435 -0.0271
17841W        W37375  13.580  15.783  16.494  0.1111  0.2927 -0.3321
17842W        W37376  16.014  10.438   3.569  0.2826 -0.0499  0.1951
17843W        W37377   8.203  15.570  13.226 -0.2736 -0.2763 -0.0928
17844W        W37378  10.420   0.837  13.222  0.1240  0.1786 -0.0074
17845W        W37379  14.185  13.910   1.471  0.2443 -0.4023 -0.2112
17846W        W37380   3.594  10.142   0.574  0.0820 -0.0774 -0.1268
17847W        W37381  10.091  14.031   2.186 -0.0409 -0.2391  0.1076
17848W        W37382   6.886  13.556   0.981 -0.2866  0.0637 -0.2062
17849W        W37383   4.638  17.235   5.020 -0.0339  0.5097  0.0821
17850W        W37384   4.485   0.931   5.002  0.1559 -0.2860  0.1619
17851W        W37385   7.225  14.332  12.357 -0.0944  0.1279  0.0562
17852W        W37386  16.133  13.166   4.896 -0.0954  0.1270  0.0962
17853W        W37387  17.717   4.095  12.529 -0.2225  0.0689  0.0869
17854W        W37388  10.713   7.484  12.886 -0.2438 -0.0735  0.0162
17855W        W37389   9.323  13.420  12.506 -0.2045 -0.1928 -0.0136
17856W        W37390  17.423   0.188   3.493 -0.2224 -0.0216  0.0317
17857W        W37391  16.029   0.039   5.159  0.2285  0.1673  0.2060
17858W        W37392   2.630  14.915  15.953  0.0839 -0.1886 -0.0117
17859W        W37393  17.793   3.435   2.488  0.3138 -0.1249 -0.0756
17860W        W37394  13.074   2.964   0.202  0.1695 -0.0855 -0.1377
17861W        W37395   9.856   8.182  14.737 -0.3830  0.1094 -0.3142
17862W        W37396  14.780   0.232   2.570 -0.1312  0.1210 -0.1088
17863W        W37397   9.064  14.522  12.799  0.1082 -0.2019  0.0169
17864W        W37398   3.432   2.766   0.234  0.2075  0.4009 -0.0783
17865W        W37399   9.752   4.228  12.458 -0.1735 -0.1955 -0.0481
17866W        W37400   7.825  16.950  13.178 -0.2140 -0.1444  0.1601
17867W        W37401   1.649   3.381  13.713 -0.2252 -0.3125  0.1190
17868W        W37402   1.211   6.174  14.943  0.1292 -0.0085  0.0553
17869W        W37403   4.409   1.052  15.061  0.3205 -0.1572  0.1244
17870W        W37404   6.562  17.152  13.204  0.2759  0.0029 -0.3829
17871W        W37405   3.518  16.946   3.075  0.1770  0.1793  0.1598
17872W        W37406   3.810   9.029   1.889 -0.3214 -0.2890 -0.4731
17873W        W37407  17.724   6.001  13.812  0.0767  0.1830  0.2702
17874W        W37408   0.334   1.534  14.230  0.1201 -0.1640  0.0914
17875W        W37409   6.263   8.440  12.403 -0.3021 -0.4855 -0.2554
17876W        W37410   8.034  15.276   3.555 -0.2007  0.0993  0.2583
17877W        W37411  14.100   1.235   2.477  0.3089 -0.1925  0.0206
17878W        W37412  13.601  17.738   0.540  0.3292  0.1146  0.2071
17879W        W37413   7.252  14.425  13.245 -0.2203 -0.0178 -0.1257
17880W        W37414  16.660   4.213  15.303 -0.0300  0.1414 -0.1611
17881W        W37415   7.810   8.741  16.397  0.5322 -0.1550  0.2040
17882W        W37416   6.637  14.382   3.453 -0.0212 -0.0319  0.0927
17883W        W37417   5.831   0.415  12.139 -0.0938  0.1462  0.3463
17884W        W37418  16.300  17.017  15.771 -0.5416  0.0112  0.1441
17885W        W37419   9.338   1.352  11.028 -0.0532  0.1274  0.1456
17886W        W37420   8.462  11.453   0.375  0.0856  0.1701 -0.1427
17887W        W37421  17.228  14.395  14.660 -0.2554  0.0263  0.0662
17888W        W37422   1.424  15.647  12.603 -0.2052 -0.2194  0.2596
17889W        W37423  15.558  12.380   2.275 -0.2439  0.0743 -0.2278
17890W        W37424   5.388  17.770  14.194  0.1031  0.1601  0.2262
17891W        W37425  13.169   7.879   4.411  0.1543 -0.1765  0.2334
17892W        W37426   7.690   2.514   5.160  0.1319  0.0216 -0.0310
17893W        W37427   6.420  13.075   2.934  0.1069  0.1549 -0.0727
17894W        W37428  17.496   3.336   3.230  0.1842  0.2357  0.5605
17895W        W37429   4.549  15.358  15.640 -0.3762  0.1063  0.2406
17896W        W37430   4.725   6.937   4.761  0.1747  0.1260  0.2134
17897W        W37431   6.733   6.582  10.504  0.1652 -0.2343 -0.1458
17898W        W37432   7.818   9.617  14.343  0.0707 -0.2753  0.2398
17899W        W37433   5.443  15.847  14.634 -0.1915 -0.2709  0.1408
17900W        W37434   1.920   8.752  14.466  0.1342  0.0854 -0.1581
17901W        W37435   1.285  13.105   2.469 -0.0956  0.1100  0.1513
17902W        W37436   1.854  11.564   1.904  0.3237  0.2067  0.2691
17903W        W37437  12.857  14.505  13.928  0.2388 -0.1473  0.4090
17904W        W37438   8.609  17.185   4.354  0.0955  0.1897 -0.2567
17905W        W37439  17.125  12.496   0.089 -0.0441 -0.2010  0.0993
17906W        W37440   4.389   8.460   2.914 -0.1075 -0.1898  0.0646
17907W        W37441   1.382  12.221   2.479 -0.1168  0.0051  0.1518
17908W        W37442   9.290  10.280   0.554  0.1430 -0.0046  0.0344
17909W        W37443   8.043   3.135  14.847 -0.1265  0.1016 -0.2165
17910W        W37444   5.149   0.584  16.595  0.1093  0.3835 -0.2325
17911W        W37445   6.964  15.991   0.429 -0.1615 -0.0859  0.0930
17912W        W37446   1.316  13.921   0.551  0.1660 -0.0094 -0.1944
17913W        W37447   2.290   3.875   3.434 -0.0534 -0.0616 -0.1402
17914W        W37448   9.370  16.419  14.397  0.0048 -0.4349  0.2098
17915W        W37449  12.696   3.387  15.834 -0.2089  0.0747  0.2461
17916W        W37450   6.699   7.326  13.682  0.2698 -0.0452 -0.0811
17917W        W37451   4.961   0.594   2.984 -0.5258  0.0706 -0.0826
17918W        W37452  14.910  16.273   0.503 -0.1207  0.0052 -0.2382
17919W        W37453   1.836  10.195  13.606  0.1132 -0.3049  0.0795
17920W        W37454   3.412  11.418  12.256  0.1581  0.0760 -0.2179
17921W        W37455   0.348  17.140   4.285 -0.1030  0.0460  0.0737
17922W        W37456  13.616  16.400  15.015 -0.2224  0.1092 -0.1486
17923W        W37457  13.260   1.227  16.238 -0.0837  0.0420  0.1071
17924W        W37458  13.747   9.776   1.230 -0.0177  0.0965  0.0340
17925W        W37459   7.145  13.918   1.701  0.0025 -0.0065  0.0246
17926W        W37460   9.700   7.351  14.207  0.1230  0.1655  0.0631
17927W        W37461   1.250   3.938   3.489 -0.1250 -0.1658  0.0106
17928W        W37462  16.673  13.020  13.423  0.1468  0.1069  0.0031
17929W        W37463  14.774   0.626   0.078  0.1386 -0.1320 -0.2290
17930W        W37464  11.772   0.157  12.840  0.1136 -0.0994 -0.0725
17931W        W37465  16.090   7.195  15.709  0.0178 -0.2819 -0.1291
17932W        W37466   0.264   2.709  16.545 -0.2387 -0.1057 -0.0354
17933W        W37467   1.911   5.676   3.522 -0.1071  0.1708 -0.1384
17934W        W37468  10.631   9.179   4.095  0.1158 -0.1491 -0.0073
17935W        W37469   2.466  11.180  12.729 -0.4488 -0.0710  0.3356
17936W        W37470   0.161  16.221   1.909 -0.0375  0.3117 -0.1037
17937W        W37471   5.481  12.908  12.614  0.0946 -0.3347 -0.0877
17938W        W37472   7.645   1.171  11.556 -0.2577  0.1644 -0.0486
17939W        W37473   6.266   6.841  16.492 -0.0696 -0.2252  0.0027
17940W        W37474  12.741   7.008  16.293  0.1244 -0.0794 -0.0879
17941W        W37475   8.785  13.796   3.659 -0.0596  0.1366 -0.0238
17942W        W37476  17.368   4.453  14.751  0.0321 -0.0361  0.2365
17943W        W37477  10.664   2.304  15.609  0.4387 -0.2093 -0.0640
17944W        W37478   9.881  12.238  13.063  0.0355 -0.2560  0.0720
17945W        W37479   2.502   5.149   4.993  0.2085  0.0858  0.1710
17946W        W37480   5.643  14.114  15.257  0.2306  0.1827 -0.1208
17947W        W37481   8.758   1.325   5.365 -0.0157 -0.1459 -0.0767
17948W        W37482   7.104   4.414   4.434 -0.2366  0.3403 -0.3197
17949W        W37483   4.903   5.044  16.582  0.0835 -0.0153  0.0483
17950W        W37484   8.619   2.762  15.479  0.1192 -0.4068  0.1330
17951W        W37485  11.757   9.898  15.264  0.2827 -0.0955 -0.1427
17952W        W37486  11.162   9.109  14.548 -0.1003 -0.0532  0.0835
17953W        W37487   1.622   0.138  12.953  0.2002 -0.1753 -0.1416
17954W        W37488   6.679   1.503  12.406 -0.3455  0.1203 -0.0353
17955W        W37489   5.264   5.635   2.616 -0.2357  0.1735 -0.2265
17956W        W37490  17.608   6.127  14.336  0.2593  0.3615  0.2411
17957W        W37491  10.148   3.993  12.736 -0.0741 -0.0413 -0.2586
17958W        W37492   8.465  10.159   2.769  0.2127 -0.0597 -0.0316
17959W        W37493   1.681   7.216   2.088  0.0731  0.0644  0.1689
17960W        W37494   0.936  14.735   5.133 -0.0348 -0.1450  0.1872
17961W        W37495  17.059   0.280   2.198 -0.1276 -0.0986 -0.2300
17962W        W37496   4.413  11.994  13.620 -0.2760  0.3607 -0.2050
17963W        W37497   2.095   6.276   4.643 -0.2662 -0.0836 -0.0245
17964W        W37498  10.848   3.925  15.096 -0.1192  0.2043 -0.1979
17965W        W37499  14.722  13.307   2.890 -0.0329  0.3242  0.1714
17966W        W37500  16.411   1.540   4.203 -0.0241 -0.2032  0.1464
17967W        W37501   7.227  17.533   2.406 -0.1586  0.0531  0.0741
17968W        W37502   5.721   5.239   5.644 -0.0060 -0.1485 -0.0614
17969W        W37503  13.953   5.629  11.441  0.1862  0.6031  0.1049
17970W        W37504  14.385   1.788  12.586 -0.1426 -0.0584 -0.4028
17971W        W37505   3.503  17.798  12.554 -0.3303 -0.3393 -0.1668
17972W        W37506  12.138   2.610  11.810  0.1176  0.3919  0.0985
17973W        W37507   8.291  10.756  13.337 -0.1140 -0.3547 -0.1318
17974W        W37508   1.241   4.518   3.371  0.3390  0.1803 -0.2230
17975W        W37509   6.137  17.593   0.031 -0.1649 -0.0715 -0.6046
17976W        W37510   3.998   1.948   3.369 -0.0251  0.1258 -0.1398
17977W        W37511  10.494   3.682   2.834  0.1121 -0.2578  0.1363
17978W        W37512  13.948   2.055  14.592 -0.2020  0.0288  0.0194
17979W        W37513  10.809  13.747   3.285  0.6280 -0.3193 -0.0800
17980W        W37514   8.403  15.792  13.730  0.0238  0.2604  0.0628
17981W        W37515  15.774  11.650  16.509  0.0118  0.2448 -0.1337
17982W        W37516   9.740   1.132  13.873 -0.4647 -0.1505  0.0512
17983W        W37517   4.639   7.502   0.491  0.2082 -0.0271 -0.0845
17984W        W37518  16.872   6.950   3.690 -0.0452  0.1826  0.1850
17985W        W37519   3.125  13.980  14.932 -0.0620  0.2015  0.0281
17986W        W37520  13.482  11.776  14.154 -0.1757  0.3414 -0.0751
17987W        W37521  10.546   0.502   2.239  0.1076 -0.1736  0.1956
17988W        W37522   4.065   6.724   3.571 -0.0087 -0.1506  0.1438
17989W        W37523  13.205   8.626  14.249 -0.0108  0.0097 -0.6488
17990W        W37524   6.158   2.815   3.783  0.1242 -0.1601 -0.2203
17991W        W37525   9.274  10.851  13.317 -0.2189  0.0843  0.2165
17992W        W37526   8.779  15.949   3.664  0.2175  0.3341  0.2009
17993W        W37527   5.249  14.326  16.567  0.1448 -0.1286 -0.0436
17994W        W37528   3.380  14.709   3.168 -0.1514  0.2142  0.1590
17995W        W37529   5.857   0.191  14.983 -0.1929 -0.0070  0.0483
17996W        W37530  14.031  17.082  16.249  0.0788 -0.0186  0.0491
17997W        W37531  10.285   5.341   0.300 -0.0998 -0.0761  0.1125
17998W        W37532  17.650   4.374  12.937 -0.2268  0.2863  0.1182
17999W        W37533  12.893   1.733   1.332  0.1050 -0.1270  0.1045
18000W        W37534   4.684   6.935   0.480 -0.0195 -0.1047 -0.0461
18001W        W37535  14.369   6.037   4.995 -0.1501  0.2537 -0.3407
18002W        W37536   2.475  17.165  12.114  0.2469 -0.2640 -0.1930
18003W        W37537   7.159   8.300  13.158  0.0640  0.0906 -0.2053
18004W        W37538   9.685   8.279  16.738  0.1403  0.2858 -0.1251
18005W        W37539  17.459  15.940   0.426  0.0647  0.1038  0.1607
18006W        W37540  14.843  17.795  13.171 -0.0772 -0.2926 -0.0762
18007W        W37541   4.372   3.954   0.773 -0.2020  0.0969  0.1140
18008W        W37542  11.970   2.615   2.183  0.0158 -0.2104  0.2281
18009W        W37543   0.878  15.401  12.709 -0.0794 -0.2246  0.2458
18010W        W37544   2.995  14.143  16.567 -0.0949 -0.2265  0.3489
18011W        W37545  13.336   5.804   1.722  0.3463  0.0209  0.1518
18012W        W37546  14.222   8.317  16.021  0.4840 -0.1067  0.0861
18013W        W37547   8.115  17.244  12.896  0.0804  0.0002  0.0211
18014W        W37548  14.367  12.701   2.715  0.0140  0.0492  0.0248
18015W        W37549   4.785  16.139   4.373  0.0558 -0.1398  0.0276
18016W        W37550   1.634   8.588  16.522  0.2272  0.3567  0.3280
18017W        W37551  14.266  17.847  14.753  0.1440 -0.0940  0.4783
18018W        W37552   5.413   5.629  12.522  0.1260  0.1476 -0.1034
18019W        W37553  10.668  11.625   0.437 -0.1194 -0.3351  0.0661
18020W        W37554  12.399  14.036  13.994  0.1313  0.0861  0.1548
18021W        W37555   2.261   4.639   1.359 -0.1906  0.1551 -0.0221
18022W        W37556   2.199  10.507  13.501  0.3212  0.4430 -0.1014
18023W        W37557  10.399  14.238   3.964  0.0231  0.3750 -0.0146
18024W        W37558  10.664  16.629  13.117  0.3702  0.2160 -0.0033
18025W        W37559  15.471  13.614   0.695 -0.0305 -0.1034 -0.2499
18026W        W37560  15.465  16.606   2.115  0.0795 -0.2182 -0.4378
18027W        W37561  14.845   3.306   2.291 -0.1018  0.3657 -0.1254
18028W        W37562  16.903  17.510   1.147  0.0766  0.0167 -0.0083
18029W        W37563  14.456  15.374   1.726  0.1972 -0.0842  0.1045
18030W        W37564  11.952   2.748   3.267  0.1391  0.0748  0.0730
18031W        W37565   2.800  15.301  15.583  0.0505 -0.0278  0.1439
18032W        W37566   9.497   7.471   4.968  0.1606 -0.1001  0.2571
18033W        W37567   1.129  17.629   1.970  0.2321 -0.1711  0.2839
18034W        W37568  16.474   3.583  12.321 -0.3978 -0.0192  0.0574
18035W        W37569  13.979   9.913   1.608  0.1545  0.0459 -0.3141
18036W        W37570   4.752  17.060   1.242  0.0183 -0.0576  0.2050
18037W        W37571   2.776   8.631   2.464 -0.1425 -0.1502  0.0675
18038W        W37572   2.245   3.691  14.889  0.0879 -0.0805 -0.3621
18039W        W37573  12.512   1.498  10.917  0.4095 -0.2314  0.0735
18040W        W37574  14.773   9.695   1.077  0.2583  0.0013  0.4195
18041W        W37575   2.560  10.220   0.139  0.0462  0.3485  0.1935
18042W        W37576   2.441  12.817   1.181 -0.0619  0.0557 -0.2066
18043W        W37577   4.739  16.536  15.047 -0.0409  0.0351  0.2082
18044W        W37578  16.688   3.822  15.028 -0.1995 -0.0057  0.0371
18045W        W37579   7.946  13.065  14.178 -0.1833  0.3699 -0.0252
18046W        W37580   8.758  17.044  13.113 -0.0341  0.1772 -0.2459
18047W        W37581  16.225  13.298  14.050  0.0728  0.0089 -0.1524
18048W        W37582   6.535   0.792  12.494  0.0375 -0.0494  0.1742
18049W        W37583  16.143  13.020   0.424 -0.2313  0.0158  0.1463
18050W        W37584  13.749   7.867  11.953 -0.0098  0.1235  0.3179
18051W        W37585  10.506   5.186  14.682  0.1017 -0.3256  0.2704
18052W        W37586   1.731   7.962  13.728 -0.0127  0.0966  0.0543
18053W        W37587   7.742   2.265  12.453  0.1271 -0.0664 -0.1757
18054W        W37588  11.972  13.696  14.108 -0.2628 -0.2367  0.0018
18055W        W37589   2.198  16.093  15.915 -0.1269 -0.5280 -0.0977
18056W        W37590   6.255   1.237   0.052 -0.0064  0.2039  0.0598
18057W        W37591  14.509  12.479   2.294 -0.0843 -0.0673  0.1136
18058W        W37592   5.327  12.325   1.082 -0.1817 -0.2750 -0.1585
18059W        W37593  12.379  12.512   3.969 -0.1514  0.2966 -0.1307
18060W        W37594  15.511   4.497  14.659  0.0603 -0.2939  0.1019
18061W        W37595  17.282  13.799  15.896 -0.0011 -0.2181  0.4633
18062W        W37596   1.055  10.207   3.499  0.0254  0.0913 -0.2296
18063W        W37597   5.307  11.833   2.073  0.2406 -0.1809 -0.3463
18064W        W37598   3.952  12.650   4.130  0.1062 -0.0051  0.2618
18065W        W37599   7.776   2.310  15.717 -0.2150  0.5701  0.2583
18066W        W37600  12.777   9.877  12.597  0.0560 -0.1118  0.0935
18067W        W37601  13.624   0.006   0.080  0.0174  0.0476 -0.0530
18068W        W37602   2.346   6.121   0.010  0.0663  0.0263  0.1911
18069W        W37603   6.166   5.529   3.763 -0.0987 -0.1777 -0.1354
18070W        W37604   3.467  14.417  15.703 -0.2041 -0.0021 -0.2517
18071W        W37605   6.558   1.876  13.408  0.0421  0.0173 -0.1428
18072W        W37606   5.045   1.989  12.769  0.1600  0.1457  0.0740
18073W        W37607  10.743   6.312   0.480  0.1052  0.2102  0.0981
18074W        W37608  10.037  13.016   2.461 -0.0930 -0.1274 -0.0447
18075W        W37609   4.346   0.927  13.329  0.2639 -0.0846  0.1563
18076W        W37610  13.766   2.704  11.811 -0.0684 -0.0492 -0.1776
18077W        W37611   6.929   6.193  15.064  0.1402  0.1486  0.1663
18078W        W37612  15.707   2.360  16.220 -0.3332  0.1541 -0.0941
18079W        W37613  11.038   8.651  14.687  0.2519 -0.0853 -0.0793
18080W        W37614  12.757   4.972   2.891 -0.1984  0.0919  0.0186
18081W        W37615  10.031   8.631  13.052  0.3218 -0.1343  0.0675
18082W        W37616  10.083   8.109  12.677  0.5454  0.2946  0.0548
18083W        W37617  12.407   0.338  15.895  0.1857 -0.2163  0.0739
18084W        W37618  16.427   3.648   2.031 -0.1689 -0.0032 -0.2648
18085W        W37619   5.490   1.779  16.030 -0.3666  0.3046  0.1795
18086W        W37620   5.868  15.888  13.425  0.2279 -0.3620 -0.0950
18087W        W37621   6.389   1.920  16.176  0.1014  0.1462 -0.1876
18088W        W37622   3.288   2.711   1.681 -0.1508  0.1531  0.1418
18089W        W37623   3.774   1.075   4.672  0.1834  0.3019  0.0696
18090W        W37624  11.440   3.920  12.009  0.2354  0.2965 -0.1714
18091W        W37625  13.095  16.814  14.938 -0.0944  0.0489  0.1334
18092W        W37626  17.621   8.192   2.652 -0.0707 -0.0441  0.2760
18093W        W37627  17.035  12.997  14.596 -0.2391  0.1519 -0.1858
18094W        W37628  17.076   1.375   3.320  0.0718  0.2051 -0.0474
18095W        W37629   2.638  14.003   0.150 -0.0194 -0.0450  0.2284
18096W        W37630   7.457  10.157  15.530  0.2122 -0.1529 -0.3323
18097W        W37631  10.606   6.141   3.022 -0.3788 -0.0924 -0.1372
18098W        W37632  14.244   8.887  14.530 -0.1887 -0.1147  0.1025
18099W        W37633  17.523   8.851   0.828  0.1720 -0.0780 -0.0979
18100W        W37634   5.679  10.374  13.216  0.0144  0.0427 -0.1819
18101W        W37635   7.160   3.170  14.492 -0.1262  0.1749  0.1609
18102W        W37636   4.450  10.916   3.682 -0.2516  0.1031 -0.1515
18103W        W37637   6.301  11.522   4.409  0.1989  0.1376 -0.0090
18104W        W37638   2.771  17.664   4.980  0.1958  0.2882  0.0585
18105W        W37639  12.295   0.288  16.640 -0.1715 -0.0965  0.0421
18106W        W37640   2.511  10.931   0.265  0.1859  0.1964  0.0546
18107W        W37641  13.059  12.479  13.361 -0.0022 -0.0012  0.2100
18108W        W37642   3.125  17.770  14.523 -0.1108 -0.0957  0.0168
18109W        W37643   6.297  14.530  13.556  0.1476  0.0455  0.0508
18110W        W37644  16.319  14.655   3.667  0.0438  0.0672  0.2508
18111W        W37645   9.751   6.027   3.446 -0.0225 -0.0961 -0.1691
18112W        W37646   6.188   2.631  13.727  0.1363  0.0996  0.2297
18113W        W37647  13.562   3.420   2.275 -0.0124 -0.1581 -0.0013
18114W        W37648  17.683  10.568   1.225  0.1029 -0.2541  0.1404
18115W        W37649   1.722  15.074   2.034 -0.0660  0.3974  0.2727
18116W        W37650   0.510   9.152  16.683 -0.4383  0.0236 -0.0403
18117W        W37651  13.088  17.871  13.146  0.0864 -0.1492  0.0992
18118W        W37652  13.834  12.331   2.708  0.2567  0.4438 -0.0506
18119W        W37653   6.603  15.811   1.047  0.2511 -0.3850  0.0171
18120W        W37654   6.134  12.791   0.702  0.0349 -0.4167 -0.2303
18121W        W37655   2.595   5.802  16.241 -0.1992  0.0340  0.1195
18122W        W37656   5.177   6.616   0.718  0.0974  0.0582 -0.0237
18123W        W37657  12.712  16.670   2.274 -0.0301  0.2605 -0.0381
18124W        W37658   4.280   1.098   4.562  0.1395  0.2491 -0.0343
18125W        W37659   6.739   8.345   0.142  0.0988 -0.0636  0.0455
18126W        W37660  16.790   6.039  12.640 -0.0543  0.0986 -0.2007
18127W        W37661  13.357   1.990  16.455 -0.1841  0.3732 -0.2677
18128W        W37662   8.841   4.624   5.273 -0.1642  0.0175  0.2563
18129W        W37663   3.415   8.915  15.331 -0.1386 -0.0976 -0.0926
18130W        W37664   9.247   2.791  13.570 -0.0614 -0.0366 -0.0322
18131W        W37665   8.733   5.087  11.749  0.3119  0.0802  0.3012
18132W        W37666  17.742  16.098   3.878 -0.0354 -0.1477 -0.0988
18133W        W37667  15.855   9.406   3.100 -0.1911 -0.6429 -0.2782
18134W        W37668  11.911  17.786   2.096  0.2675 -0.0231 -0.1704
18135W        W37669  14.700  14.994   3.713  0.2261  0.0740 -0.3013
18136W        W37670  14.843  16.189  14.711 -0.4590  0.1383  0.2429
18137W        W37671  10.855  15.168  12.850  0.2659 -0.2644 -0.2119
18138W        W37672  10.510  17.689   2.459 -0.1323  0.2179 -0.2313
18139W        W37673   1.938  14.267   3.148 -0.2009  0.1307 -0.1596
18140W        W37674  10.694  17.849  14.736 -0.1828  0.0533  0.0002
18141W        W37675  17.652   4.833  12.599 -0.1974  0.0531 -0.1916
18142W        W37676   0.112  16.151   2.721  0.2070  0.1722  0.2480
18143W        W37677   9.514  17.430   2.638  0.0876 -0.0094 -0.1890
18144W        W37678   0.827   5.809  13.732  0.0986 -0.1798  0.1786
18145W        W37679  14.476  17.042   3.096  0.1702 -0.0639  0.0694
18146W        W37680  12.919   1.021  13.298  0.0732  0.1590 -0.0555
18147W        W37681   9.092  12.614   2.868 -0.0632 -0.2089  0.0156
18148W        W37682   4.785   4.346   1.640 -0.2882 -0.0133  0.1337
18149W        W37683   2.298  15.294   0.394  0.1113 -0.0370 -0.1207
18150W        W37684   0.151  17.117   1.815 -0.4144  0.0758 -0.1610
18151W        W37685  16.253  14.856  13.066 -0.0219  0.0976  0.3062
18152W        W37686  14.738   3.896   2.130  0.4655  0.0991 -0.0228
18153W        W37687   0.403   7.232   4.355  0.1796  0.3997  0.0576
18154W        W37688  11.672   4.557  16.385  0.0411  0.1623  0.1209
18155W        W37689   1.834   6.327  16.748  0.1434  0.1182 -0.0375
18156W        W37690  10.771  15.254   0.039  0.1070 -0.2098 -0.2635
18157W        W37691   7.239   3.030   3.930  0.0687  0.0475 -0.1905
18158W        W37692  14.699  10.923  13.425  0.0442 -0.1437 -0.0333
18159W        W37693  12.264  14.793   2.260  0.0197 -0.0885 -0.0934
18160W        W37694   4.551  11.247   5.086  0.0737  0.1739  0.0169
18161W        W37695  12.255  16.994  15.231 -0.1841 -0.0579  0.0587
18162W        W37696   8.070   1.828   0.603  0.0993 -0.1625 -0.1723
18163W        W37697   7.048  11.610  14.852  0.1870  0.2639  0.2755
18164W        W37698  10.546  17.457  13.232  0.2416 -0.1922  0.3496
18165W        W37699   1.016  16.957   0.526  0.0662  0.0131  0.0667
18166W        W37700   7.640  11.353  14.902 -0.1106 -0.0085  0.2961
18167W        W37701  10.612  10.012   1.945 -0.1533 -0.3821 -0.0481
18168W        W37702   7.078   8.747   0.200  0.0777  0.0857  0.0854
18169W        W37703   1.919  16.475  15.870  0.2562 -0.1480 -0.4152
18170W        W37704   9.883  14.546   4.069  0.3950 -0.3691  0.0236
18171W        W37705   8.258  14.950  11.076 -0.0675 -0.2221  0.2340
18172W        W37706   3.933   1.196   1.880 -0.1828  0.0464 -0.0919
18173W        W37707   3.172  11.371   2.987  0.1833  0.0556 -0.0250
18174W        W37708   3.436  15.077   0.225  0.1490  0.4027 -0.1534
18175W        W37709   0.103  10.161  12.561 -0.0541 -0.0188  0.0636
18176W        W37710   1.744   1.493  12.552 -0.2288 -0.0126 -0.0558
18177W        W37711  14.057  16.432   0.020  0.2503 -0.1798  0.1914
18178W        W37712  12.679   8.689   1.216  0.0415  0.3992 -0.0030
18179W        W37713   8.457   4.175   1.752  0.4228  0.0585  0.1236
18180W        W37714   8.511  17.496  14.025  0.2219  0.0505 -0.1298
18181W        W37715  12.923  10.343   2.551  0.0646 -0.0404 -0.2714
18182W        W37716  11.885   4.681  15.866 -0.1301  0.0045 -0.0120
18183W        W37717  11.903   9.192  12.542  0.0067  0.3865  0.1019
18184W        W37718  15.705   8.456  12.108 -0.0141  0.3443  0.2301
18185W        W37719  17.709  16.166  12.598  0.1852  0.4765  0.3321
18186W        W37720   5.039   5.019   2.677  0.2878 -0.2075  0.0609
18187W        W37721  11.436  16.801   0.117  0.2133 -0.3168 -0.1043
18188W        W37722  17.365  13.616   2.103  0.1127  0.0204 -0.3067
18189W        W37723   7.038  10.695  13.750  0.0573  0.3743 -0.1359
18190W        W37724   3.274  13.985  15.444  0.0226 -0.2611 -0.4441
18191W        W37725  15.956  15.955  14.803 -0.3260 -0.2496 -0.1734
18192W        W37726  14.595  17.487   3.356  0.0135 -0.0386 -0.1064
18193W        W37727   7.539  16.256   2.859 -0.0169 -0.3206  0.1341
18194W        W37728   9.108   8.824  16.514 -0.1856  0.0133  0.1244
18195W        W37729   1.770   8.777   0.621 -0.0587  0.0149  0.0509
18196W        W37730  16.415  15.041   2.289  0.3656  0.0109  0.0275
18197W        W37731   3.243  11.501  13.946 -0.0821  0.3219  0.1084
18198W        W37732   1.482  14.954  14.911 -0.0828  0.1149 -0.1033
18199W        W37733   6.854   4.556  10.345  0.2161  0.1519 -0.0778
18200W        W37734  13.968   9.261  14.308  0.1740  0.1506  0.2142
18201W        W37735   2.348  12.149  13.706 -0.1849 -0.4987  0.1726
18202W        W37736   2.682   8.700  14.628  0.1806  0.0722 -0.0351
18203W        W37737   5.622   9.542  12.030 -0.2595  0.0913 -0.2156
18204W        W37738   7.817  13.655  14.404 -0.0048  0.1449 -0.0215
18205W        W37739  16.009  15.582  16.702  0.1017  0.1972  0.0193
18206W        W37740   7.713  14.525  14.556  0.0044 -0.0207  0.0995
18207W        W37741   4.319  10.875  14.568  0.1098  0.0493 -0.1351
18208W        W37742  11.677   9.578   1.982 -0.5428 -0.0582 -0.1176
18209W        W37743   9.569  15.328  12.616  0.2026 -0.1784  0.0849
18210W        W37744  10.302   8.367   0.589  0.1689  0.0195 -0.1559
18211W        W37745   1.852  15.072  14.633 -0.1142 -0.1289 -0.1454
18212W        W37746   7.314   9.185   1.561  0.0044 -0.2142  0.1645
18213W        W37747   6.708   3.743  14.306 -0.0023 -0.1100  0.1904
18214W        W37748   4.000   2.612   3.810 -0.0629  0.0214 -0.1795
18215W        W37749  11.695  16.426  13.527  0.3489  0.2346  0.1527
18216W        W37750  14.895   8.087   1.091 -0.1278 -0.2297 -0.1814
18217W        W37751   3.891   2.376  15.684  0.0114  0.2177  0.0056
18218W        W37752   5.816   3.415   1.604  0.3431 -0.1389 -0.1496
18219W        W37753  11.669  11.246  16.428 -0.1784 -0.0413 -0.0296
18220W        W37754  14.418  13.085  16.200  0.1378  0.0113  0.1100
18221W        W37755  11.711  10.675  16.348  0.1586  0.0743  0.0349
18222W        W37756  15.091  13.532  12.127  0.2490 -0.2144  0.1445
18223W        W37757   8.065   8.810   1.797  0.0188 -0.2741  0.0726
18224W        W37758  10.937  14.972  14.833 -0.0773  0.0317  0.1163
18225W        W37759  13.531  12.768   4.326  0.0148  0.3293  0.0057
18226W        W37760   0.610   0.159  12.683  0.1732 -0.0034 -0.3026
18227W        W37761   6.046   3.053   4.798  0.0742 -0.1124  0.0393
18228W        W37762  10.993   0.048   0.307 -0.0533  0.0174 -0.0802
18229W        W37763   0.698   9.252   3.522  0.0677  0.0101 -0.3364
18230W        W37764  10.888   5.421  16.513  0.2510  0.0536  0.1320
18231W        W37765   0.041   8.789  14.260  0.2665 -0.4000 -0.0616
18232W        W37766   7.308   2.712  13.115  0.2623  0.0414 -0.2088
18233W        W37767  11.774  11.686  13.286 -0.0295 -0.0838  0.1322
18234W        W37768   5.786   9.637   3.061  0.0770 -0.0149 -0.1394
18235W        W37769   5.233  15.867  15.598  0.0186  0.1280  0.0199
18236W        W37770  10.309   3.744  12.346 -0.1076  0.0878  0.3761
18237W        W37771   5.701  12.157   5.154  0.1442  0.0818  0.2134
18238W        W37772  14.567  15.362  14.516 -0.0310  0.2586  0.2830
18239W        W37773   5.958   6.946  15.584  0.1827 -0.0790  0.3925
18240W        W37774  10.392  10.512  16.591 -0.1117  0.1726  0.1811
18241W        W37775  11.652  14.185   4.013 -0.0887 -0.0612  0.2830
18242W        W37776  16.593   3.450   2.502  0.1414  0.0754 -0.3400
18243W        W37777  12.617   5.338  13.359 -0.1578 -0.3538  0.0258
18244W        W37778  17.574  15.804  13.999 -0.0055  0.1538  0.0608
18245W        W37779   0.615  17.443   1.747  0.0178 -0.2236 -0.1700
18246W        W37780  17.316   1.094   1.319  0.0164 -0.3000  0.0623
18247W        W37781   2.633  16.256  12.207 -0.3297 -0.0293 -0.0694
18248W        W37782  13.885  14.805  13.842  0.1312  0.0587  0.0592
18249W        W37783  15.417  14.210   0.910  0.0503 -0.2485  0.0583
18250W        W37784  13.858  12.398  15.873  0.0345 -0.0506  0.0385
18251W        W37785  15.163  12.805  11.455  0.3521 -0.2418 -0.1402
18252W        W37786   0.313  11.970  15.407 -0.3144 -0.0840  0.2923
18253W        W37787  16.012  11.661  11.951 -0.4568  0.0028  0.0652
18254W        W37788   5.687  13.204   1.204  0.2253 -0.2892 -0.1866
18255W        W37789   9.897  10.438  14.200  0.0945  0.0307  0.3970
18256W        W37790  13.030  14.952  16.412 -0.0580  0.2684  0.1106
18257W        W37791   4.404   0.747  12.643 -0.3603  0.0081  0.2132
18258W        W37792  13.366   1.699  14.184 -0.1574  0.1089  0.1686
18259W        W37793   6.233  10.616  14.684 -0.0865  0.0983  0.0994
18260W        W37794  11.280  15.518   4.417  0.1131  0.0921 -0.2389
18261W        W37795  13.966   5.094  11.725  0.0028 -0.2516  0.1679
18262W        W37796  14.316  12.616   1.450 -0.2787 -0.0880 -0.2356
18263W        W37797  10.998  14.386  14.974 -0.1477 -0.2080 -0.3048
18264W        W37798  12.258   3.891   2.804 -0.0468 -0.1083 -0.0193
18265W        W37799   1.998  14.932   3.873  0.0687 -0.0515 -0.0894
18266W        W37800   4.063   1.278  14.242  0.2083 -0.1078  0.0800
18267W        W37801   2.370  10.797  13.872  0.1463 -0.2395 -0.3492
18268W        W37802   3.252   5.028  14.493  0.3285 -0.0596 -0.0183
18269W        W37803   6.685  12.152   1.300 -0.3368  0.0782 -0.0408
18270W        W37804   1.158  15.755   5.051 -0.2817 -0.1321  0.4073
18271W        W37805   5.658   5.644   5.278  0.0736 -0.1176  0.3954
18272W        W37806   8.422  16.143  14.210 -0.0228 -0.0981 -0.3421
18273W        W37807  16.748   5.729  11.683  0.1812  0.0414  0.1960
18274W        W37808   0.998  10.889   4.765  0.0447 -0.1342 -0.1900
18275W        W37809   1.049  10.241  12.013 -0.0021  0.1256  0.2822
18276W        W37810   0.895   7.346   4.351  0.0293  0.0298  0.2277
18277W        W37811   8.104   0.320  13.028  0.0947 -0.0833 -0.0867
18278W        W37812   6.301  11.638  15.564  0.5357 -0.0653  0.0330
18279W        W37813   1.462   5.958   1.613  0.1270 -0.2423  0.2099
18280W        W37814  12.614   8.986   4.064 -0.1244 -0.0177 -0.4550
18281W        W37815   3.112  17.640   1.366  0.2251 -0.0295  0.2899
18282W        W37816   1.472   3.850   1.210  0.2090  0.1083  0.0303
18283W        W37817   2.580   9.637   1.604  0.3387  0.2651 -0.3493
18284W        W37818   0.980   2.196  12.389 -0.0988 -0.2347  0.0116
18285W        W37819   0.980   9.501  15.649 -0.0757 -0.0975  0.1488
18286W        W37820   2.871   2.673  13.587  0.0472  0.0014 -0.0223
18287W        W37821  14.614   6.860   2.431  0.2509 -0.1062  0.1882
18288W        W37822  15.114   9.654   4.683  0.2065 -0.0308  0.1484
18289W        W37823   8.103   2.840   1.179 -0.0241 -0.1541 -0.0459
18290W        W37824   5.672  13.242  16.030  0.0643 -0.1036 -0.0645
18291W        W37825   4.554   2.788  13.403 -0.3602 -0.1809 -0.0943
18292W        W37826   1.842   8.411  12.580  0.2033  0.1386 -0.4439
18293W        W37827  14.972  11.460   0.180  0.1166 -0.1024 -0.0024
18294W        W37828   7.617  10.284   3.345  0.1153  0.1409 -0.2034
18295W        W37829  16.624  15.612   1.072 -0.5862  0.1611 -0.1206
18296W        W37830   4.761  12.297   0.506  0.2167 -0.0805 -0.0502
18297W        W37831   9.815  15.652   3.658 -0.0404 -0.2476  0.3666
18298W        W37832  14.472  13.631   5.644 -0.1286 -0.1721 -0.0031
18299W        W37833  12.443  13.458  14.120 -0.3704 -0.0515  0.3435
18300W        W37834   4.797   5.585   5.430 -0.1793 -0.2775 -0.0903
18301W        W37835   8.832   1.237  11.781  0.0838  0.2223 -0.1367
18302W        W37836   2.792   6.435  11.876  0.1175 -0.1279  0.2011
18303W        W37837   9.081  16.836  14.431 -0.1576 -0.1995 -0.1919
18304W        W37838  10.479   0.905   0.606  0.1123 -0.2169 -0.1631
18305W        W37839  10.499   7.909   4.356  0.0807 -0.1141 -0.0616
18306W        W37840  17.446  17.543  15.688 -0.1930 -0.1802 -0.3265
18307W        W37841  11.290   2.512   5.058 -0.3276 -0.3103  0.1945
18308W        W37842   3.848  16.711   2.217  0.1730 -0.2093  0.0487
18309W        W37843   4.537  15.440  13.530  0.0117 -0.0367 -0.1297
18310W        W37844  14.990  17.564   1.590  0.4129  0.1514  0.2103
18311W        W37845   0.130  16.690   4.194 -0.0246  0.1475 -0.2204
18312W        W37846  15.826   2.574   3.347  0.0234  0.1825 -0.2353
18313W        W37847  16.378  11.058   3.961  0.3399  0.0654 -0.0654
18314W        W37848  11.159   9.000   0.668 -0.1726 -0.2892  0.1246
18315W        W37849   4.922   8.630   0.772  0.0829  0.0062  0.1817
18316W        W37850   6.625  13.283   4.816 -0.2145 -0.2198  0.0285
18317W        W37851   8.814   3.736  12.465 -0.0022 -0.1101  0.0185
18318W        W37852   8.021   3.232  13.422  0.0650 -0.0965  0.1596
18319W        W37853  13.864   4.188   0.637  0.1258  0.0870  0.2061
18320W        W37854   7.339   8.903  16.540  0.0838 -0.2903  0.1875
18321W        W37855   2.113   6.689  15.859 -0.1286  0.3750  0.1106
18322W        W37856   8.659   1.408  15.413  0.1131  0.0587 -0.5965
18323W        W37857  10.076   6.749  12.922  0.0376  0.0441 -0.0189
18324W        W37858   3.914   5.170  12.799  0.0443  0.0383  0.2522
18325W        W37859  12.763   4.004  12.079  0.2169  0.0732 -0.0971
18326W        W37860   2.842   7.265   4.909 -0.2053  0.1042  0.0767
18327W        W37861   8.918  12.199   3.626  0.0397 -0.2322  0.2503
18328W        W37862   2.648   7.738  16.197  0.2717 -0.0619  0.0491
18329W        W37863  13.007  15.566  15.816 -0.1938  0.2701  0.3048
18330W        W37864   8.513  14.670  16.110  0.2380  0.0833 -0.2703
18331W        W37865  11.228   1.528  13.929 -0.1831 -0.1709  0.2733
18332W        W37866   6.777   8.293   6.267  0.1290 -0.0359  0.1494
18333W        W37867  10.222  10.153   1.662 -0.2644 -0.1109  0.3029
18334W        W37868   1.319   5.328  15.477 -0.1832 -0.0413  0.0098
18335W        W37869  15.298   6.436  14.333 -0.0134 -0.1692  0.4377
18336W        W37870   3.094   1.452   1.501  0.0716  0.1648  0.0833
18337W        W37871   5.148   7.385   1.204  0.1032 -0.0356 -0.1635
18338W        W37872  11.765   7.310   2.230  0.1267  0.1837  0.0820
18339W        W37873  10.876  16.716  13.721  0.0971 -0.0111 -0.2290
18340W        W37874   4.495   2.921  11.790 -0.0358  0.1837  0.3524
18341W        W37875   9.494   0.901  13.509  0.1580  0.0841  0.2190
18342W        W37876   9.000   5.242   1.159  0.0498  0.4076  0.0091
18343W        W37877   8.928  16.955   0.295 -0.0104 -0.4442 -0.0209
18344W        W37878   8.919   6.018  14.484  0.1304  0.0218 -0.1550
18345W        W37879   3.998   7.790  15.381 -0.1363  0.5485 -0.1100
18346W        W37880   5.509   0.342   2.156  0.1354  0.4187  0.0153
18347W        W37881   2.682   3.478   4.488  0.0031 -0.1734  0.0337
18348W        W37882  10.930  12.937  12.982  0.1448  0.1393  0.0550
18349W        W37883   6.313  10.704   4.249  0.2489 -0.1402 -0.0489
18350W        W37884  13.973  13.674  12.100  0.2955  0.1336  0.3232
18351W        W37885   6.738   6.774   1.619 -0.0571  0.1650  0.0630
18352W        W37886  11.273   9.036  14.018 -0.0954  0.4360  0.2081
18353W        W37887   2.611  10.970   4.350 -0.1566  0.1506 -0.0901
18354W        W37888   7.512   6.376  15.923 -0.0430  0.0391 -0.0047
18355W        W37889  11.340   2.994   3.913 -0.2574  0.0498 -0.2012
18356W        W37890  13.479  16.993  13.507  0.0173 -0.2430  0.2221
18357W        W37891   8.033   5.419   0.889  0.0326  0.0440  0.2905
18358W        W37892   0.479  10.647  15.716 -0.1338 -0.1950  0.0102
18359W        W37893   4.505  17.435  15.836 -0.0344 -0.0001 -0.0896
18360W        W37894   4.077   5.485  14.913  0.1127  0.1496 -0.0726
18361W        W37895  13.537   2.600   4.864 -0.2650 -0.0574 -0.2072
18362W        W37896  15.221   7.485  13.781 -0.0008  0.1812  0.0107
18363W        W37897  15.984   3.806  12.289  0.1586 -0.1774 -0.2538
18364W        W37898   0.626   4.796  13.017  0.3371 -0.3285  0.0454
18365W        W37899   5.564  17.535  14.619 -0.2991  0.0800 -0.1306
18366W        W37900   4.556   1.599   0.662  0.1086  0.2013 -0.0003
18367W        W37901   8.609   8.729   4.434 -0.0589 -0.0906  0.1215
18368W        W37902   0.851   3.274  13.148  0.1089 -0.3159 -0.0096
18369W        W37903  11.112   9.543  12.228 -0.2375  0.0658  0.1409
18370W        W37904   0.053  12.806  14.391  0.2373  0.2225 -0.1134
18371W        W37905  17.429   9.643   1.976  0.0278  0.0104 -0.0980
18372W        W37906   1.419   3.330  15.298 -0.2723 -0.4312  0.1940
18373W        W37907  17.012  15.129   3.160 -0.2342  0.1117 -0.2055
18374W        W37908   3.599  10.920  13.465 -0.1652  0.1146 -0.3180
18375W        W37909  16.400   1.738  15.175  0.2864  0.0095 -0.0334
18376W        W37910   5.289   8.630   0.374  0.3481 -0.4584  0.0175
18377W        W37911  13.481   2.915   0.547 -0.0405  0.0214 -0.1686
18378W        W37912  12.496  16.301   2.630 -0.0531  0.0842  0.0188
18379W        W37913   3.740  16.770  14.199  0.1827  0.1395 -0.4909
18380W        W37914  16.777  14.252  15.620 -0.0701  0.2753  0.0492
18381W        W37915  11.838  13.849   1.197 -0.1747 -0.2971 -0.1078
18382W        W37916   6.817   6.103  13.798 -0.1214  0.0666 -0.5320
18383W        W37917  12.989   9.116   3.698  0.0286  0.3534  0.0654
18384W        W37918  10.478   2.429   3.680 -0.0176  0.2242 -0.0358
18385W        W37919   5.695   3.832  14.629  0.1471  0.0659 -0.3153
18386W        W37920   5.666  12.913   5.317  0.0124  0.2072 -0.0652
18387W        W37921  16.105   7.882  13.708 -0.0437 -0.1564 -0.2198
18388W        W37922   1.255   5.701  13.316 -0.0340  0.1410 -0.0274
18389W        W37923  11.372   7.777   1.827  0.3331 -0.0139 -0.3033
18390W        W37924   4.627   3.717  13.271 -0.0052  0.1815 -0.1579
18391W        W37925   2.369   5.808   3.856  0.1096 -0.0433 -0.2243
18392W        W37926   1.063   9.996   2.732  0.2260  0.3112  0.1711
18393W        W37927  12.149   1.785  13.575 -0.1912 -0.0060  0.1468
18394W        W37928   0.781   4.417   0.091  0.1525 -0.1788  0.0068
18395W        W37929  12.551  17.829  13.140  0.0089 -0.2791  0.3319
18396W        W37930  15.080  13.992  12.355  0.1313 -0.0454  0.0738
18397W        W37931  12.695   0.251   4.318 -0.1465 -0.1344 -0.0600
18398W        W37932   5.082   1.414   2.532  0.1513  0.0533  0.1707
18399W        W37933   1.071   1.862   2.521 -0.0561  0.1995  0.0493
18400W        W37934   1.098   7.644  15.713 -0.0406 -0.0885 -0.1010
18401W        W37935   9.100  17.653  13.679 -0.0082  0.0729 -0.1657
18402W        W37936   3.026  12.959   3.793 -0.0056 -0.0218 -0.1436
18403W        W37937   5.410  17.407   3.356  0.1614  0.1222 -0.3125
18404W        W37938   9.608  10.478  14.624  0.0142 -0.4152 -0.2869
18405W        W37939   8.696   9.610   0.357 -0.1160 -0.2488  0.1524
18406W        W37940   9.008  17.186  15.366  0.2673 -0.1521 -0.0137
18407W        W37941  14.803   4.877  13.807 -0.0928  0.3541 -0.3733
18408W        W37942   1.856   6.074  12.897 -0.1166  0.3206  0.0130
18409W        W37943  11.087  11.637  14.377 -0.0908  0.0599 -0.4958
18410W        W37944   9.996  15.057  16.397 -0.0613 -0.1043 -0.0385
18411W        W37945   9.677   6.456   3.024 -0.0214 -0.1340 -0.0908
18412W        W37946  11.806   8.732   0.029 -0.0262 -0.0487 -0.0081
18413W        W37947   4.255  15.628   2.037 -0.1686  0.0788 -0.0994
18414W        W37948   9.038  11.073  14.313 -0.0666  0.0976  0.2491
18415W        W37949  17.733   9.094   3.814 -0.1083 -0.1686  0.2408
18416W        W37950   1.038   9.299   3.112  0.0531 -0.2851 -0.1434
18417W        W37951   9.766   4.911   4.343 -0.3401  0.1056 -0.1267
18418W        W37952  17.723   2.586   0.444  0.1916 -0.1227 -0.0751
18419W        W37953  13.812  17.599  13.625 -0.2571  0.1555 -0.0237
18420W        W37954  15.966  12.984  14.397  0.2013 -0.2261  0.0074
18421W        W37955  15.159   4.766  15.635  0.0307 -0.0117  0.0016
18422W        W37956   9.994  17.179  13.571  0.2585 -0.2196 -0.0218
18423W        W37957   8.027   9.972  13.966 -0.3240  0.0584 -0.1284
18424W        W37958   5.571  16.681  12.148  0.1382  0.0477  0.0892
18425W        W37959   9.244   4.012  13.182  0.1092  0.1535  0.1176
18426W        W37960  14.278   1.013   4.704  0.2537  0.3681  0.0723
18427W        W37961  17.766  12.610  16.589 -0.1001  0.3682 -0.1668
18428W        W37962   6.842  16.712  14.294 -0.0318  0.5668 -0.1769
18429W        W37963   1.173  14.673  15.290  0.1927  0.0434 -0.0627
18430W        W37964   9.015   5.720   0.418  0.0110 -0.1499  0.1699
18431W        W37965  11.658  14.209   3.097 -0.1061 -0.0708  0.1487
18432W        W37966   6.580  17.016   3.460 -0.1425 -0.4022  0.0064
18433W        W37967   9.516   3.076  13.135 -0.0608  0.0781  0.0894
18434W        W37968   1.343  14.279  13.577 -0.3383  0.0197 -0.0915
18435W        W37969  14.489  12.408   3.481 -0.0895  0.0997  0.2205
18436W        W37970   6.041   7.381   0.408  0.0368  0.1423 -0.1891
18437W        W37971  17.305   5.334  12.223 -0.0760 -0.0738  0.0380
18438W        W37972  13.226   4.686  12.042 -0.1101  0.2222  0.0946
18439W        W37973  10.573   8.940   3.421  0.2613 -0.0816  0.0052
18440W        W37974  16.142  13.999  14.334 -0.0219  0.1923  0.0106
18441W        W37975  12.190   9.872  13.502 -0.0727  0.1871  0.2355
18442W        W37976  14.861  17.844   1.095  0.2600 -0.0167  0.0066
18443W        W37977   4.165   5.268  16.318 -0.3923  0.0445 -0.1395
18444W        W37978   9.662   8.963  12.029  0.0860 -0.1240 -0.1853
18445W        W37979   6.522  15.664   3.765  0.0183  0.0144 -0.1895
18446W        W37980   8.854   6.001   1.915  0.1285  0.2669 -0.2380
18447W        W37981   5.826   5.459  12.888  0.4214  0.0916 -0.0456
18448W        W37982  14.930   1.131  11.850  0.4556  0.1614  0.0781
18449W        W37983   1.300   8.159   3.877  0.1768 -0.0693 -0.6055
18450W        W37984  12.753   8.355  16.078 -0.1303  0.1350  0.1315
18451W        W37985   6.121   5.033   4.680 -0.3343  0.1839 -0.1381
18452W        W37986  10.407   8.762  16.338  0.2052  0.1801  0.1116
18453W        W37987   7.778   8.490   2.076 -0.2746  0.2494  0.1647
18454W        W37988   7.200   5.242  10.631  0.2135  0.2200  0.0377
18455W        W37989   4.237   1.451  15.270  0.1149 -0.4871 -0.0085
18456W        W37990   3.253   4.425   3.204  0.1022  0.0467  0.1186
18457W        W37991  16.139   7.135   3.194  0.0110 -0.2073 -0.1781
18458W        W37992   3.143  12.425   0.222  0.2774  0.1276  0.3501
18459W        W37993   2.191   3.173   1.425 -0.0729 -0.1501  0.1113
18460W        W37994  17.547   3.366  14.327  0.1400  0.2589  0.1358
18461W        W37995   3.914  15.172  15.313  0.0366 -0.1562  0.1047
18462W        W37996  12.784   5.297  15.145 -0.2041  0.0009  0.0146
18463W        W37997   8.404  16.996  15.879  0.1660 -0.0871  0.0095
18464W        W37998  14.218   4.392   0.076  0.0469  0.0773 -0.2516
18465W        W37999   0.748   8.025   2.960  0.1114 -0.2912  0.0351
18466W        W38000  16.297   5.893   3.190 -0.0450 -0.1059 -0.2051
18467W        W38001   8.479   3.046  13.388 -0.3987  0.0284  0.1329
18468W        W38002   8.384   2.573   2.577 -0.3113  0.0114 -0.2185
18469W        W38003   5.787  17.167   0.527  0.2396 -0.4681 -0.2846
18470W        W38004   9.547   3.177  13.639 -0.0833 -0.2531 -0.3591
18471W        W38005   5.532  16.098  13.029  0.3259 -0.1596 -0.3405
18472W        W38006  15.729   9.792  11.983 -0.1186  0.0895 -0.2001
18473W        W38007  10.537   6.921  13.134 -0.0174  0.1925  0.0001
18474W        W38008  11.865   4.512  13.032 -0.0480  0.0644 -0.0485
18475W        W38009   1.208  15.087   1.844  0.2349  0.0887  0.0714
18476W        W38010   5.614  13.423   3.352  0.2019  0.1359 -0.0128
18477W        W38011  16.245   8.627   3.895  0.2020 -0.1358 -0.1161
18478W        W38012   7.710  14.556  12.407 -0.0978 -0.2037 -0.2555
18479W        W38013   4.491   7.581  15.412  0.0280 -0.2499  0.0924
18480W        W38014   9.621   4.024  14.887  0.2060  0.0532  0.2129
18481W        W38015   5.991  14.142   4.653  0.1492 -0.0725 -0.2365
18482W        W38016  16.501  15.218  14.880  0.0335  0.1887 -0.1616
18483W        W38017  12.739  15.311  14.824 -0.0008  0.1342 -0.4126
18484W        W38018  10.018   6.040  13.583  0.0794 -0.2144 -0.1696
18485W        W38019   6.816  10.649   2.965 -0.0243  0.0592  0.1159
18486W        W38020   4.610   4.554  12.412  0.0440 -0.0334 -0.1960
18487W        W38021  12.068  15.163   2.628 -0.1963 -0.1120  0.2495
18488W        W38022   6.239   3.153   0.968  0.0348 -0.0544  0.1258
18489W        W38023   6.762   1.277  15.336 -0.1104  0.0195  0.0868
18490W        W38024  13.327  14.006   3.317 -0.3703 -0.0277 -0.0904
18491W        W38025  15.349  12.403  14.931 -0.2821 -0.3168  0.0827
18492W        W38026  11.775   9.373   2.961 -0.0279 -0.1002  0.1594
18493W        W38027  10.641  12.797   0.909  0.0671 -0.1033 -0.0866
18494W        W38028   6.947  17.861   2.595 -0.0886  0.0285  0.0995
18495W        W38029   5.363   0.949  13.887 -0.2816 -0.1005  0.0230
18496W        W38030  16.518   4.692   2.329  0.0088 -0.2214  0.0154
18497W        W38031  14.064  15.345   1.085  0.2933 -0.3099  0.2455
18498W        W38032  12.081  11.155  13.771 -0.3806 -0.2128  0.1635
18499W        W38033   7.890   2.264   3.451  0.0241  0.1318  0.1849
18500W        W38034  15.084  14.090   3.856 -0.1936  0.1349 -0.1062
18501W        W38035  10.965   9.127  15.951 -0.0517 -0.2738  0.1005
18502W        W38036  10.020  14.575   0.554  0.0729 -0.0413 -0.2813
18503W        W38037   5.681   1.434   0.052 -0.2559 -0.1767 -0.0611
18504W        W38038   6.242   5.524  13.179  0.4026  0.3846  0.2406
18505W        W38039   5.250  15.795  16.105 -0.3000 -0.2215  0.0951
18506W        W38040   3.935  15.036   0.995  0.0919  0.0675 -0.3090
18507W        W38041  10.799   8.385  13.224 -0.0268  0.1803 -0.1039
18508W        W38042  15.094  12.339  12.262 -0.1753  0.0750  0.1242
18509W        W38043  16.653   3.472  15.833  0.0036  0.0471  0.0288
18510W        W38044   3.975   7.864   1.945 -0.2182  0.0238 -0.2010
18511W        W38045  16.338  17.514   1.578  0.3869 -0.0214 -0.2007
18512W        W38046   8.632  15.171   3.591 -0.0094  0.2913  0.2237
18513W        W38047  17.431   0.367   4.529 -0.0781 -0.2182 -0.2820
18514W        W38048  13.016  16.968  15.711  0.1374  0.1339 -0.0492
18515W        W38049  12.119   0.574  16.249 -0.2080 -0.2184 -0.1582
18516W        W38050   0.406   7.336   1.718  0.0497  0.5108  0.1896
18517W        W38051   4.433  12.139  14.733 -0.1543 -0.0137 -0.0624
18518W        W38052  10.529   8.866  12.239 -0.2337  0.0374 -0.1972
18519W        W38053   1.652   1.526   0.357 -0.3006  0.1023 -0.1866
18520W        W38054  10.888  11.711   2.796  0.0872 -0.1948 -0.0924
18521W        W38055  17.159   8.119  16.692  0.0367  0.3478 -0.0920
18522W        W38056   3.351  15.472   2.660  0.2089  0.1986 -0.1353
18523W        W38057   1.758  15.169   1.090  0.0553  0.2224 -0.3525
18524W        W38058   6.544   5.788   1.457  0.1023 -0.0024  0.1705
18525W        W38059   6.294   2.759   1.287 -0.1267 -0.1927 -0.2692
18526W        W38060   9.949  11.200   3.443  0.0378  0.0567  0.1879
18527W        W38061   5.476   5.824   4.593 -0.0185  0.3623  0.2453
18528W        W38062  12.725   3.903   0.480 -0.2920  0.2128  0.0494
18529W        W38063   4.277   4.230  15.999 -0.3027  0.0715 -0.0047
18530W        W38064   7.369  10.765   1.603 -0.0996 -0.0599  0.0785
18531W        W38065   4.058  16.990   1.691  0.2099  0.3534 -0.0416
18532W        W38066  12.472  16.052  13.714 -0.1291  0.1135 -0.2201
18533W        W38067  16.492  13.042  14.480 -0.1171 -0.0652  0.1912
18534W        W38068  10.734   0.038  13.413 -0.1059 -0.0122 -0.1753
18535W        W38069   2.719  12.271  16.602  0.2300 -0.0389  0.1276
18536W        W38070   0.771   7.169   3.929 -0.0613  0.0900  0.0773
18537W        W38071  15.976   0.327   1.992  0.2130  0.1424 -0.0822
18538W        W38072   5.983  12.195  12.108  0.0500 -0.0086 -0.0035
18539W        W38073   7.071  17.613  15.499 -0.1240  0.0656 -0.1683
18540W        W38074   8.805   9.192   0.083  0.1825  0.1271  0.0638
18541W        W38075  10.649   5.674  12.937  0.2617  0.0794 -0.0705
18542W        W38076  12.839   8.397  12.521 -0.0570 -0.1670 -0.1555
18543W        W38077   9.189   1.120  13.101 -0.0656 -0.1401  0.2046
18544W        W38078   7.627  10.921   2.426 -0.2148  0.0568 -0.0992
18545W        W38079  10.882  10.349  11.571 -0.0205 -0.0885 -0.0467
18546W        W38080  11.791   8.881  14.341  0.3120  0.0435  0.0914
18547W        W38081  16.757   8.158   1.078  0.0982 -0.1834  0.2660
18548W        W38082   9.516   7.877  12.561 -0.0597  0.2689 -0.1682
18549W        W38083  15.112   4.195   1.922 -0.1745 -0.0670 -0.0310
18550W        W38084   1.756   9.129   1.919  0.2104 -0.1971 -0.0918
18551W        W38085   3.471  14.956  15.412  0.2018 -0.0392  0.0634
18552W        W38086   9.114   5.658   4.213  0.0365  0.2138  0.0034
18553W        W38087   9.557   2.669  12.407 -0.0487 -0.2229 -0.1554
18554W        W38088   5.918  16.439  15.838 -0.2116 -0.2778 -0.2276
18555W        W38089   9.908  13.005   4.610  0.0142  0.0514 -0.1524
18556W        W38090   8.169   0.846   0.305 -0.2076 -0.1730  0.0075
18557W        W38091   7.061   3.676  16.161 -0.1677  0.3118  0.1027
18558W        W38092   5.024   6.630   1.234 -0.2010 -0.0992  0.3136
18559W        W38093  12.354  13.456   2.684 -0.1493  0.1013 -0.0840
18560W        W38094  15.964  13.783  13.166  0.0215  0.0025  0.2017
18561W        W38095   3.847   3.596  13.680 -0.1348 -0.1929 -0.1049
18562W        W38096  10.511  13.077  16.721  0.1103  0.3613  0.0829
18563W        W38097  13.081   4.129  13.509  0.1281 -0.0323  0.0193
18564W        W38098  14.062  16.415   1.998  0.3165 -0.0245  0.1799
18565W        W38099   9.853   8.228   0.845 -0.1086  0.1073 -0.0155
18566W        W38100  14.426  12.843  14.042 -0.0116  0.0446 -0.0241
18567W        W38101   8.978   7.180   2.847 -0.1595 -0.2247  0.1433
18568W        W38102   8.317   0.107  14.490 -0.0709 -0.0710 -0.2036
18569W        W38103   3.835  12.109  13.738  0.0364 -0.2624  0.1001
18570W        W38104   5.485  10.038  12.889  0.0369  0.0028 -0.0502
18571W        W38105   2.952  10.419   1.226 -0.3935  0.1984 -0.1997
18572W        W38106   1.764  14.295   3.658 -0.0435  0.0330 -0.1012
18573W        W38107   0.680   6.030  14.199  0.0675 -0.2616 -0.2188
18574W        W38108   5.181   2.059   0.008 -0.2557  0.2094 -0.5482
18575W        W38109   5.177  11.647  14.559 -0.2793  0.1109  0.3272
18576W        W38110  10.719  17.430   3.790 -0.0929 -0.1030  0.0243
18577W        W38111   4.829   9.085  16.353  0.3081  0.3838 -0.1888
18578W        W38112  10.801   3.627   0.502  0.0782 -0.3390 -0.0946
18579W        W38113  12.637   7.733   3.124 -0.0551 -0.0016 -0.3111
18580W        W38114  17.793   6.854  15.551 -0.0895  0.2790  0.0110
18581W        W38115   0.293  17.535  13.998 -0.1959 -0.1612  0.0416
18582W        W38116   1.906   2.930  13.502 -0.3001  0.1779  0.0650
18583W        W38117   2.505   7.317  12.265  0.3830 -0.0212 -0.1845
18584W        W38118  12.626   2.725   0.391 -0.3770  0.0544  0.1023
18585W        W38119  14.846  10.381  16.261  0.1153 -0.0484  0.1716
18586W        W38120  15.338   0.640  13.760 -0.0788 -0.0300 -0.1431
18587W        W38121   8.843  16.482  12.711  0.1383  0.2990  0.2512
18588W        W38122  16.627   9.015   3.189 -0.1386 -0.1942  0.0273
18589W        W38123   8.377  16.018   4.545  0.1258 -0.2724  0.0381
18590W        W38124   0.518   9.652   4.547  0.4863  0.2514  0.1123
18591W        W38125  12.565  14.050  11.746  0.2491  0.0851  0.2024
18592W        W38126   3.910   6.180   3.883 -0.2516  0.1806 -0.1246
18593W        W38127   1.426  13.825  12.208  0.0968  0.3119  0.1051
18594W        W38128  14.210   1.496  10.877  0.1112  0.0668 -0.0256
18595W        W38129   8.040  11.193   2.655 -0.0957 -0.1066 -0.0143
18596W        W38130  16.313   6.681  14.481  0.1560 -0.0675 -0.1835
18597W        W38131  17.462  17.681  12.287  0.3210  0.0614  0.1801
18598W        W38132   4.947   2.118  15.946  0.1098  0.0440  0.3647
18599W        W38133  11.362   3.153  14.775 -0.0471 -0.0578 -0.1913
18600W        W38134  10.965  15.173  13.908 -0.1243 -0.2060 -0.0075
18601W        W38135  16.676   6.724  13.147  0.0468  0.2298 -0.0014
18602W        W38136  12.678   3.914   1.271 -0.2057  0.1905 -0.1414
18603W        W38137   2.383  11.687  13.626 -0.2028 -0.0543  0.0002
18604W        W38138   7.852  15.206  16.523  0.2044  0.1300 -0.2502
18605W        W38139  16.282  16.464  12.148 -0.4191  0.1585  0.1349
18606W        W38140   0.921  10.880   1.874 -0.1606  0.0066  0.0328
18607W        W38141   8.819   7.054  14.100 -0.1143  0.0586 -0.2918
18608W        W38142  14.667   4.455   2.251 -0.1361  0.1533  0.4550
18609W        W38143  17.504   3.081   2.187 -0.2951  0.0113 -0.3574
18610W        W38144   9.442   0.037   3.267  0.2658 -0.0149 -0.3375
18611W        W38145  10.535   1.675  14.685 -0.2400  0.1914  0.4219
18612W        W38146  12.229   5.072  14.701  0.0925 -0.0169 -0.2075
18613W        W38147  13.925  10.110  14.235 -0.3012  0.0141  0.0636
18614W        W38148   1.915   7.505  16.347  0.0384  0.0771  0.1681
18615W        W38149   7.596   2.966   2.019 -0.0543 -0.0406  0.0047
18616W        W38150  13.399   7.531  16.383  0.1696  0.1301 -0.0396
18617W        W38151   8.368  10.239  14.305  0.3484  0.0433  0.4286
18618W        W38152   4.112   5.117  13.569 -0.0152  0.1935  0.3491
18619W        W38153  15.756   9.476  12.362 -0.0108 -0.2497 -0.0750
18620W        W38154   4.081   2.191   1.759  0.1923  0.0466 -0.2726
18621W        W38155   5.390   7.079   5.043 -0.0365 -0.1652 -0.2377
18622W        W38156   6.397  14.863  12.796 -0.0752 -0.2764 -0.1533
18623W        W38157  15.444   1.662  14.540 -0.0893  0.0960 -0.0405
18624W        W38158  12.779  10.752   0.765 -0.1085 -0.1570  0.0928
18625W        W38159  17.540  10.069  15.371 -0.0026  0.0974  0.1366
18626W        W38160  10.717  11.149  12.882 -0.0377 -0.1511  0.0403
18627W        W38161   3.388  16.719   1.321  0.0272  0.0598 -0.0642
18628W        W38162  12.015   6.960  14.899 -0.0481 -0.2794 -0.1370
18629W        W38163   9.481   7.542  15.291 -0.0133 -0.0993  0.2143
18630W        W38164  17.264  14.415  11.888  0.3880  0.0425 -0.2333
18631W        W38165  15.069   6.350  13.063 -0.0696 -0.0462 -0.0699
18632W        W38166   9.287  11.459   2.383  0.1149 -0.0757 -0.0278
18633W        W38167  14.921  15.452   4.047  0.1535  0.0947 -0.1518
18634W        W38168  10.700  15.982   2.072  0.1468 -0.1588 -0.2174
18635W        W38169   8.670  10.077   4.217 -0.1364 -0.3409  0.2819
18636W        W38170  12.104   6.595   3.174 -0.4286  0.3846  0.0720
18637W        W38171   8.450  12.825   4.860 -0.1813 -0.1609 -0.2709
18638W        W38172  10.810   3.282   1.392 -0.0572  0.1073  0.0061
18639W        W38173   9.191   0.621   0.490 -0.2225  0.2507 -0.1893
18640W        W38174  15.310   2.284   1.208  0.1759  0.0648  0.2414
18641W        W38175   9.164   4.126   2.960  0.1173 -0.2767  0.1058
18642W        W38176  10.511   5.837  16.430  0.0832 -0.1335 -0.2279
18643W        W38177   8.957   6.227  14.054  0.3207 -0.0741  0.0883
18644W        W38178  10.889  10.388   3.763 -0.1339  0.0938 -0.0429
18645W        W38179  11.755  10.622   4.060  0.1916 -0.0098 -0.4301
18646W        W38180  14.268   9.597   1.826  0.0180 -0.1618 -0.2322
18647W        W38181   9.028  16.559  14.033 -0.3097  0.1924  0.3740
18648W        W38182   5.948   0.793  12.841  0.2009  0.2266  0.0495
18649W        W38183  14.514   3.053   4.858 -0.0129 -0.0147  0.0358
18650W        W38184   6.795   2.796   3.141  0.1544 -0.0822  0.1973
18651W        W38185  14.023  13.842  13.150 -0.1846  0.1116  0.1210
18652W        W38186  11.437   0.986  15.107  0.2251 -0.1877 -0.0932
18653W        W38187  17.126   7.934  14.843  0.0705  0.0466 -0.1353
18654W        W38188  16.116  13.009  16.272 -0.1254  0.1711 -0.3649
18655W        W38189   0.433   2.658   3.527 -0.0540 -0.1661  0.1690
18656W        W38190  11.931   6.091  13.479  0.1746  0.1821 -0.0268
18657W        W38191  14.779  12.678  13.685 -0.0627 -0.1447 -0.2151
18658W        W38192   4.872   2.575   2.318  0.1163 -0.1196  0.0287
18659W        W38193  12.946   3.722  11.668  0.1015  0.2188  0.4735
18660W        W38194  14.483   4.549  15.033  0.5098 -0.0161 -0.1180
18661W        W38195   1.162   7.054  15.893  0.1143  0.0421  0.0477
18662W        W38196  15.993  10.677  12.815  0.2078 -0.3076 -0.1925
18663W        W38197  14.645   0.018   3.077  0.2374  0.0696 -0.2154
18664W        W38198   9.847   3.146   0.690  0.2285 -0.0702 -0.1337
18665W        W38199   7.852   3.779   2.263 -0.1345 -0.2358  0.1444
18666W        W38200  10.157   0.379   1.715 -0.3171  0.0547 -0.3382
18667W        W38201  16.070   4.664   2.044  0.1263 -0.3402  0.0380
18668W        W38202   6.403   0.146  10.897  0.0145 -0.1523  0.0974
18669W        W38203  11.523  10.828  15.882 -0.2628  0.0103 -0.0048
18670W        W38204  16.864   7.872   1.588 -0.1411 -0.1646  0.0151
18671W        W38205   9.131   6.677   3.816  0.0275  0.4404  0.0963
18672W        W38206   3.777   1.851  15.426 -0.0139 -0.0166 -0.1409
18673W        W38207  17.096   8.930   1.164  0.0925  0.4118  0.3319
18674W        W38208   3.088   5.041   3.868 -0.0333 -0.0089  0.1021
18675W        W38209  12.684   5.358   2.535 -0.1824 -0.0910 -0.0436
18676W        W38210   0.600  12.157   1.641 -0.0439  0.2080 -0.1412
18677W        W38211  14.749   6.810  11.693  0.2469  0.0390 -0.4137
18678W        W38212  12.915  10.359  15.780  0.1217 -0.1493 -0.1843
18679W        W38213  17.844  16.709  14.035 -0.2226 -0.0366  0.0024
18680W        W38214  11.902  17.103  14.276 -0.0091  0.1532 -0.1116
18681W        W38215   2.940   7.684  16.610  0.0077  0.1042  0.0470
18682W        W38216   8.104  11.315  15.079  0.0559 -0.0053  0.1153
18683W        W38217   4.181   1.609   1.669  0.1036  0.1614 -0.1034
18684W        W38218  16.861  12.199   4.136  0.2438  0.1283  0.1812
18685W        W38219  12.451   3.150   4.574  0.0854 -0.1189  0.0130
18686W        W38220  12.447   8.331  15.388 -0.0939 -0.1807 -0.2979
18687W        W38221  15.723   6.460  11.784  0.3831  0.1675 -0.0492
18688W        W38222   3.352   9.703  13.871  0.1098 -0.2005  0.1186
18689W        W38223   1.154   2.878  13.106  0.1625 -0.0902 -0.0368
18690W        W38224   1.811   1.799  11.756  0.0737  0.2524 -0.0040
18691W        W38225   2.279  13.278   4.390  0.1398  0.3009 -0.0526
18692W        W38226   6.060  17.670   2.424 -0.2872  0.0134 -0.0866
18693W        W38227  14.417   8.233   3.478  0.2733  0.0106 -0.3185
18694W        W38228  16.150  16.699   3.029  0.0587  0.2310 -0.3453
18695W        W38229  14.950   6.841  12.547 -0.2369 -0.0989  0.0225
18696W        W38230  13.925   0.599  16.152 -0.1530  0.0804 -0.2178
18697W        W38231  11.903   9.386   4.346  0.1165 -0.0882 -0.0533
18698W        W38232   7.413   0.213   3.682 -0.1095 -0.2207 -0.0368
18699W        W38233   0.388  14.343   4.371  0.0529  0.2167  0.1100
18700W        W38234  14.530  10.188   1.066  0.1871 -0.1112 -0.1254
18701W        W38235  10.707   9.696   2.323  0.5009  0.2964 -0.1720
18702W        W38236  10.997   8.556   4.696  0.1035 -0.2125  0.0384
18703W        W38237  11.822  12.396  15.105  0.0905 -0.0361 -0.0784
18704W        W38238   8.396  15.877   2.360 -0.1299 -0.0618 -0.0978
18705W        W38239   0.996  14.347   2.197  0.2577 -0.1606  0.0796
18706W        W38240  16.877  12.365  11.992 -0.0143 -0.1215 -0.0125
18707W        W38241  14.711   2.365  12.416  0.1254  0.0660  0.1258
18708W        W38242  14.304  17.897   4.903 -0.1446  0.2413  0.2286
18709W        W38243   2.875   0.648   5.335  0.0042  0.1148  0.2050
18710W        W38244  10.025  10.011  13.101 -0.0779 -0.0225 -0.4173
18711W        W38245  11.551  13.419  14.040  0.0478 -0.2041  0.3009
18712W        W38246   3.724  17.152   5.174  0.2174 -0.0294 -0.0087
18713W        W38247   8.179  13.328  12.564 -0.1534 -0.1332 -0.1039
18714W        W38248   3.589   7.491  15.287 -0.0256  0.1818 -0.2756
18715W        W38249  16.983   7.012  13.425  0.1474  0.1125  0.2832
18716W        W38250   3.358  12.298   3.393  0.1689  0.0656  0.1250
18717W        W38251  11.551   0.464   3.950  0.1709 -0.2165 -0.1851
18718W        W38252   7.205  17.717   3.393 -0.2259  0.1984  0.0557
18719W        W38253  10.216   0.128  13.106 -0.0905  0.0345 -0.3150
18720W        W38254   3.825  16.929  13.320  0.2139  0.1294 -0.0494
18721W        W38255  11.749   6.660   2.822  0.2527 -0.3358  0.1643
18722W        W38256   3.613   5.366  14.905  0.3483  0.1262  0.2266
18723W        W38257   6.487  15.525  14.481 -0.2198  0.0997 -0.1573
18724W        W38258   9.497  17.755  15.571 -0.0923 -0.1663 -0.5651
18725W        W38259  13.084  10.173  12.298 -0.1262 -0.1432 -0.0073
18726W        W38260  15.953   0.120   0.117 -0.1699  0.0575 -0.1671
18727W        W38261  11.220   6.939   1.592  0.2674 -0.2943 -0.0030
18728W        W38262   0.592  17.219   0.851 -0.1231  0.2216  0.0386
18729W        W38263  11.591  12.041   0.015  0.0053  0.0060 -0.1837
18730W        W38264   2.452   7.670  15.688 -0.0473 -0.1097  0.1202
18731W        W38265  11.895   9.953  16.306  0.0152 -0.0102 -0.0310
18732W        W38266  17.717   3.436  16.257 -0.2883 -0.1249 -0.1000
18733W        W38267   6.050   5.028  12.838  0.0702 -0.2716  0.2420
18734W        W38268   2.901   2.909  14.610  0.0138  0.1793 -0.1822
18735W        W38269  17.736   3.171   4.790 -0.0992  0.1703  0.2696
18736W        W38270   0.203  13.831  16.683 -0.0668 -0.1319 -0.2667
18737W        W38271   3.893  10.601  13.749 -0.0385 -0.1143  0.0751
18738W        W38272  10.270   0.316  15.919  0.0571 -0.2234 -0.0222
18739W        W38273   6.050  17.533   4.174 -0.0825 -0.0163  0.1963
18740W        W38274  13.012  11.010  12.965 -0.0350  0.3274  0.1188
18741W        W38275  14.706  16.623  16.231 -0.0974 -0.2216  0.1776
18742W        W38276   9.915   7.953   2.809 -0.0735 -0.2157 -0.2186
18743W        W38277   0.970  17.166   1.470  0.3327  0.1210 -0.0629
18744W        W38278   6.039  14.655   4.688  0.2063 -0.1149  0.0506
18745W        W38279   3.916   7.043   1.532 -0.0596 -0.1778  0.3198
18746W        W38280  17.059  17.894   5.565  0.1835 -0.1934 -0.0279
18747W        W38281  17.303   5.506  15.990 -0.2599  0.1918  0.2504
18748W        W38282   6.728  10.709   0.687  0.2269  0.0772 -0.0477
18749W        W38283  13.155   6.594   1.971  0.1553  0.1669 -0.2027
18750W        W38284   1.783   9.980   1.497 -0.1562  0.1057  0.2205
18751W        W38285  17.489  15.478   4.802  0.0324  0.0459 -0.3149
18752W        W38286   8.903   9.084  15.887 -0.2529  0.4963  0.2001
18753W        W38287  14.001  12.706  12.885 -0.1398  0.2794  0.1168
18754W        W38288  13.522   3.270  13.316  0.1874  0.2558  0.2966
18755W        W38289   0.861  13.267   2.333 -0.1408 -0.1022  0.1493
18756W        W38290   6.307  12.240   2.866 -0.2669  0.0920 -0.0229
18757W        W38291  12.865  10.345   4.637 -0.1325 -0.4885 -0.2258
18758W        W38292  12.109  12.808  15.117 -0.3063 -0.0771 -0.0237
18759W        W38293   6.007  13.234  13.238  0.1319 -0.0490 -0.0812
18760W        W38294  16.183  13.226  13.193  0.2202 -0.4180  0.1267
18761W        W38295  10.824   8.476   3.419 -0.0461 -0.0346  0.0693
18762W        W38296   5.219   6.645  16.316 -0.0597 -0.0183  0.0774
18763W        W38297  11.643  15.555  11.658 -0.1543 -0.0723 -0.0577
18764W        W38298  11.943  10.753  14.525 -0.1168 -0.4351 -0.0279
18765W        W38299  17.265  11.266   4.648 -0.0363 -0.0203 -0.2937
18766W        W38300   8.724   4.620   1.688  0.1990 -0.3085  0.1600
18767W        W38301   1.585  13.509   1.774 -0.0825 -0.1831 -0.0767
18768W        W38302   9.252   4.710   1.776  0.0053  0.0630  0.0213
18769W        W38303   4.397  15.607  14.189  0.2805 -0.0686 -0.3703
18770W        W38304   8.489   6.805  16.616  0.0566 -0.0439  0.1494
18771W        W38305   1.927  14.258  12.552  0.1784  0.3030 -0.2421
18772W        W38306  13.314   2.105   0.404 -0.0407  0.0088 -0.1558
18773W        W38307   8.982  11.058   3.705 -0.3385  0.2866 -0.1251
18774W        W38308  15.634  16.337   4.523  0.1101 -0.1281  0.3478
18775W        W38309   5.317  17.636  16.642  0.0124  0.1956 -0.1317
18776W        W38310   6.709   5.264   2.840  0.0688 -0.2176  0.2501
18777W        W38311  10.957  15.982  12.337  0.1698 -0.0143 -0.2748
18778W        W38312  15.554   0.945   2.742  0.3933  0.2290  0.1795
18779W        W38313  14.911  10.935  15.465 -0.4931 -0.0095  0.1721
18780W        W38314  10.834   2.869   4.617 -0.3098  0.1974 -0.0553
18781W        W38315   3.596  16.443   4.548  0.0077 -0.0702 -0.0985
18782W        W38316  10.607  16.038   3.197  0.4738  0.1656  0.1414
18783W        W38317   2.652   6.005  13.366 -0.1849  0.1055 -0.2975
18784W        W38318   4.806   0.920  15.327  0.1027 -0.2802 -0.1587
18785W        W38319   7.770  10.441   2.229  0.3138 -0.2991  0.1095
18786W        W38320  17.403   5.036   0.085 -0.1361  0.1409  0.0136
18787W        W38321  12.346  11.063  15.200 -0.2152 -0.0834 -0.2388
18788W        W38322  11.220   0.296   1.745 -0.1378 -0.1862  0.1418
18789W        W38323  13.978   3.758   3.751  0.0285  0.0373  0.0678
18790W        W38324   4.974   0.584   3.521 -0.1290  0.0718  0.1658
18791W        W38325   2.401   1.595  16.568 -0.2037 -0.1325 -0.1657
18792W        W38326   7.659   6.008  15.225 -0.0881 -0.2510 -0.2702
18793W        W38327   1.941  17.486   1.869 -0.2713 -0.0618 -0.2132
18794W        W38328   8.803  13.785  13.283  0.2312 -0.2172 -0.2737
18795W        W38329   3.013   0.244  16.175  0.1354 -0.0011 -0.1134
18796W        W38330  12.768   9.718  15.049  0.2735  0.4227 -0.0830
18797W        W38331   6.696   6.158  14.285 -0.1800  0.0697 -0.3529
18798W        W38332   2.445   1.224  14.007  0.1927  0.0976 -0.1920
18799W        W38333  15.922   1.216  15.925  0.1865  0.1302 -0.2071
18800W        W38334  14.002  13.743  16.250  0.1087 -0.2147 -0.1107
18801W        W38335   2.086  17.860   2.140 -0.0336  0.3822  0.2633
18802W        W38336   3.541  10.494   5.060  0.0349 -0.3183 -0.3799
18803W        W38337   2.529  14.120   4.485  0.1896 -0.0204 -0.3169
18804W        W38338  11.252   6.136   0.311 -0.1435  0.3011  0.0700
18805W        W38339  13.659  14.572   4.016 -0.0338 -0.0799 -0.0214
18806W        W38340  10.804   7.669   0.212 -0.1370 -0.0856 -0.0509
18807W        W38341  10.175  16.497   0.519 -0.2274  0.1039 -0.0205
18808W        W38342  15.099  17.029  12.647  0.1654  0.2945  0.2346
18809W        W38343   2.275  11.716   2.173  0.3138  0.0309 -0.1275
18810W        W38344  17.343   5.731  14.556  0.0738 -0.0880 -0.0946
18811W        W38345   7.661   8.381  12.208  0.3020  0.2704 -0.1485
18812W        W38346  11.695   6.218   4.242 -0.2823  0.0327 -0.0568
18813W        W38347   3.718   4.926  14.271  0.2497  0.0130  0.2920
18814W        W38348  10.551  17.824   1.696 -0.0638 -0.0682 -0.0966
18815W        W38349   4.372  10.368  13.589  0.0340  0.0407 -0.0704
18816W        W38350   1.953  14.521  14.250  0.1659 -0.2267 -0.4939
18817W        W38351  14.896   1.067  15.137 -0.0338 -0.0223  0.0786
18818W        W38352  12.642   0.541  13.188  0.0467 -0.1613  0.2325
18819W        W38353   2.815  12.801  15.919  0.2212  0.1104 -0.2690
18820W        W38354  14.751   9.733   3.261 -0.2232  0.3056 -0.0249
18821W        W38355  17.310   0.509   0.200 -0.0961 -0.0034  0.0589
18822W        W38356   1.488   1.439   4.434 -0.3042  0.1242 -0.0924
18823W        W38357  11.362   8.571   0.745  0.1900  0.3258  0.0732
18824W        W38358   7.340   4.936   3.444  0.3735 -0.0516 -0.0235
18825W        W38359  15.187  11.187  12.459  0.1682 -0.1526 -0.0330
18826W        W38360   6.804  12.150  16.385  0.1875  0.0816  0.0804
18827W        W38361  12.823   1.209   2.928 -0.4417 -0.1837  0.1969
18828W        W38362  13.184   7.258  14.745  0.3306  0.0695 -0.1458
18829W        W38363  12.624   1.632  12.651 -0.1942 -0.0908 -0.3716
18830W        W38364   1.947   7.274  12.026 -0.2080  0.2307  0.1617
18831W        W38365  10.748   5.845   5.489  0.1741 -0.1567 -0.1696
18832W        W38366  17.367   1.335  14.076 -0.0629  0.0960 -0.1395
18833W        W38367  12.019   5.891  14.361  0.1749  0.0478 -0.0709
18834W        W38368   1.836  14.783   3.395  0.0110 -0.2433 -0.2456
18835W        W38369   5.418   6.694  14.208  0.1966 -0.2905  0.2744
18836W        W38370   4.467   4.401   0.610 -0.0154 -0.1126 -0.1072
18837W        W38371   0.133  12.732   0.225 -0.1297  0.3293 -0.3646
18838W        W38372   0.756  12.447   3.545 -0.1587  0.0939 -0.1393
18839W        W38373   2.084  15.866   3.298  0.1524  0.0899  0.2109
18840W        W38374   1.721   2.057   0.209 -0.1013  0.0137  0.4459
18841W        W38375  16.273   6.082   4.100  0.0907  0.1721 -0.2253
18842W        W38376  12.998   2.257   3.540 -0.0195  0.0068  0.2406
18843W        W38377   7.548   6.726  11.838  0.1832 -0.0678 -0.2400
18844W        W38378   8.155   7.054  15.740 -0.1909  0.3281  0.0832
18845W        W38379  16.622   3.750   3.180  0.1077  0.0580  0.1202
18846W        W38380   7.778  13.320   4.412 -0.0693  0.0187 -0.1083
18847W        W38381   6.178  11.157  14.575 -0.0756 -0.1354  0.1023
18848W        W38382  10.362  17.746  15.354 -0.1297  0.0468  0.1213
18849W        W38383  10.378   7.423  15.728  0.0070 -0.1381 -0.3631
18850W        W38384   2.150   8.864   1.695 -0.2794 -0.2215 -0.0580
18851W        W38385   8.551   0.736  14.318  0.1715 -0.0135 -0.2196
18852W        W38386  14.184   6.114   2.003 -0.0741  0.2241 -0.2821
18853W        W38387   1.699   2.933  12.934  0.0718 -0.2027 -0.3261
18854W        W38388  15.351  14.248  13.292 -0.3470  0.0102 -0.0386
18855W        W38389   9.288  17.081   4.015  0.2864  0.2517 -0.5951
18856W        W38390   6.737  11.759   0.874  0.0085 -0.4457  0.1734
18857W        W38391  15.330   7.266   5.547 -0.0881  0.0162 -0.0830
18858W        W38392  10.494   4.345  12.206  0.1013  0.1171 -0.2314
18859W        W38393  15.101   4.004  12.874  0.0717  0.0251  0.1323
18860W        W38394  17.610   2.930   2.628  0.0643 -0.2475  0.0233
18861W        W38395  13.776   2.390  13.781  0.0410  0.2563  0.3640
18862W        W38396   7.221   5.658  15.275  0.0497 -0.2502 -0.4425
18863W        W38397  12.486  10.658  15.863  0.1322  0.0205 -0.0361
18864W        W38398   8.741   0.404   3.594  0.0820 -0.2375 -0.0847
18865W        W38399   7.428   8.815   0.606  0.0704 -0.1996  0.2163
18866W        W38400  17.838   5.261   3.422  0.1504  0.0690  0.2581
18867W        W38401   4.231   2.411   3.423  0.0466  0.2333 -0.1207
18868W        W38402   1.606  10.449   1.455 -0.1267  0.2649 -0.1198
18869W        W38403   4.297   6.442   0.056 -0.0641 -0.3617 -0.1763
18870W        W38404   4.179   5.767  11.805  0.3208  0.1785 -0.1190
18871W        W38405   6.632   4.903  12.527 -0.2382  0.1242  0.2783
18872W        W38406   5.245   8.210   0.620 -0.0304  0.0805  0.2142
18873W        W38407  16.047  15.378   5.815  0.0037  0.1050  0.1083
18874W        W38408   0.339   2.862  12.096 -0.1600  0.2797 -0.3343
18875W        W38409   5.985  17.415   5.058  0.0903 -0.0846 -0.0986
18876W        W38410  13.015   8.339   3.125  0.1282 -0.0149  0.3026
18877W        W38411  17.822   3.370   0.775 -0.0670 -0.2057  0.0967
18878W        W38412   5.405  17.143   2.140 -0.3220  0.1435  0.0631
18879W        W38413   4.867   9.968   0.416 -0.4541 -0.0505  0.0333
18880W        W38414   3.928  17.481   5.494  0.3243  0.0422 -0.0013
18881W        W38415  11.709   5.841   3.781 -0.3040 -0.0020  0.1285
18882W        W38416  13.219   9.464   1.481 -0.1443 -0.4309  0.3452
18883W        W38417   9.011   7.781   4.451  0.1747  0.0051  0.0763
18884W        W38418   2.929   6.227   4.388  0.0400  0.0584  0.2468
18885W        W38419  15.231  14.483   0.539 -0.1817 -0.3868  0.2868
18886W        W38420   3.323  14.612  16.743 -0.2205 -0.1824  0.0798
18887W        W38421   9.823   3.762   0.090 -0.3756 -0.1910 -0.2361
18888W        W38422  11.883   5.235   4.288  0.2989  0.1630  0.1008
18889W        W38423  15.615   2.243   1.643  0.2660 -0.1742 -0.0476
18890W        W38424   6.203  11.376   1.959  0.0421  0.1259  0.0227
18891W        W38425   5.352  12.753   3.772 -0.0965  0.0431 -0.0904
18892W        W38426   8.083   3.155  14.373 -0.1047 -0.0654  0.1187
18893W        W38427   7.291   9.712  13.443  0.0548  0.1134 -0.1113
18894W        W38428   4.068  10.554   1.659 -0.0253  0.1133 -0.0106
18895W        W38429   4.710   5.662  14.444  0.5468  0.1352  0.1484
18896W        W38430   6.910  15.932   1.670 -0.2105 -0.1026 -0.2219
18897W        W38431   9.739  15.548  14.359 -0.3374  0.0898  0.0242
18898W        W38432  13.438  14.563   0.415 -0.0567  0.2388  0.2115
18899W        W38433   4.670  15.623   0.978 -0.0811  0.1360 -0.1061
18900W        W38434   6.357   4.844  12.103  0.2815 -0.0889 -0.0062
18901W        W38435  13.997   6.444  14.635  0.2747  0.1813 -0.0364
18902W        W38436   6.716   4.354   3.746 -0.0486  0.0877  0.1214
18903W        W38437   9.821  11.697   1.247  0.1970  0.1315 -0.2289
18904W        W38438  11.916  16.130   4.011  0.1840 -0.1500  0.1510
18905W        W38439   9.601   0.729   0.788 -0.1267  0.2438  0.0090
18906W        W38440   8.443  10.970   4.667 -0.2537  0.2246  0.3213
18907W        W38441   4.441  16.932   2.650  0.2990  0.5233 -0.1987
18908W        W38442   3.087   2.259   1.729  0.0332  0.5005 -0.2936
18909W        W38443   2.810  16.642   1.303  0.2417 -0.1711 -0.2807
18910W        W38444   0.055   0.096   2.296 -0.0219 -0.0130 -0.1804
18911W        W38445  11.046  16.252   3.120  0.2256 -0.0319  0.2278
18912W        W38446  17.894  17.037  16.301  0.3525  0.1184  0.0817
18913W        W38447  17.111  10.245   0.599  0.0350 -0.1711  0.1327
18914W        W38448  11.011   8.711   2.159  0.1803  0.0125  0.3540
18915W        W38449  17.241   0.716  15.558 -0.2643  0.2198  0.0595
18916W        W38450  12.137   8.759   1.001 -0.3550  0.0450  0.1458
18917W        W38451  11.258   5.911  11.991 -0.1440  0.0501 -0.1656
18918W        W38452   7.811   3.857   2.759 -0.1518 -0.1000  0.1809
18919W        W38453   8.960   9.693   4.657 -0.2800 -0.5550  0.3470
18920W        W38454   4.853   1.588   3.313  0.1837  0.2028  0.0391
18921W        W38455   2.175   1.405  15.742 -0.0075  0.1212 -0.1721
18922W        W38456  10.590  16.925  14.143 -0.1554  0.0572 -0.0796
18923W        W38457  17.177   2.412   3.883 -0.1860  0.1762 -0.1638
18924W        W38458  13.005   0.325   2.179 -0.4914 -0.2792 -0.3231
18925W        W38459   5.033   6.403  13.921  0.1659 -0.0812 -0.1490
18926W        W38460   0.299  15.994  16.543  0.3111 -0.1581  0.0209
18927W        W38461   1.611  12.283   1.162 -0.4058  0.3492  0.1757
18928W        W38462  15.273  15.045   0.575 -0.1555  0.0144  0.1884
18929W        W38463   7.124   4.998   2.991  0.2694 -0.0315 -0.2592
18930W        W38464  15.868  10.170   4.125  0.0676 -0.1169 -0.0033
18931W        W38465  16.584   0.066  13.331 -0.0324 -0.1190 -0.1469
18932W        W38466   9.342   2.191  12.561  0.1738  0.0096 -0.2047
18933W        W38467  17.420  10.607  14.487 -0.1087 -0.0373  0.1001
18934W        W38468   2.768   5.167  14.383  0.0755 -0.0578 -0.0550
18935W        W38469   0.667   5.035  14.472  0.0655 -0.0822  0.1030
18936W        W38470  14.534   0.598   4.285 -0.2741 -0.1062 -0.1157
18937W        W38471  17.720   5.804   1.552  0.4129  0.0052 -0.4087
18938W        W38472   4.995  10.235  12.105  0.2046  0.3061 -0.2786
18939W        W38473  11.309  10.719  15.466 -0.1912 -0.2974 -0.2054
18940W        W38474  12.581   4.446  15.407 -0.2053 -0.3469 -0.3195
18941W        W38475  11.252  15.465   0.007  0.0363  0.1801  0.1230
18942W        W38476   5.470   7.677   2.668  0.0680 -0.1574  0.0717
18943W        W38477   2.946   3.283   4.115 -0.1282  0.4009 -0.2878
18944W        W38478   6.996  10.022  11.085  0.0434 -0.1052 -0.2217
18945W        W38479  14.020   3.943   2.887 -0.0894  0.0467 -0.0660
18946W        W38480   3.293   8.132  16.688 -0.0503  0.3762  0.2959
18947W        W38481   4.541  17.202   1.685 -0.1299 -0.0058  0.0639
18948W        W38482   0.621   3.602   1.049 -0.1859 -0.2196 -0.1367
18949W        W38483  11.116   5.774   2.924  0.0592  0.3298 -0.2404
18950W        W38484  14.285   4.741  13.014 -0.2367  0.0473 -0.1665
18951W        W38485   4.574   5.379  14.887 -0.3294 -0.2352  0.1287
18952W        W38486   0.479   4.127  16.504 -0.0330  0.0535 -0.1958
18953W        W38487   1.898   4.207   1.105  0.0099  0.1521 -0.0168
18954W        W38488  17.718   9.967  16.099 -0.2166  0.1729  0.0651
18955W        W38489   7.796   3.866  15.395 -0.0135 -0.2908 -0.0382
18956W        W38490   2.721  14.393  16.165  0.1213 -0.1217 -0.0479
18957W        W38491  11.687  10.694   3.066  0.0465 -0.3147 -0.2086
18958W        W38492  10.162   0.893   1.431 -0.2237 -0.1697 -0.0966
18959W        W38493   8.380   1.414  15.844 -0.0229  0.0814  0.0561
18960W        W38494  12.558   6.457  16.272  0.4326  0.0586  0.0714
18961W        W38495   8.213  13.199  15.962  0.1517 -0.3254 -0.0975
18962W        W38496   8.063  17.695  16.243 -0.3333  0.2380  0.0586
18963W        W38497   0.846   9.887  15.884 -0.0321  0.0986  0.1348
18964W        W38498  16.056  17.897   2.490  0.4926  0.0312  0.0983
18965W        W38499   2.770   6.009  15.460  0.0592 -0.1680  0.0216
18966W        W38500   9.364  10.625   4.654  0.0758  0.1624 -0.0095
18967W        W38501  17.322  16.176  15.987 -0.2603  0.1917  0.1838
18968W        W38502  16.722  11.648   1.294  0.1581  0.1647  0.2051
18969W        W38503  10.084   7.293   2.336  0.0091 -0.0084  0.0542
18970W        W38504  12.888  13.745  14.364  0.2120 -0.0850  0.2052
18971W        W38505   5.182   1.999  15.507 -0.4831  0.0213  0.2032
18972W        W38506  10.094  13.039   1.330 -0.0854  0.0746  0.2113
18973W        W38507   9.714   4.091   3.174  0.1191  0.0945  0.0035
18974W        W38508   5.175  14.269  13.108  0.0267  0.0757  0.0923
18975W        W38509   2.199  13.613   0.802 -0.0985 -0.0419  0.3497
18976W        W38510  11.355  13.034   3.736 -0.2766 -0.1064 -0.0362
18977W        W38511   6.071   7.487  12.749 -0.2242 -0.2496 -0.0112
18978W        W38512   0.564  14.526  12.962  0.3277 -0.2399  0.0395
18979W        W38513   2.743   5.443   3.763  0.2110 -0.3066 -0.0835
18980W        W38514  16.546   0.084  15.374  0.0138  0.1324  0.1774
18981W        W38515  17.379   7.796   2.585  0.1845  0.1038  0.0735
18982W        W38516  16.834   5.729  15.220  0.1787  0.0922  0.1582
18983W        W38517  10.434   7.556  14.822  0.1385 -0.1655  0.3330
18984W        W38518   9.694  12.875   1.560  0.3798 -0.0174  0.2857
18985W        W38519  11.553   3.285   4.381  0.2883 -0.2425  0.1955
18986W        W38520   3.411  12.484  13.705  0.2118 -0.0914 -0.1122
18987W        W38521   5.970  17.529   0.855  0.1613 -0.0025  0.0293
18988W        W38522  12.888  11.376   4.412  0.0714  0.0783 -0.2246
18989W        W38523  15.999   0.404  15.855 -0.2967 -0.0529  0.0534
18990W        W38524  14.268   6.576  16.718 -0.0481 -0.2325 -0.2689
18991W        W38525  17.707  14.934  15.229 -0.0300 -0.0768 -0.1233
18992W        W38526  12.846   9.915   3.076 -0.1551  0.0703  0.5345
18993W        W38527   7.914   1.083  11.975 -0.4533 -0.1241  0.1534
18994W        W38528  17.473   4.519   0.753 -0.2186  0.1371 -0.0719
18995W        W38529   4.424  13.662   4.197  0.3083 -0.0729 -0.6854
18996W        W38530  11.970   3.529   2.920 -0.0915  0.0590 -0.1082
18997W        W38531   8.553  15.444  12.878 -0.1108 -0.0864  0.0651
18998W        W38532   2.926   0.300  15.296  0.1938  0.4401 -0.1832
18999W        W38533   8.565  10.146   3.234 -0.1687 -0.1289  0.0299
19000W        W38534   8.774   3.061  12.421  0.2262  0.0454 -0.0350
19001W        W38535   1.030  12.131  13.780 -0.4399  0.2326  0.1835
19002W        W38536  13.448   9.287  14.454 -0.0361 -0.3772 -0.1620
19003W        W38537  15.422   5.702  11.820 -0.0171  0.0089  0.1922
19004W        W38538   2.871  14.432  14.671  0.0030  0.1403  0.1153
19005W        W38539   8.132  17.852  14.025  0.0433 -0.2221 -0.1805
19006W        W38540   2.252  14.568  16.232 -0.3132 -0.1237 -0.1678
19007W        W38541  11.130  17.765   3.356 -0.1550  0.2677 -0.3661
19008W        W38542   5.183   5.734  14.392 -0.2290 -0.2145 -0.1770
19009W        W38543   0.459  11.096  12.915 -0.0197  0.0285 -0.2128
19010W        W38544  10.160   4.471   4.230 -0.3844  0.2282  0.4228
19011W        W38545   6.530   2.975   1.886  0.0573 -0.1889 -0.0435
19012W        W38546   7.208  15.996  16.285  0.2659  0.0875 -0.0504
19013W        W38547  13.856   3.916  12.121  0.6399  0.2773 -0.0221
19014W        W38548   5.482  10.056  14.175  0.2416 -0.2794  0.0619
19015W        W38549  17.055   2.130   1.417 -0.0733 -0.1665  0.4610
19016W        W38550  17.008   8.818  16.012  0.1711 -0.3754 -0.1441
19017W        W38551   0.151  15.372  15.239  0.3924 -0.1844 -0.0001
19018W        W38552   5.686  15.002   1.315  0.2602  0.0789 -0.4150
19019W        W38553  17.747  15.070  16.334  0.2112  0.1296 -0.0473
19020W        W38554  14.562   9.168  16.604  0.2173  0.0049 -0.4478
19021W        W38555   8.225  10.789  15.488  0.1122 -0.0121 -0.0810
19022W        W38556  10.924   1.481  16.196  0.0850 -0.0136 -0.0443
19023W        W38557   4.643   0.164   0.587 -0.2048  0.1892 -0.1626
19024W        W38558  17.621   5.815  14.989 -0.0736 -0.0298 -0.2183
19025W        W38559  13.598  13.648   4.544 -0.0746  0.0790 -0.1846
19026W        W38560  14.262   2.150  10.801 -0.2772  0.0848  0.3131
19027W        W38561   2.417  15.175   3.816  0.0729 -0.0346 -0.2115
19028W        W38562   3.271   5.499   3.985  0.0364  0.3419  0.2395
19029W        W38563   4.295   7.333  14.480  0.1293 -0.4677  0.0873
19030W        W38564   1.952   2.214   3.834 -0.1072  0.4414 -0.0601
19031W        W38565   6.392  13.535  12.597 -0.2511  0.0655  0.1351
19032W        W38566  14.221   2.031   1.478 -0.2396  0.1093 -0.2085
19033W        W38567   8.450   7.898   3.297  0.1185  0.3533  0.1362
19034W        W38568   2.751   8.022  12.725  0.0455 -0.0893 -0.1411
19035W        W38569   2.645  10.022   1.070  0.5971 -0.0103 -0.4951
19036W        W38570  13.275   9.253   3.327 -0.0309 -0.0103  0.0759
19037W        W38571   6.410  11.292  14.155 -0.0907  0.0515  0.0485
19038W        W38572   7.868  11.556   1.681  0.1046 -0.1247 -0.0697
19039W        W38573  10.255  12.731  12.332 -0.0621  0.2491 -0.1995
19040W        W38574   7.238   2.107  15.211  0.1810 -0.1647  0.1913
19041W        W38575   0.831  17.095  15.846  0.0254 -0.1308  0.1529
19042W        W38576  10.902   8.804   3.847  0.5133 -0.1518 -0.0779
19043W        W38577   5.425   1.557   4.520 -0.0601  0.2274  0.1688
19044W        W38578   3.002  13.659   1.994  0.2746  0.0926  0.1242
19045W        W38579   4.981  14.498  11.767 -0.1432 -0.2138 -0.2027
19046W        W38580   1.351  13.168   3.161 -0.0553  0.1227 -0.0472
19047W        W38581  16.785  12.043   1.703  0.1244 -0.1701  0.2378
19048W        W38582   7.080   1.450  13.008  0.0346 -0.5513  0.0112
19049W        W38583   3.470  10.926  15.959  0.0175  0.1997 -0.0779
19050W        W38584   6.344   9.695  14.321 -0.3460 -0.0325  0.0118
19051W        W38585   8.097   4.215   2.530 -0.0749 -0.0319 -0.0261
19052W        W38586   2.318  16.478   0.486 -0.2096  0.2416 -0.1233
19053W        W38587   7.200   0.060   4.998  0.1257 -0.0127 -0.1099
19054W        W38588  13.640  14.007  15.927 -0.0290  0.1140 -0.0024
19055W        W38589   6.289  17.367  16.327  0.1415  0.1390 -0.2680
19056W        W38590   5.534   5.231   2.745  0.1650  0.0597 -0.0375
19057W        W38591   0.958   0.967  14.009  0.2964  0.2849 -0.2364
19058W        W38592  14.538   6.490  15.440 -0.1099  0.4623 -0.2602
19059W        W38593  11.038  11.969   0.498  0.0997 -0.2139  0.1079
19060W        W38594  11.529   9.861   2.747  0.1513 -0.3980 -0.1828
19061W        W38595   4.438   1.106   1.981 -0.1110  0.1446 -0.0664
19062W        W38596   5.400   4.861   5.336 -0.1057  0.2529 -0.1045
19063W        W38597   9.834   1.223  15.021 -0.1530  0.2248  0.3088
19064W        W38598   1.044  14.889   3.981  0.0272  0.0694  0.0028
19065W        W38599  15.288   9.899  13.567 -0.1230 -0.0308  0.0697
19066W        W38600   0.765  17.401   4.033  0.0010 -0.3012 -0.1756
19067W        W38601   2.514   5.287  15.232 -0.0714  0.1367  0.3163
19068W        W38602  15.210  15.305  13.142 -0.1894 -0.1001  0.1744
19069W        W38603  12.100   8.827  16.106  0.0642  0.1311  0.0549
19070W        W38604  14.083  16.925   0.848  0.1913 -0.0960  0.1682
19071W        W38605   5.331  16.083  11.864 -0.0848  0.5653  0.0381
19072W        W38606   4.576   9.445   0.659 -0.1620 -0.0302 -0.1515
19073W        W38607   9.758   4.919  15.874 -0.2814 -0.0016 -0.5397
19074W        W38608  10.971  11.799  16.308 -0.0490 -0.4502  0.1206
19075W        W38609  12.054  11.875   3.868  0.0954  0.0933 -0.0150
19076W        W38610   5.047  15.776   0.036 -0.4316  0.2923 -0.0266
19077W        W38611   9.833  12.557   0.719 -0.0618 -0.1773 -0.1627
19078W        W38612   3.371  14.552   0.511  0.3402  0.1657  0.0139
19079W        W38613  14.381  12.870  12.611  0.2323  0.0621  0.1050
19080W        W38614  14.016   2.262   5.030  0.1565 -0.1835 -0.0540
19081W        W38615  14.103   5.854  14.791 -0.0679  0.0251  0.1557
19082W        W38616   2.467   4.407   1.827 -0.0507 -0.1622  0.2302
19083W        W38617   4.472   8.409   4.303  0.1022  0.1271 -0.0146
19084W        W38618   5.210   8.193   1.705  0.0555  0.0138 -0.1254
19085W        W38619  11.175   8.565  16.509  0.1301  0.0028 -0.0039
19086W        W38620  10.216   7.726   1.406 -0.2213  0.0060 -0.1824
19087W        W38621   0.930   2.840   1.508  0.3915  0.0670 -0.0235
19088W        W38622   5.908   9.209  15.639  0.0477  0.0360  0.1166
19089W        W38623  12.320   5.881   1.930 -0.1220  0.2270  0.1624
19090W        W38624   8.443  10.379  16.066 -0.3996 -0.3022 -0.2850
19091W        W38625   8.101  14.168   0.604 -0.0975  0.0413  0.5425
19092W        W38626  17.246   9.681  16.518  0.1640 -0.4468 -0.0819
19093W        W38627   7.713   4.771   1.406 -0.0095  0.0502 -0.2446
19094W        W38628   9.762  13.429   1.388  0.0989  0.3040 -0.1171
19095W        W38629  14.685  10.805  12.131 -0.1673 -0.1363  0.1211
19096W        W38630   3.857   1.541   3.106 -0.1132  0.0586 -0.0726
19097W        W38631   1.198  15.345   4.748 -0.1042 -0.0003  0.1386
19098W        W38632   2.983   8.877   3.435  0.2410  0.1333 -0.1262
19099W        W38633  16.838   5.294  16.531 -0.0810 -0.4777  0.3461
19100W        W38634  13.472   0.812   4.180 -0.2408 -0.0225  0.1511
19101W        W38635   1.844  17.036   1.009 -0.2346  0.0465  0.1809
19102W        W38636   4.530   0.795   3.104  0.1325  0.0831 -0.0269
19103W        W38637  10.777  14.711   4.489 -0.1575  0.1759  0.0864
19104W        W38638  15.941   4.681  11.780  0.2881  0.0475  0.0094
19105W        W38639  16.495  16.137   2.963  0.1357  0.2418 -0.1044
19106W        W38640   0.016   4.649   2.920  0.0529  0.0689  0.0467
19107W        W38641   2.452   9.332  12.632 -0.0774 -0.0132 -0.0878
19108W        W38642  17.884   9.365   3.441 -0.1584  0.1732  0.0464
19109W        W38643  11.226   1.108  14.292 -0.1775  0.0002  0.0966
19110W        W38644  15.096   6.568  16.619 -0.1556  0.3129  0.1185
19111W        W38645   1.335  10.017  12.449 -0.0479 -0.5488  0.1278
19112W        W38646   8.545   4.606  13.831 -0.1042  0.1319 -0.0803
19113W        W38647   5.334   8.299   5.493 -0.0639  0.0962 -0.0321
19114W        W38648  13.063  16.276   2.584  0.1151  0.0787  0.0386
19115W        W38649   2.445   6.838   3.968 -0.0481 -0.0473  0.2428
19116W        W38650  11.599   4.100  12.985 -0.0077  0.4419  0.0454
19117W        W38651  10.534  13.174  15.738 -0.2729 -0.1597 -0.0804
19118W        W38652   1.962  12.524  13.285 -0.0201 -0.0873  0.0493
19119W        W38653  15.854   1.129  12.940 -0.2126 -0.1876 -0.3994
19120W        W38654  11.223   6.796  14.894  0.0104 -0.2297 -0.1448
19121W        W38655  15.094   6.310  12.523 -0.0093  0.0791  0.4113
19122W        W38656  10.196   4.396  16.077 -0.0774 -0.0377 -0.1234
19123W        W38657  11.841  12.299  12.037  0.0653 -0.2871  0.0426
19124W        W38658   8.948   8.673   4.759  0.3589 -0.0883 -0.0544
19125W        W38659   2.784   9.864  13.559 -0.0067 -0.1858 -0.2179
19126W        W38660  17.815  10.199  13.872  0.0579  0.2697  0.0275
19127W        W38661  15.635  13.130  15.355 -0.0885  0.0775 -0.1468
19128W        W38662   3.745   2.976   5.375 -0.2030 -0.0490  0.0070
19129W        W38663   6.195   3.908  14.405 -0.0236 -0.0158 -0.0117
19130W        W38664   2.190   2.703  15.234  0.0522  0.1352  0.0848
19131W        W38665   7.956  13.950   3.217  0.6706  0.1377 -0.2424
19132W        W38666   3.864   5.871  14.781  0.0249  0.1059 -0.1603
19133W        W38667   2.219   1.701  12.811  0.0619  0.1737  0.0216
19134W        W38668   9.447   0.033  13.604 -0.0585 -0.0888 -0.0719
19135W        W38669   4.425  17.797  12.504 -0.0037  0.3780 -0.3218
19136W        W38670   4.785   1.481  13.549  0.1245 -0.0515 -0.0409
19137W        W38671  14.591   6.320   1.655 -0.1270  0.0596  0.2094
19138W        W38672   3.766   8.136   0.969 -0.0646  0.2222  0.1973
19139W        W38673   7.009  11.804  11.701 -0.2994 -0.2044 -0.2157
19140W        W38674  11.903  12.816   3.655  0.2824  0.1024 -0.3414
19141W        W38675  12.581   2.051  14.710  0.1119 -0.0805 -0.2253
19142W        W38676   7.490   8.825   1.816  0.0494 -0.0804 -0.1092
19143W        W38677   9.965   5.732   1.932  0.1096 -0.2916  0.0049
19144W        W38678  11.389  16.398   1.089 -0.1553  0.1873  0.1669
19145W        W38679   7.059   6.836   2.144  0.1505  0.1120 -0.1334
19146W        W38680   6.335   9.045   3.139  0.0074 -0.3222  0.0754
19147W        W38681   2.288   6.289  13.063  0.1527 -0.0765  0.1779
19148W        W38682   0.999   0.413  12.492 -0.0016  0.1678  0.2209
19149W        W38683   3.319   0.355   5.153  0.0564  0.0000  0.0234
19150W        W38684   3.646   2.812   1.297 -0.2926 -0.0620  0.1659
19151W        W38685   9.599   5.055  15.000  0.2691  0.0135  0.2868
19152W        W38686  12.854  12.498  14.078 -0.0301 -0.0415  0.2873
19153W        W38687   0.343   2.094  15.463  0.0921 -0.0492  0.2132
19154W        W38688   2.179   9.083  15.210 -0.0299 -0.2167  0.0905
19155W        W38689   5.223  10.124   4.336 -0.0016 -0.0443 -0.2163
19156W        W38690  11.648  17.307   0.167 -0.0015 -0.2431  0.1482
19157W        W38691  12.864  17.892  12.334  0.1479 -0.3674  0.0949
19158W        W38692   4.284   1.593   4.626 -0.1459  0.4368  0.0559
19159W        W38693  10.181   5.009   1.680  0.2242 -0.1389  0.0300
19160W        W38694  10.849  10.747  14.626 -0.0455 -0.3300  0.0405
19161W        W38695   7.976  16.064   2.524 -0.0071 -0.0677 -0.0795
19162W        W38696   9.109   1.121   4.718  0.1016  0.0749  0.3008
19163W        W38697   6.727   0.224   4.296  0.0278  0.1912  0.2534
19164W        W38698  16.473   5.061  13.376  0.1643  0.2095  0.3827
19165W        W38699   8.924  16.834   4.259 -0.2065 -0.1090  0.0054
19166W        W38700   7.508  12.737  11.830  0.3939  0.0480  0.0024
19167W        W38701   1.233  13.551   2.720  0.1843  0.0910  0.0048
19168W        W38702   9.010   4.683   4.406 -0.0052  0.1467 -0.1390
19169W        W38703   8.280   3.314  15.606 -0.3620  0.0538 -0.4415
19170W        W38704  13.888   6.029   3.805  0.3962 -0.1657  0.1237
19171W        W38705  17.520   1.919   4.873 -0.4316 -0.0233 -0.1482
19172W        W38706   1.194   9.203   3.605  0.0171 -0.2113 -0.1036
19173W        W38707   8.521   5.530  11.838 -0.1436  0.2101 -0.0403
19174W        W38708   5.588   5.609  15.147  0.1795  0.3883 -0.0001
19175W        W38709  11.418  15.578   1.531  0.3158  0.1174 -0.1401
19176W        W38710  11.194   8.547   2.977 -0.0691 -0.3669 -0.0735
19177W        W38711  11.323   9.891   0.630  0.0772 -0.0580 -0.1752
19178W        W38712   3.841   6.237   1.197 -0.1554 -0.0611 -0.3832
19179W        W38713   8.147   9.828   3.369  0.2804 -0.2340 -0.3350
19180W        W38714   4.554   0.585  14.970  0.0880 -0.2400 -0.1342
19181W        W38715   8.175   5.864  12.142 -0.2800  0.1731 -0.1416
19182W        W38716  15.585   6.320  12.790  0.2687  0.0595  0.4687
19183W        W38717   5.481  17.871  15.166 -0.0718  0.1638  0.0831
19184W        W38718   1.593   3.704  16.667 -0.2105 -0.0251 -0.0135
19185W        W38719   6.332   5.827   5.015 -0.2712  0.0701 -0.0259
19186W        W38720   4.801  11.427  12.137 -0.2535 -0.4143  0.1654
19187W        W38721   6.698   8.988  13.306  0.4026  0.1008 -0.3121
19188W        W38722  14.060   0.564   3.497 -0.1216 -0.3319  0.1146
19189W        W38723  10.773  12.840   3.205  0.1847  0.2375 -0.1913
19190W        W38724   3.092   7.097   3.113 -0.0345 -0.1304 -0.1820
19191W        W38725   4.045  13.772  12.192 -0.0433 -0.2028  0.1206
19192W        W38726   9.463   9.168  16.595 -0.0909 -0.4715 -0.0389
19193W        W38727   2.618   3.858  14.511  0.1317  0.2391 -0.1027
19194W        W38728  11.491   8.393   0.237  0.0660  0.0078  0.1597
19195W        W38729  10.617  13.165  16.253 -0.1539 -0.2355 -0.0358
19196W        W38730  10.600   7.327  16.414 -0.0495  0.0266 -0.2038
19197W        W38731   9.295   9.573  12.690 -0.1789  0.0714 -0.1802
19198W        W38732   2.144  10.558   0.399  0.1618 -0.1662 -0.0736
19199W        W38733   1.919  15.078  16.192  0.2506  0.1981 -0.2355
19200W        W38734   0.274  16.169  12.400  0.1845  0.0180 -0.3219
19201W        W38735   5.664   9.951  13.442 -0.0469  0.0037 -0.1014
19202W        W38736   0.984   4.088  13.297 -0.3034 -0.1831  0.1419
19203W        W38737   6.118   2.477   0.237 -0.3458  0.2812  0.0536
19204W        W38738   4.900  17.754  15.807 -0.0705 -0.2523 -0.0356
19205W        W38739   7.285   7.412   3.216  0.2018 -0.2305 -0.3361
19206W        W38740  12.993  15.375   2.415 -0.1872  0.2032  0.1124
19207W        W38741  10.294   3.162  16.532 -0.0780 -0.0048  0.2063
19208W        W38742   6.014   4.609  13.195  0.1711 -0.2212 -0.0236
19209W        W38743  11.586  12.224   1.777  0.1542 -0.3006  0.1274
19210W        W38744  14.857  10.450  15.511  0.2268 -0.3309  0.0760
19211W        W38745   9.715   0.036   4.542  0.0735  0.1505  0.2585
19212W        W38746  16.679   7.980  12.839 -0.4975 -0.1605  0.2421
19213W        W38747   7.581   7.982  11.313 -0.1205 -0.0676 -0.1551
19214W        W38748   4.933   5.886  12.627 -0.1494  0.2639 -0.0453
19215W        W38749  12.412   0.810  15.775  0.1332  0.1201  0.0910
19216W        W38750  15.889   6.676   1.118 -0.3654  0.0715  0.0357
19217W        W38751  13.879   8.399   3.729 -0.0980  0.0642  0.1835
19218W        W38752   6.465   4.104   6.603  0.1987  0.0546  0.3895
19219W        W38753   7.327   0.980  13.788 -0.0998  0.3081  0.4594
19220W        W38754   9.537   1.545   1.549 -0.2672 -0.4021 -0.1867
19221W        W38755   7.081  14.188  12.860  0.0214  0.3617  0.0559
19222W        W38756  13.529   5.374  12.015 -0.0289 -0.0594 -0.0417
19223W        W38757  16.526  14.641   4.602 -0.1971 -0.2428  0.1707
19224W        W38758  10.637   8.609  12.731 -0.2023  0.1136  0.0203
19225W        W38759   1.513   3.449  12.097  0.2239  0.3059 -0.2794
19226W        W38760  14.178  11.284   4.555 -0.1270  0.1027 -0.5102
19227W        W38761  13.635   5.857  12.056 -0.1137  0.0502 -0.0445
19228W        W38762   7.357   1.019   5.253 -0.0713  0.2067  0.1874
19229W        W38763  11.255   8.317  16.044  0.1411  0.0455 -0.2363
19230W        W38764   7.886   1.179  13.324 -0.2435 -0.0112  0.0792
19231W        W38765  13.534   1.974   4.216 -0.0227  0.0813 -0.2271
19232W        W38766   9.686  17.432   4.663  0.0059 -0.0741  0.1856
19233W        W38767   4.067   6.084   2.837  0.2029 -0.1802  0.0034
19234W        W38768   8.548   4.153  12.666  0.0145  0.3228 -0.2549
19235W        W38769  12.795   1.559  15.850  0.3538 -0.1462 -0.0344
19236W        W38770   8.262  13.874  14.708  0.0687 -0.3163  0.3141
19237W        W38771  17.596   8.686  11.537 -0.1844  0.1845  0.2228
19238W        W38772   6.646   5.820  15.308  0.1170  0.0481  0.3775
19239W        W38773   0.621  11.376  14.269  0.2212 -0.2180 -0.0107
19240W        W38774   6.968  16.734   1.934  0.0141  0.2317 -0.2396
19241W        W38775  17.367   7.358  13.636  0.3506  0.0133 -0.2049
19242W        W38776  16.551  16.104  12.314  0.1705 -0.2215 -0.1975
19243W        W38777   9.795  15.432  13.407  0.2113  0.0825 -0.4131
19244W        W38778   7.334  15.222   0.579 -0.1008  0.0235 -0.1451
19245W        W38779  12.200   3.211  14.106  0.2282  0.0091  0.2488
19246W        W38780  13.802   6.885  12.925  0.2373 -0.2394  0.0764
19247W        W38781  16.540   8.266   1.523 -0.1895  0.0139 -0.0445
19248W        W38782  10.460   4.391  15.080  0.0863  0.0290 -0.0819
19249W        W38783  14.445   9.516  13.430  0.0184  0.2819 -0.1505
19250W        W38784   3.103   6.118   0.448 -0.0071 -0.1151 -0.0652
19251W        W38785  13.823  16.655   4.345 -0.0442 -0.0333 -0.1269
19252W        W38786  11.931   4.014   1.907  0.1087  0.0604 -0.0020
19253W        W38787   7.525   2.203   4.837  0.0194 -0.1929 -0.0839
19254W        W38788  16.580  10.602  15.308  0.2584 -0.1996  0.0353
19255W        W38789   1.098  16.736   0.122  0.1302  0.3378  0.2454
19256W        W38790   0.734   6.350  13.781 -0.1384 -0.0554 -0.1969
19257W        W38791   9.653  10.488  13.228  0.0638  0.1631 -0.2395
19258W        W38792   1.312  15.951  14.675 -0.1128 -0.2137  0.3904
19259W        W38793   6.210  15.540   4.184 -0.0083  0.1101 -0.5201
19260W        W38794  10.161  11.363   1.473  0.0494  0.1957  0.1537
19261W        W38795  16.971  10.689   1.789 -0.1696  0.1196 -0.1904
19262W        W38796   3.837  17.742   2.183 -0.0133  0.2677 -0.1657
19263W        W38797   9.170   9.012   2.677  0.1013  0.0612 -0.2785
19264W        W38798   1.715  12.735  14.668  0.1328 -0.2103  0.1518
19265W        W38799  16.564  10.538   3.408  0.3695  0.0639  0.0954
19266W        W38800   6.397   8.473  13.760 -0.1116 -0.1296 -0.0963
19267W        W38801   3.717  11.690   0.360 -0.3261  0.1208  0.1636
19268W        W38802   0.870   3.379   2.550 -0.1307  0.3461  0.1280
19269W        W38803   8.098   2.898  11.927 -0.2478 -0.2462  0.1504
19270W        W38804   9.109   8.801  12.057  0.6191  0.0023 -0.0151
19271W        W38805   3.074   5.678   0.699  0.2149 -0.2041 -0.2330
19272W        W38806  13.860  15.230  15.564  0.2871 -0.1660  0.1747
19273W        W38807   4.829   1.029   2.292  0.0804 -0.4189  0.0654
19274W        W38808   7.472   3.338   6.388 -0.0980  0.2931 -0.4500
19275W        W38809   7.110   6.078  14.632 -0.0193  0.1082 -0.3666
19276W        W38810   0.269   2.957  13.238 -0.0353  0.0732 -0.1188
19277W        W38811   8.335   7.968  12.775 -0.0484  0.1218  0.2565
19278W        W38812  16.102  12.665   3.604 -0.0867  0.1162 -0.1985
19279W        W38813   3.177   7.051  13.957  0.3397  0.2051 -0.4067
19280W        W38814  16.478  11.337  12.070  0.2172  0.1058 -0.0954
19281W        W38815  10.862  16.231  12.766  0.0793 -0.1458 -0.1262
19282W        W38816  10.535  14.141  14.804 -0.1973 -0.1369  0.0910
19283W        W38817  10.765   2.902   1.785  0.0266  0.0218 -0.1122
19284W        W38818   2.964   6.691   5.055  0.1595  0.0853 -0.1375
19285W        W38819  13.964  14.313   1.179 -0.2423  0.2122  0.2407
19286W        W38820   4.668  10.725  12.902  0.1121 -0.1712 -0.0092
19287W        W38821   3.700  17.819   5.096 -0.0335 -0.1675  0.0029
19288W        W38822  16.864   3.850   2.221 -0.0085 -0.3175  0.2340
19289W        W38823   9.396   8.018  16.180 -0.0225  0.1685  0.0316
19290W        W38824  15.789  16.832  16.611  0.1515  0.2160  0.1567
19291W        W38825   1.685  11.554  15.427  0.1720 -0.2358 -0.1669
19292W        W38826   1.788  13.964  13.700  0.1710 -0.1647  0.0929
19293W        W38827  15.944   9.792   3.530 -0.2576  0.2631  0.0890
19294W        W38828   0.308   3.339   4.903 -0.1174 -0.0186 -0.0614
19295W        W38829  13.946   0.725   2.226  0.1139  0.0277 -0.2725
19296W        W38830  14.619   6.376   2.652  0.0762  0.1022 -0.0188
19297W        W38831   9.085  12.151  16.692 -0.3684 -0.1663  0.0905
19298W        W38832   8.231   7.952  14.728 -0.0538  0.2515  0.3343
19299W        W38833  16.069   8.970  12.828  0.0863  0.0812 -0.0499
19300W        W38834   1.971  10.919  16.019 -0.3107  0.1478 -0.3024
19301W        W38835   0.699   6.477  16.660  0.1766  0.1766  0.0005
19302W        W38836  17.377  14.983   3.962  0.3858  0.0728 -0.0478
19303W        W38837  14.932   2.356   0.165  0.0371 -0.2183  0.1809
19304W        W38838  13.933   8.424   5.713 -0.0445  0.1604 -0.0325
19305W        W38839   0.945  14.999  16.236  0.2038 -0.1559 -0.1701
19306W        W38840   5.561   4.177   6.133 -0.4181 -0.4417  0.0048
19307W        W38841  11.956   2.621   2.674 -0.1360  0.2362  0.0449
19308W        W38842   0.263   3.357  12.435  0.0494 -0.0587  0.2108
19309W        W38843  16.418  12.350  13.890  0.1274  0.2722 -0.1208
19310W        W38844  17.335  13.965  11.742  0.1682 -0.1703 -0.1923
19311W        W38845  16.872  10.727  13.310 -0.3038 -0.2564 -0.0568
19312W        W38846   5.573   6.386   0.333 -0.0075 -0.2301  0.0860
19313W        W38847   3.866   6.093  14.272 -0.0951  0.1100  0.0469
19314W        W38848  16.453   4.283   0.664 -0.3045  0.0514 -0.0898
19315W        W38849   2.718   0.176  12.846 -0.0213 -0.0967  0.0713
19316W        W38850  10.363   9.470   4.917 -0.1359  0.1231 -0.1509
19317W        W38851   4.136  12.254   0.931 -0.1323 -0.0865  0.3561
19318W        W38852  16.304  12.040  13.516 -0.3224 -0.1222  0.3947
19319W        W38853   5.924  16.456   2.011 -0.1473 -0.1546 -0.0130
19320W        W38854   0.458   7.715   2.403  0.2110  0.0999 -0.1635
19321W        W38855   3.913   7.666   1.407 -0.2350  0.0137 -0.3018
19322W        W38856   1.532   7.737   3.999  0.1583  0.0160  0.1027
19323W        W38857  12.112  13.537   4.225  0.3389  0.2747  0.0525
19324W        W38858   0.330   6.759  13.431 -0.2891 -0.0968  0.2204
19325W        W38859   9.725  13.951  15.034  0.0219  0.1475  0.0548
19326W        W38860   5.003   2.503  13.057  0.1336  0.0515 -0.0016
19327W        W38861  10.075   3.059  13.706 -0.1372 -0.0919 -0.2938
19328W        W38862   0.573   6.873   2.068  0.0022 -0.0163  0.0581
19329W        W38863  13.271   3.420   0.325 -0.2486  0.0891 -0.4298
19330W        W38864  12.022  14.809  12.229  0.2291 -0.0013 -0.1387
19331W        W38865   1.337  10.659   0.655  0.2716  0.0171  0.0918
19332W        W38866  14.514  17.092   0.604  0.0386 -0.1111 -0.0736
19333W        W38867   4.649  17.486  12.210  0.1978  0.2861 -0.1418
19334W        W38868  16.101   3.547  14.711  0.4687 -0.3181 -0.2320
19335W        W38869  12.325   6.504   0.800 -0.1161 -0.2486 -0.4318
19336W        W38870   2.759  15.277  15.027 -0.3026 -0.1801 -0.0986
19337W        W38871   1.973   2.654  14.759 -0.0859  0.2294 -0.2493
19338W        W38872   2.227  13.433   3.487 -0.0753 -0.1150 -0.3003
19339W        W38873  15.692  12.130  16.344  0.1403  0.0889  0.0401
19340W        W38874  14.837   8.809  13.579 -0.0087 -0.4860  0.1173
19341W        W38875  15.701   7.876   3.002 -0.0830 -0.1035  0.0489
19342W        W38876  14.587   0.640  13.561 -0.0504  0.4079 -0.1595
19343W        W38877  17.654  12.366   1.607 -0.0390 -0.1562 -0.2699
19344W        W38878  11.016   7.822   3.835  0.0353 -0.0436 -0.3885
19345W        W38879   4.880   3.435   3.310 -0.0937 -0.0922  0.3690
19346W        W38880   0.724   7.198   0.429  0.0135 -0.3604  0.1825
19347W        W38881   2.546   9.012  13.912 -0.2154  0.3889 -0.1512
19348W        W38882  15.021  13.808   4.403  0.1696  0.0122  0.3543
19349W        W38883   5.930   6.502   2.232 -0.0942  0.0358 -0.1830
19350W        W38884  11.085   3.172  15.981  0.1014 -0.1218  0.0409
19351W        W38885   5.667   4.708  11.856 -0.3015 -0.1262  0.0756
19352W        W38886   5.208   9.954  15.941  0.0607  0.2116 -0.0246
19353W        W38887  10.992   8.051  14.636 -0.1457 -0.0034 -0.1844
19354W        W38888  13.132   4.632   4.002 -0.0400 -0.1044 -0.3072
19355W        W38889  14.484   6.842   3.881 -0.1550 -0.1028 -0.1535
19356W        W38890   2.878   5.250   2.424 -0.1127  0.3012 -0.0676
19357W        W38891   2.052   6.461  16.312  0.2915 -0.0986  0.0753
19358W        W38892  16.964   2.828   3.013 -0.1787  0.3548  0.1258
19359W        W38893   2.562  11.916  13.260  0.1058 -0.1097 -0.0203
19360W        W38894   9.936  12.910  16.618  0.0054 -0.1012  0.3042
19361W        W38895   0.555  15.744  14.248 -0.0874  0.2947  0.2246
19362W        W38896   1.156   3.361   6.361  0.2250  0.1629 -0.1778
19363W        W38897   3.174   3.915   0.947 -0.0781 -0.3175 -0.0950
19364W        W38898   0.295  17.028  13.954 -0.0641 -0.0875 -0.2620
19365W        W38899   0.776   7.195  16.182  0.1150 -0.0952 -0.1765
19366W        W38900   7.012   5.986   2.450 -0.0490 -0.2148  0.1658
19367W        W38901   1.101   0.776  15.751  0.0483 -0.1281  0.1603
19368W        W38902   1.533   5.880   2.775  0.0841  0.0037 -0.1444
19369W        W38903  16.657   2.440   2.514 -0.2690 -0.1151  0.0512
19370W        W38904  14.707   4.976  14.805  0.0067 -0.1661  0.4041
19371W        W38905   6.612   3.857  16.325 -0.0901 -0.0708 -0.0350
19372W        W38906  12.985  12.874  16.038 -0.1013  0.2615 -0.1522
19373W        W38907   4.492   3.322  13.009 -0.0972 -0.0373 -0.0467
19374W        W38908  16.056  12.765   2.928  0.0182 -0.0668  0.0796
19375W        W38909  15.648  11.673  14.819  0.0126 -0.1942  0.3094
19376W        W38910   8.964  10.805  14.748 -0.1299 -0.2071  0.2270
19377W        W38911  13.929  15.651  15.902 -0.2198  0.1836  0.1384
19378W        W38912   7.221  15.204  14.329  0.3938  0.0366 -0.0926
19379W        W38913   0.794  14.365  14.865  0.0971 -0.1356  0.1990
19380W        W38914   0.832  16.135  16.163 -0.0732 -0.0976 -0.2626
19381W        W38915  14.693  11.421   0.567  0.0238  0.1818  0.1187
19382W        W38916   0.106  10.673  16.069 -0.3271 -0.1753 -0.2540
19383W        W38917  13.084  14.999  12.674  0.2154  0.0675  0.3073
19384W        W38918   4.559   2.945  13.890 -0.1202 -0.2487 -0.0294
19385W        W38919   5.518   0.704  14.938 -0.0595 -0.0339 -0.1363
19386W        W38920   1.569   4.840   4.489  0.0063 -0.4745  0.2120
19387W        W38921   5.149  14.660   2.091  0.0469  0.0366 -0.1515
19388W        W38922  12.190   4.985  14.205 -0.0350  0.0922 -0.1626
19389W        W38923   7.936   3.645  14.692 -0.4753  0.1496  0.1225
19390W        W38924   9.729   2.485   2.151 -0.2044  0.0860 -0.2411
19391W        W38925   2.878  15.734  15.957  0.4301  0.1193  0.0932
19392W        W38926  17.739   0.076   0.571 -0.0222  0.3490  0.2133
19393W        W38927   6.880  10.828   2.380  0.2869 -0.1912 -0.0406
19394W        W38928  14.608  10.508  12.518 -0.0113  0.0912 -0.0129
19395W        W38929  15.008  16.539  12.695  0.0415  0.0541  0.1134
19396W        W38930  13.324   7.768  14.934 -0.0492  0.0969  0.0374
19397W        W38931   8.567  11.096  14.461  0.0714 -0.0872  0.0420
19398W        W38932   7.166   3.858  10.921 -0.1222  0.1190 -0.0058
19399W        W38933   7.812   3.665  15.868 -0.3266 -0.2102 -0.2382
19400W        W38934  10.236  15.259  12.256 -0.2755 -0.1331  0.1434
19401W        W38935   7.348   7.001  12.266  0.0497  0.3530 -0.2657
19402W        W38936   1.929   5.622   3.009  0.2534  0.0130  0.1898
19403W        W38937  11.572   7.219  14.793  0.0712 -0.0536 -0.1020
19404W        W38938  15.847   5.514  11.689 -0.0693 -0.0001  0.0073
19405W        W38939  14.613   3.180  11.893 -0.0608  0.1747  0.1561
19406W        W38940   6.808   2.870  14.673 -0.3074  0.1028 -0.3972
19407W        W38941  12.259  15.223  15.913  0.2360  0.1664  0.4212
19408W        W38942  16.613  11.585   5.697 -0.1494 -0.0320 -0.0567
19409W        W38943  15.679  14.140  14.478  0.2901 -0.0796 -0.2009
19410W        W38944  15.742  10.480  15.393  0.2840  0.0656  0.0547
19411W        W38945  11.965   2.268  13.729 -0.2550  0.0908  0.1353
19412W        W38946  10.289   7.644   3.149  0.1629  0.4245 -0.2502
19413W        W38947  16.132   9.984  14.895 -0.0140  0.2606  0.1580
19414W        W38948   8.089   5.596  15.569 -0.3308 -0.1696  0.2843
19415W        W38949  10.513   8.078   1.601  0.2097 -0.0190  0.1117
19416W        W38950  16.038  17.852  15.083 -0.2630  0.2061 -0.2403
19417W        W38951   8.697   4.043   5.168  0.0126  0.2802 -0.0632
19418W        W38952   5.861   6.703   4.856  0.0302 -0.2232 -0.3813
19419W        W38953  10.930   4.712  11.428  0.1232  0.2131  0.1240
19420W        W38954   5.398  14.800   1.683 -0.1038 -0.2030  0.1160
19421W        W38955  16.443  12.899   2.645  0.0262 -0.2035  0.0162
19422W        W38956  15.716   8.904   3.099  0.1396  0.2613  0.0787
19423W        W38957   8.930   5.497  16.255  0.0412  0.1973  0.0628
19424W        W38958   1.848  17.093   0.011 -0.5519 -0.1165  0.2450
19425W        W38959  14.043   9.994  15.221  0.0123 -0.0233 -0.1675
19426W        W38960   2.106  10.021   0.252  0.0910  0.0866 -0.3990
19427W        W38961  10.511   2.037   2.277 -0.0226 -0.2038 -0.0917
19428W        W38962   0.320  11.014   0.313  0.3807 -0.0576 -0.0699
19429W        W38963  12.801  16.107  15.764  0.4579  0.3008  0.1334
19430W        W38964  10.371   2.992  14.970  0.0145  0.0845  0.0264
19431W        W38965   9.279   2.453   4.838 -0.2946 -0.0499 -0.1074
19432W        W38966   9.998   8.677  16.570 -0.0787  0.1817 -0.0918
19433W        W38967  14.700   5.340   1.810  0.2359 -0.1682  0.2320
19434W        W38968   9.110   9.147  12.358  0.1039 -0.1334 -0.2118
19435W        W38969   6.460  17.561   0.852  0.0794  0.4176 -0.1932
19436W        W38970  14.356   4.505   3.745  0.0621  0.1690 -0.1325
19437W        W38971   4.894   6.309   2.135 -0.0122  0.0617  0.1990
19438W        W38972  15.531   2.372   2.963 -0.0725  0.3334  0.0338
19439W        W38973  12.599   3.529  11.988 -0.1804  0.1503  0.0772
19440W        W38974  15.896   7.230   0.359  0.1747  0.3028 -0.3131
19441W        W38975  10.592   4.725   2.954 -0.0307 -0.1549  0.1822
19442W        W38976  10.329  14.727   3.760  0.1637  0.1254 -0.1497
19443W        W38977   8.435   9.852   1.809  0.2178 -0.0218  0.0891
19444W        W38978   4.369  10.077   4.039  0.3446  0.4152 -0.3012
19445W        W38979  11.438   4.976   0.476  0.1587  0.0456  0.0333
19446W        W38980  13.845  12.916  15.697  0.0285 -0.0292 -0.1669
19447W        W38981   3.905   6.260   4.407 -0.0230 -0.3224 -0.2616
19448W        W38982  12.676   8.914   2.024 -0.1944 -0.3739  0.1501
19449W        W38983   4.421  11.328  12.422 -0.1100 -0.2004  0.2587
19450W        W38984   0.413  11.529   3.542  0.0546 -0.0271 -0.1493
19451W        W38985   0.693  10.479   2.807  0.1003 -0.0819 -0.0705
19452W        W38986   7.859   2.894   2.498  0.2338  0.1579 -0.1969
19453W        W38987  14.537   1.054  15.578 -0.1058  0.1525 -0.0820
19454W        W38988   6.858   2.075   3.747 -0.0884  0.0837  0.0483
19455W        W38989   2.174  12.643  15.982  0.0490 -0.2054 -0.1123
19456W        W38990  14.345  17.148   3.591  0.0014  0.0502  0.0193
19457W        W38991   4.532   4.006   1.250 -0.0979  0.1424 -0.1411
19458W        W38992  15.837   0.416  14.936 -0.1651  0.1649 -0.0204
19459W        W38993   6.920  17.745  11.731 -0.2081  0.0051  0.0579
19460W        W38994   3.996   7.207  16.193  0.0049 -0.0940 -0.0856
19461W        W38995   1.132   7.677   1.048  0.0909  0.2149  0.0130
19462W        W38996  13.950   5.509  13.727 -0.3141 -0.0322 -0.2732
19463W        W38997  16.458   5.912   4.535 -0.0116 -0.1108 -0.0809
19464W        W38998  16.719   4.024   4.248 -0.0792 -0.2167 -0.1670
19465W        W38999   8.148   2.595   5.049 -0.1702  0.0271  0.0247
19466W        W39000  10.312   4.497   1.708 -0.1080  0.0622 -0.0913
19467W        W39001   4.565  11.351   1.825 -0.1530 -0.2013 -0.1496
19468W        W39002  16.561   0.101   4.724 -0.2529 -0.0748 -0.0618
19469W        W39003  13.152  16.651  12.674 -0.0532 -0.2417 -0.2184
19470W        W39004  14.667   4.514   1.760 -0.0359  0.1978 -0.0854
19471W        W39005   0.363  16.248  12.942  0.2007 -0.2759  0.1681
19472W        W39006   6.346  12.985   0.323 -0.2117  0.3214 -0.1959
19473W        W39007   5.624   1.813   5.070 -0.2118  0.0797  0.0613
19474W        W39008  11.033   5.128   0.185 -0.0509  0.0740  0.0220
19475W        W39009  11.461   7.674  12.225  0.0119  0.3928  0.3520
19476W        W39010   4.169  16.809  16.197  0.2279 -0.2281 -0.2511
19477W        W39011   3.822   6.853  13.285  0.2283 -0.2445 -0.0233
19478W        W39012  15.825  13.341  11.850 -0.1868  0.2404  0.0735
19479W        W39013   7.363   0.959   1.688 -0.5047 -0.2359 -0.0733
19480W        W39014   4.611   7.165   1.346 -0.3186  0.0426  0.0086
19481W        W39015   2.484   8.314   4.030  0.4448  0.0489 -0.0025
19482W        W39016  10.335   8.292   3.832 -0.2623 -0.0664  0.0383
19483W        W39017   0.975  16.300  14.871  0.2633  0.4287  0.0156
19484W        W39018  16.668  16.151   2.458  0.2447 -0.2219 -0.1072
19485W        W39019   5.155  14.343   4.259  0.1275  0.1635  0.0143
19486W        W39020   2.712  12.088  12.443  0.2333  0.1974 -0.0336
19487W        W39021  16.161   1.750   4.570  0.2641  0.2318 -0.1410
19488W        W39022   8.007  16.417   1.208  0.1047 -0.3372  0.1129
19489W        W39023   0.302   5.230  15.272  0.3132 -0.2039  0.0041
19490W        W39024   0.640   3.612   2.158 -0.0420 -0.0949 -0.1616
19491W        W39025   3.487   7.293   1.313  0.0247  0.0474 -0.3114
19492W        W39026  13.399  11.754   1.848 -0.0157  0.2366  0.0399
19493W        W39027   4.287   7.946   2.798  0.0014  0.0734  0.1360
19494W        W39028   5.385  12.725  16.017 -0.2157  0.1367  0.1267
19495W        W39029   1.833  10.489   3.602  0.2765  0.0169  0.1150
19496W        W39030  13.224  15.476  13.568 -0.2458 -0.1316  0.3380
19497W        W39031   1.938   0.391  15.425  0.0647 -0.1935  0.2530
19498W        W39032  13.106   9.548  11.998 -0.1364 -0.0314 -0.0280
19499W        W39033   2.488   0.599   4.871 -0.1269 -0.0550 -0.1822
19500W        W39034  12.141   2.198   4.309  0.1305  0.1726  0.2205
19501W        W39035  15.928  17.901   0.789 -0.1348  0.1965  0.1942
19502W        W39036  15.691   2.099  14.580  0.0233 -0.1342  0.1654
19503W        W39037   5.888   1.676  13.816 -0.0212 -0.0347  0.2556
19504W        W39038  12.512   5.976  14.154  0.1178  0.3031  0.0852
19505W        W39039  14.773   8.206  16.127 -0.1321  0.0704 -0.0604
19506W        W39040   5.142   9.053  14.154  0.2613  0.1346 -0.0006
19507W        W39041   3.176  13.990  11.641 -0.0153 -0.0818 -0.2077
19508W        W39042   2.490  15.392   3.381 -0.0505  0.1813  0.1328
19509W        W39043  16.496  16.164  13.538  0.1310  0.0841  0.2316
19510W        W39044  15.988  17.687   1.221 -0.0841 -0.0441 -0.1944
19511W        W39045   6.464   1.604  15.627  0.0777 -0.0795  0.0506
19512W        W39046  15.339   0.813  13.286  0.1047  0.2207 -0.0687
19513W        W39047  13.321   3.647   3.491  0.1773  0.1894 -0.0999
19514W        W39048   6.114   5.707  13.860  0.3144  0.0047 -0.1237
19515W        W39049  11.285   7.437   0.379  0.1347  0.2497  0.1529
19516W        W39050  10.165   2.318   0.155  0.3259  0.2738  0.1662
19517W        W39051   2.512  17.606  14.379  0.1067 -0.1704  0.0277
19518W        W39052   9.628  12.603   4.273 -0.0073 -0.0949 -0.3261
19519W        W39053  13.651   6.423   3.040 -0.3026 -0.0462  0.2601
19520W        W39054  16.398   0.286   3.678 -0.0312  0.2515 -0.3754
19521W        W39055   2.792   8.600  14.154  0.2181  0.1375 -0.1306
19522W        W39056   8.544   3.531   0.932  0.0230  0.0784  0.0751
19523W        W39057  14.916   8.200  14.270  0.1179  0.1352 -0.1047
19524W        W39058  11.011   3.190  11.617  0.1329 -0.0229 -0.1090
19525W        W39059   0.472   3.633  14.668  0.1058 -0.1111 -0.3726
19526W        W39060  10.063   1.881  14.368 -0.0545 -0.2251  0.0185
19527W        W39061   0.425   7.942   1.578  0.4180 -0.2120 -0.0516
19528W        W39062   6.551   2.556  15.447 -0.0570 -0.3211 -0.0270
19529W        W39063  13.497   4.151  12.874 -0.1665  0.1090 -0.2090
19530W        W39064  16.852   4.245   3.069  0.2341 -0.3262 -0.0642
19531W        W39065  10.246  14.334   0.938 -0.1071 -0.1690 -0.3094
19532W        W39066   9.336  15.927  14.459  0.2210 -0.0522  0.0064
19533W        W39067  15.787   1.836  14.152  0.0607  0.0481 -0.0145
19534W        W39068   8.076  10.716  15.960 -0.0394 -0.0449 -0.2178
19535W        W39069   5.841  13.782   3.668  0.0970  0.0292 -0.1231
19536W        W39070  12.358   5.757  14.825  0.0355 -0.1626  0.2597
19537W        W39071   9.926  14.454   2.602 -0.0131 -0.0640  0.5384
19538W        W39072   2.078   6.969   2.245  0.2041  0.0397  0.0579
19539W        W39073   1.915   1.112   4.918  0.1533  0.0648  0.2291
19540W        W39074  11.001   2.327   0.390  0.2412  0.0264  0.1669
19541W        W39075  17.050  12.082   0.924 -0.1275 -0.0850  0.1916
19542W        W39076   3.709   2.436   4.150  0.2790  0.3336 -0.3607
19543W        W39077  15.694   7.282   1.694  0.1614 -0.3736  0.0968
19544W        W39078  10.173   2.334   1.338 -0.1232  0.0315  0.2027
19545W        W39079   9.150   8.718  15.664  0.1088 -0.1384 -0.6488
19546W        W39080   3.553   3.623   3.983 -0.3802  0.2315  0.2299
19547W        W39081  14.442  14.216   4.474  0.2643 -0.1536  0.1039
19548W        W39082  13.606   0.771   0.490 -0.1413  0.1396 -0.3411
19549W        W39083  17.674  10.264  14.897  0.0785  0.1736 -0.3528
19550W        W39084   0.509   4.600  16.417  0.0130  0.1114  0.2649
19551W        W39085  11.602  10.740   4.566 -0.0379 -0.1938 -0.1681
19552W        W39086  16.901   5.802   0.622 -0.0250 -0.2631 -0.0166
19553W        W39087  13.588  17.580   1.066 -0.0837 -0.0631 -0.0568
19554W        W39088  13.403   2.549   3.829 -0.2438 -0.1327  0.3433
19555W        W39089  13.674   9.557  16.604  0.1208 -0.3591  0.0660
19556W        W39090  10.046   0.690   2.259  0.2762 -0.0103  0.0120
19557W        W39091  12.345   6.974  11.556  0.2964 -0.0219  0.0547
19558W        W39092  13.543   3.330   1.759  0.2462 -0.1939  0.0595
19559W        W39093  15.194   8.647  12.094  0.3170 -0.0899 -0.2085
19560W        W39094   5.628   6.337   4.518  0.0924  0.0233 -0.1272
19561W        W39095   3.184   0.965   3.689  0.2102  0.2878 -0.0891
19562W        W39096  16.496   2.904   3.350  0.1975 -0.0528  0.0863
19563W        W39097   2.856  13.156   0.256  0.1337  0.0296 -0.0087
19564W        W39098  14.338  10.884  12.919 -0.1879  0.1878 -0.0112
19565W        W39099   0.339   8.718   2.800 -0.1590 -0.1116 -0.1534
19566W        W39100  11.398   6.495   0.644 -0.2825  0.2533  0.0475
19567W        W39101  11.150  14.214  11.919 -0.0610  0.0330 -0.3635
19568W        W39102  10.404   3.410  13.285 -0.0699  0.1041  0.2250
19569W        W39103  11.448  15.598  13.023  0.4122 -0.1441 -0.0958
19570W        W39104   9.264  11.811   0.314  0.1347 -0.0375  0.2163
19571W        W39105  10.217  12.660   4.803  0.1553 -0.2431  0.2582
19572W        W39106   1.198   3.013  12.175 -0.0300  0.1345  0.0165
19573W        W39107  13.056   5.123   0.596  0.1543  0.2958 -0.0999
19574W        W39108  15.443  10.240   1.914 -0.3118  0.0150  0.0014
19575W        W39109   2.447  17.080  14.367  0.2266 -0.1241 -0.4207
19576W        W39110   6.175   2.030   4.930  0.0119  0.1078 -0.2573
19577W        W39111   7.208   7.993  15.311 -0.0360  0.0159  0.0361
19578W        W39112   4.332   6.091   4.637 -0.0366  0.1974  0.2125
19579W        W39113   2.646   7.940  11.391 -0.1311 -0.2833 -0.0895
19580W        W39114  12.645   5.865   2.391  0.0670 -0.0516 -0.3435
19581W        W39115   7.492   2.379   4.329  0.3489  0.2777  0.0922
19582W        W39116  11.909   1.520  14.634  0.2547 -0.5226  0.1356
19583W        W39117  15.063   8.076  13.450 -0.0438 -0.3935  0.1342
19584W        W39118   0.215  10.697   1.342 -0.1542 -0.1147  0.0792
19585W        W39119   7.841   4.958  14.383 -0.0865  0.1373  0.3197
19586W        W39120   8.674   6.031   4.105  0.1374  0.0909  0.2997
19587W        W39121  15.646  10.779   0.597  0.0218  0.0903 -0.0761
19588W        W39122   8.874   9.823  12.930  0.1071 -0.1124  0.1462
19589W        W39123   0.553  12.757   1.732  0.2973 -0.0654 -0.2804
19590W        W39124  10.328  12.376   0.909 -0.2051  0.1797 -0.4682
19591W        W39125   2.629   7.165  16.507 -0.0069 -0.2760 -0.0276
19592W        W39126  11.659  11.774   2.162  0.0401  0.0137 -0.2452
19593W        W39127   9.633   2.067  12.948 -0.1320  0.1116 -0.2441
19594W        W39128   5.863  11.819   0.649 -0.0338  0.0947  0.3828
19595W        W39129   1.127   5.843  14.534 -0.2611 -0.1289 -0.1158
19596W        W39130   8.524  12.710   4.280  0.1559 -0.0917 -0.3865
19597W        W39131  13.526  13.030  12.767 -0.2957  0.1557 -0.0560
19598W        W39132   1.107  12.150   1.000 -0.1566  0.1397  0.2150
19599W        W39133  17.536   6.431  16.271 -0.1098 -0.1996 -0.1095
19600W        W39134  12.695  13.739  14.859 -0.1595  0.2222  0.0723
19601W        W39135   0.721   4.598   0.635 -0.0231 -0.1147 -0.0567
19602W        W39136   8.904  15.625  13.807  0.1975  0.0182 -0.1569
19603W        W39137   1.776   7.536  12.937 -0.0933 -0.0879  0.0310
19604W        W39138  11.960   7.084   3.160  0.1405  0.1547  0.2160
19605W        W39139   8.553   8.154   4.689  0.1244 -0.1888  0.0176
19606W        W39140  15.739   7.076   0.842  0.1538 -0.0487 -0.0807
19607W        W39141  10.312  14.789  16.116  0.0334 -0.0421  0.3539
19608W        W39142   9.385   0.159  14.239  0.1257  0.0086  0.0747
19609W        W39143   2.150   2.209  12.767  0.0783  0.0630  0.0158
19610W        W39144   9.335   3.884  13.644 -0.4956 -0.2405  0.0766
19611W        W39145  17.339  11.628  15.936 -0.2333 -0.1574 -0.3179
19612W        W39146  13.435   9.531   0.356 -0.2337 -0.0371 -0.1468
19613W        W39147   7.243   6.584   1.666 -0.0198  0.0193 -0.2418
19614W        W39148  10.406  14.072  14.309  0.0056  0.0730  0.0619
19615W        W39149   7.942   1.785   1.580 -0.0571  0.0446  0.2102
19616W        W39150   6.071  16.541  14.777  0.1898 -0.0283 -0.2442
19617W        W39151   4.328   4.749  15.988 -0.2916 -0.2115  0.1463
19618W        W39152   6.290  10.517   3.080 -0.1744  0.1741 -0.2642
19619W        W39153  12.543   0.887  14.460 -0.0291  0.2592  0.0627
19620W        W39154   0.323   0.065   0.488 -0.0479  0.1035 -0.0778
19621W        W39155  10.005   4.931  11.763  0.2648  0.2847 -0.2159
19622W        W39156  11.275  12.992  14.696  0.5464 -0.0748 -0.1060
19623W        W39157  10.252  17.325   0.478 -0.1733  0.1485 -0.0940
19624W        W39158  15.343  17.302  14.024  0.2221  0.1067  0.1659
19625W        W39159  10.540   8.575   0.085  0.0460  0.1505  0.0181
19626W        W39160   8.292   0.463   5.390 -0.0246  0.1659 -0.0402
19627W        W39161   3.126  17.397  15.482  0.0383  0.0403  0.2672
19628W        W39162   2.233   9.957   4.168 -0.0949  0.0797  0.3275
19629W        W39163  15.395   0.693   4.763  0.1762 -0.0938  0.0776
19630W        W39164  12.229  12.328   3.452  0.1013  0.0678  0.3206
19631W        W39165   2.941   5.813  14.631  0.0132 -0.0528 -0.2900
19632W        W39166  14.682   5.314   3.555 -0.2508  0.1652 -0.3067
19633W        W39167  15.378  16.552   0.674  0.1714 -0.0778  0.0901
19634W        W39168   4.360  10.092   4.718 -0.0160  0.1441 -0.2344
19635W        W39169  13.985   0.164  13.509  0.0026 -0.0473 -0.0443
19636W        W39170  10.228  16.515  16.373  0.0368  0.1240 -0.4325
19637W        W39171   8.496  16.403   5.424 -0.0190  0.0079  0.0485
19638W        W39172  11.621   2.286  12.974  0.0343  0.0928 -0.2607
19639W        W39173   5.864   6.188  15.750  0.1272 -0.2162 -0.3374
19640W        W39174   9.461   5.055  16.526  0.4341  0.0515  0.1255
19641W        W39175   5.818   9.143   2.054 -0.0683 -0.2996  0.1053
19642W        W39176   8.513   7.531  15.506 -0.0353 -0.2169  0.2731
19643W        W39177  13.005   6.986  13.229  0.2066 -0.0217  0.1214
19644W        W39178  11.208   1.878  13.551 -0.1305  0.0554 -0.0144
19645W        W39179  12.797   9.922  12.031  0.2128  0.1195  0.1827
19646W        W39180   1.421   7.100  14.587 -0.0123 -0.2050  0.0401
19647W        W39181   9.890   4.305   0.078  0.1406  0.0099 -0.0217
19648W        W39182   1.147  12.422  16.407 -0.0765 -0.2303  0.1561
19649W        W39183   7.225   3.082  12.742 -0.1698  0.1009 -0.0887
19650W        W39184   6.816  11.245   1.255 -0.2165  0.0610  0.0873
19651W        W39185   5.620   7.858   3.493 -0.0059 -0.0062  0.1085
19652W        W39186   6.951   7.252  14.116  0.1410 -0.1295 -0.0859
19653W        W39187   2.286   8.292   0.159  0.1387  0.2534 -0.1562
19654W        W39188   9.995  14.302   3.642 -0.0671 -0.4105  0.0307
19655W        W39189   8.183   6.828   4.099  0.3282 -0.0207  0.2538
19656W        W39190   5.031   3.193   0.935 -0.0404  0.2825 -0.1687
19657W        W39191  15.767   0.724  14.051  0.0823  0.3286 -0.1963
19658W        W39192   3.639  13.670   4.046  0.0106 -0.2051  0.0376
19659W        W39193   8.558   6.720   1.225 -0.0043  0.0851 -0.0199
19660W        W39194   1.183   1.126   3.931  0.1752  0.1567  0.1936
19661W        W39195  16.752  12.665   4.290 -0.2524  0.0269 -0.2877
19662W        W39196   5.157  16.188  12.702 -0.1370 -0.0176  0.6785
19663W        W39197   7.626   2.273  16.209  0.0511 -0.0047  0.0536
19664W        W39198  10.163   0.226   3.948  0.0270 -0.0788  0.0073
19665W        W39199  13.370  16.671  15.346 -0.0447  0.0984 -0.0712
19666W        W39200   5.583  13.605   1.568 -0.0741 -0.0017 -0.0870
19667W        W39201   4.463   8.608  12.992  0.2520  0.3232  0.0384
19668W        W39202   5.577  14.403   3.376 -0.1603  0.0379  0.3067
19669W        W39203   0.196   3.925  13.133  0.1721 -0.1196  0.0621
19670W        W39204   2.385  14.149  15.892 -0.2606  0.1753 -0.2227
19671W        W39205   9.665  10.829   4.217 -0.0669  0.1594  0.1336
19672W        W39206   6.163   1.875  14.174  0.2212 -0.1110 -0.3491
19673W        W39207   1.609   7.952   3.532  0.1189 -0.1016  0.1877
19674W        W39208  15.782  11.901  13.511 -0.2668  0.0760  0.0620
19675W        W39209   0.894  17.061  14.129 -0.1112 -0.0213 -0.4790
19676W        W39210  17.243   3.252   2.782 -0.2621  0.2623 -0.2764
19677W        W39211   4.650   4.956  11.985 -0.2745 -0.1453 -0.2726
19678W        W39212   4.520  15.600  13.007 -0.0453 -0.0310 -0.2188
19679W        W39213  10.638  15.796  13.948 -0.0102 -0.1483 -0.1577
19680W        W39214   8.870  17.807  14.198 -0.0558 -0.0430 -0.1529
19681W        W39215   4.076   7.666   3.706 -0.2142  0.0253 -0.1394
19682W        W39216  11.886  13.446  15.758  0.0911  0.0957  0.0241
19683W        W39217  14.820  11.770  14.363  0.3486  0.2215  0.2816
19684W        W39218  15.094   0.616   1.750  0.0216 -0.1330 -0.2517
19685W        W39219  14.804   3.369   3.588  0.0106  0.1752  0.0097
19686W        W39220  13.408  14.457   4.660 -0.1708 -0.2707  0.0858
19687W        W39221  11.249   2.769   4.344  0.0218 -0.0999  0.1959
19688W        W39222  13.052   3.909  11.222 -0.2620 -0.2365 -0.0252
19689W        W39223   7.891   0.733   5.280  0.0409  0.3299  0.2293
19690W        W39224   9.709   5.720   1.437  0.0902 -0.0166 -0.1335
19691W        W39225   1.784  15.654   3.657  0.3260 -0.0316  0.1630
19692W        W39226   2.858  17.244  13.056 -0.1096 -0.0549  0.2470
19693W        W39227  11.591  17.335  13.380 -0.2394  0.0326  0.3959
19694W        W39228  13.194  12.676   3.512  0.2679  0.0349 -0.0451
19695W        W39229   3.009   6.053  10.638 -0.1684 -0.1526 -0.4408
19696W        W39230   9.627   7.138   1.480  0.1615 -0.1146  0.0684
19697W        W39231  11.869   1.897  15.098  0.1756 -0.1288 -0.0371
19698W        W39232   1.059   6.833   2.325 -0.0648  0.1345 -0.0800
19699W        W39233   9.426  12.505  16.536 -0.1900  0.0967 -0.1022
19700W        W39234  13.908   1.327  12.543 -0.0773  0.1349  0.2019
19701W        W39235   4.101   7.134   3.919  0.0618 -0.0818 -0.0220
19702W        W39236   0.175   5.648   1.840  0.2950  0.2597 -0.1324
19703W        W39237  14.290   4.175   2.015  0.1894 -0.2328  0.1477
19704W        W39238  15.669   6.311   0.161 -0.2279  0.4037 -0.0051
19705W        W39239   9.758   0.248   2.301 -0.2259 -0.0593  0.0375
19706W        W39240  17.269   8.171  15.380  0.1654 -0.2479  0.1363
19707W        W39241  14.871   0.420  13.116 -0.0772  0.2766 -0.1073
19708W        W39242   3.347   2.172  14.720  0.2818  0.2551  0.0761
19709W        W39243  12.219   4.960   1.501  0.1629  0.1018  0.4022
19710W        W39244  11.895   8.389  14.218  0.0087 -0.0660  0.2178
19711W        W39245   5.706  13.869  14.376  0.0053  0.2245 -0.0299
19712W        W39246  11.038   0.342   4.638  0.1173  0.1331  0.2177
19713W        W39247   7.749   7.397  15.813  0.3183  0.2552  0.3275
19714W        W39248   6.061   1.046   1.881 -0.0639 -0.3919  0.0490
19715W        W39249   5.941   5.493   4.188 -0.2662  0.1102 -0.0036
19716W        W39250  13.449   8.749   2.357  0.0986  0.1438  0.0384
19717W        W39251  16.546   6.563   0.475  0.0884 -0.0561 -0.0170
19718W        W39252  12.209  17.015  16.090 -0.1127 -0.0263  0.2370
19719W        W39253   4.282  17.688  13.065  0.2282  0.1596  0.1843
19720W        W39254  11.382   5.503   1.487 -0.0010 -0.1778  0.2888
19721W        W39255  17.583  12.683  12.510 -0.0960 -0.1066  0.0027
19722W        W39256   6.356  12.517   0.333  0.1642 -0.1506 -0.3007
19723W        W39257  11.035   0.912  14.694  0.1138  0.1576 -0.0270
19724W        W39258  17.907   6.559   0.334 -0.0288  0.2285 -0.1183
19725W        W39259  12.365   1.327  15.724  0.1048 -0.0789 -0.0726
19726W        W39260  17.830   4.212   0.451 -0.1192 -0.0711 -0.0937
19727W        W39261   5.008  13.676   0.937  0.3021  0.1154 -0.2403
19728W        W39262   1.625  13.673   0.170  0.0164 -0.0712  0.0500
19729W        W39263  11.278   4.518   3.099 -0.3261  0.1051 -0.2292
19730W        W39264   1.797  14.269  15.121 -0.0208 -0.0285  0.1126
19731W        W39265   1.349   1.889   0.533  0.1532  0.1706  0.1091
19732W        W39266   0.773   9.726  13.507  0.0701 -0.2161 -0.3469
19733W        W39267   4.091   7.344  13.095 -0.0897  0.3791  0.0146
19734W        W39268  11.223  12.894   4.236  0.2080 -0.0973  0.0910
19735W        W39269  14.543   5.186  13.082  0.1791  0.3121  0.0077
19736W        W39270   9.219   0.085  15.958 -0.1113 -0.3282 -0.1359
19737W        W39271  16.081  16.514  16.370 -0.2033 -0.0933  0.0225
19738W        W39272   8.007   2.130   2.472 -0.3641 -0.0993 -0.1018
19739W        W39273   0.913   9.810  12.914  0.0478 -0.2449  0.0564
19740W        W39274   9.776  16.699   2.382  0.0203 -0.2708  0.3433
19741W        W39275  12.626  12.709  13.192  0.1053  0.0179  0.0001
19742W        W39276   4.069   4.538  15.023 -0.0845 -0.1070  0.2720
19743W        W39277   8.747  11.828  16.363  0.0684  0.1706  0.0208
19744W        W39278  17.459   0.139  15.573 -0.1404 -0.1650 -0.1715
19745W        W39279   4.423  12.166  12.901 -0.1498  0.0363  0.2323
19746W        W39280  16.426   5.164  12.613  0.0135  0.1850  0.2804
19747W        W39281  11.443   7.679  15.338 -0.0779 -0.0434 -0.2923
19748W        W39282   4.349  15.831   0.465  0.1282  0.2397 -0.1014
19749W        W39283  17.092   6.376   2.613  0.1644  0.1868 -0.2235
19750W        W39284  14.261   1.186  15.232  0.1536 -0.0457 -0.0328
19751W        W39285   5.785   1.151   4.406 -0.0543  0.0371  0.1665
19752W        W39286   5.579   5.886   0.183 -0.2842 -0.0378 -0.0057
19753W        W39287   3.707  12.904  15.590  0.2924 -0.1533  0.1136
19754W        W39288   9.373  17.407   0.389  0.0085  0.3195  0.2653
19755W        W39289   0.860  13.067   2.816  0.0208  0.0045  0.2201
19756W        W39290  15.313  17.805  12.993 -0.0872  0.3339  0.0873
19757W        W39291   6.348   3.223   1.450  0.1150  0.0552 -0.0337
19758W        W39292  11.890  10.013   1.459  0.0945  0.2670 -0.2379
19759W        W39293  11.529  15.804   3.504 -0.0600 -0.0289 -0.1442
19760W        W39294  17.649  13.484  13.090 -0.3296 -0.2427 -0.2581
19761W        W39295   5.549   3.637   4.075 -0.0452  0.5307 -0.0094
19762W        W39296   4.185   6.669  11.767 -0.0183  0.3181 -0.2137
19763W        W39297  15.708   6.505  13.987  0.3755 -0.0017 -0.2798
19764W        W39298  15.010   6.498   4.175  0.0520 -0.1500  0.0348
19765W        W39299  14.747  11.023   0.251  0.2014  0.0022  0.0374
19766W        W39300   6.643  10.916  14.673  0.2859 -0.0035  0.1083
19767W        W39301   1.463   4.633  13.296  0.1022  0.1872  0.0805
19768W        W39302  11.210  11.911   1.404 -0.0447 -0.2672  0.3168
19769W        W39303   6.305  17.135   2.270 -0.2027 -0.2063 -0.1835
19770W        W39304  13.894  14.354   1.694 -0.2033 -0.1700 -0.1498
19771W        W39305   5.091   1.550   5.055  0.1262 -0.1520  0.0174
19772W        W39306  17.517  16.405   2.839  0.1414 -0.3515  0.1332
19773W        W39307  14.424   7.389  16.466  0.3663 -0.0012  0.2021
19774W        W39308   8.933   1.228   0.608  0.3139  0.1121 -0.0493
19775W        W39309  15.486  17.605   0.464  0.0584  0.1427  0.2008
19776W        W39310   7.915  10.473  13.955  0.2678 -0.1570 -0.2389
19777W        W39311   2.198   3.211  15.679 -0.1743 -0.4858  0.0403
19778W        W39312   9.481  15.047  16.181 -0.0003  0.0478 -0.1396
19779W        W39313   4.684   4.487   4.341  0.0442  0.4659  0.2332
19780W        W39314  17.016   2.997  12.480 -0.0308 -0.2147 -0.1341
19781W        W39315   3.854   0.817  14.242  0.0988  0.4113  0.1276
19782W        W39316   1.502   7.667  16.618 -0.0453  0.1263  0.2085
19783W        W39317   5.903   0.101   4.320  0.1242  0.1068 -0.3164
19784W        W39318  10.281   8.528  14.858 -0.0606  0.2405  0.1465
19785W        W39319   5.830   3.545   1.130  0.1260 -0.0839 -0.1920
19786W        W39320   8.601   8.687   0.907  0.0968 -0.1193  0.2298
19787W        W39321  16.980   3.856  15.444 -0.0662  0.0624 -0.1737
19788W        W39322   2.898   5.775  12.929  0.3180 -0.1181 -0.4160
19789W        W39323   8.604   4.392   1.242  0.0114  0.2515 -0.1042
19790W        W39324   8.279  11.558   3.367  0.0628  0.0877 -0.1609
19791W        W39325   8.554   6.333   4.566  0.4378  0.0157  0.1547
19792W        W39326  14.765  15.497  11.778 -0.0348 -0.1905  0.0793
19793W        W39327   7.336   7.740  12.399 -0.0256  0.1366 -0.0621
19794W        W39328   5.158  13.610  13.659  0.2164 -0.0521  0.3533
19795W        W39329   4.739  13.888   0.114  0.0928 -0.1749 -0.0829
19796W        W39330  15.192   9.530   4.154 -0.1025  0.2675  0.2199
19797W        W39331   0.393   1.638  12.949 -0.0502  0.2885  0.0626
19798W        W39332  13.031  17.393  14.809  0.1949  0.2180 -0.1572
19799W        W39333  13.006  12.549   2.221 -0.5155  0.0853 -0.1166
19800W        W39334  14.319   6.993  11.831 -0.0947  0.2570 -0.2045
19801W        W39335   6.418   8.779   1.003 -0.0718  0.0558  0.1393
19802W        W39336  16.754   5.138   1.098 -0.0521 -0.1968 -0.0674
19803W        W39337   6.064  17.587   3.593  0.1685  0.3027  0.1513
19804W        W39338  10.458   3.081  15.515  0.3763  0.1535 -0.2582
19805W        W39339   8.611   9.638   3.267  0.0546 -0.0707 -0.0525
19806W        W39340   4.837  14.929  12.756 -0.1837 -0.3654  0.1387
19807W        W39341   2.819   4.618  11.993  0.0017 -0.2856  0.2961
19808W        W39342   7.854  14.769  12.903 -0.0344 -0.0011  0.2985
19809W        W39343   8.080  16.958   4.333  0.0718  0.3325  0.0546
19810W        W39344   2.093  13.655   2.076  0.0904 -0.0853  0.1598
19811W        W39345   1.828   9.703  16.675 -0.1887  0.0969 -0.1730
19812W        W39346   7.273  13.366   3.278 -0.1332 -0.2496  0.1230
19813W        W39347   6.060  17.831  12.203 -0.1008  0.0047  0.2021
19814W        W39348   7.981  16.377  14.949  0.1345  0.3720 -0.3761
19815W        W39349   4.063  17.079  13.833  0.1246  0.0865 -0.1569
19816W        W39350  13.617  12.616   2.187 -0.0378 -0.1842 -0.1505
19817W        W39351  16.146   0.632   0.671 -0.0025 -0.2644  0.3681
19818W        W39352  13.777   8.495   0.173  0.1313 -0.1037 -0.0941
19819W        W39353   9.729   4.086  12.953  0.0319  0.1368  0.1567
19820W        W39354  12.877   4.108  15.174  0.0266 -0.2271  0.0186
19821W        W39355  15.629   7.397  15.630 -0.1111 -0.1225  0.3487
19822W        W39356   7.779   9.756   4.298 -0.1540 -0.4471 -0.0955
19823W        W39357   6.322   9.866  16.124 -0.1506 -0.6379  0.0196
19824W        W39358   4.794  17.642   1.789 -0.2001  0.1971  0.0828
19825W        W39359   1.146   5.809  12.180  0.1134  0.2186 -0.1238
19826W        W39360  12.198   0.270  13.045 -0.0024 -0.0178  0.1683
19827W        W39361  14.387   5.235  16.251  0.1408 -0.0490 -0.0891
19828W        W39362  13.350  11.153  12.445  0.0647  0.0878 -0.1886
19829W        W39363  16.757   9.128  13.860 -0.0156  0.1599  0.0279
19830W        W39364  15.490   3.995   3.734  0.2739 -0.1420  0.1059
19831W        W39365  14.490  13.582  16.130  0.1061  0.3958 -0.1599
19832W        W39366   1.751  11.698   4.540 -0.0013  0.0994 -0.1645
19833W        W39367  13.809  17.048   1.698 -0.1831  0.4328  0.0002
19834W        W39368  14.792  14.879  16.427  0.1893  0.0178 -0.4476
19835W        W39369   8.455  15.292  16.568  0.0995 -0.2817 -0.2381
19836W        W39370  10.939  14.627   0.579  0.1636 -0.4690  0.0682
19837W        W39371   9.115   8.235  14.352  0.0280 -0.2226  0.1185
19838W        W39372   6.886   5.887   1.850 -0.2207 -0.0691 -0.2142
19839W        W39373   4.929  10.672   4.982  0.1703 -0.5017  0.1802
19840W        W39374  10.404   7.917   2.078 -0.3542 -0.2244  0.1474
19841W        W39375  14.336   2.121   0.958 -0.0901  0.1907  0.1088
19842W        W39376   6.816   4.927   2.039 -0.2536  0.0766  0.0735
19843W        W39377  11.594   2.899   5.233  0.0344  0.1584 -0.0028
19844W        W39378   0.350   5.011  13.947  0.3088 -0.1104 -0.1919
19845W        W39379   3.893  12.243  14.965  0.2185  0.2226  0.0087
19846W        W39380   7.316   0.257  11.909 -0.0746  0.2386 -0.0463
19847W        W39381  13.797   0.192  12.191 -0.1965 -0.1217 -0.1678
19848W        W39382   6.178   9.029   4.231  0.1368  0.0481 -0.1569
19849W        W39383   2.823   7.310  13.727  0.0259 -0.0714 -0.1573
19850W        W39384  16.073   9.264   2.224 -0.0777  0.1300 -0.0084
19851W        W39385   6.180   2.244   1.312 -0.0382 -0.1500 -0.0902
19852W        W39386   7.686   4.844   2.999 -0.1679  0.3366 -0.0955
19853W        W39387  11.062   4.472  14.177 -0.0890  0.3135 -0.0451
19854W        W39388   6.466   6.889   1.210  0.3482  0.0533 -0.2142
19855W        W39389   8.200  14.672  13.275 -0.2508 -0.0330 -0.0692
19856W        W39390   8.748   6.315   2.373 -0.1986 -0.1018 -0.2878
19857W        W39391  17.633   1.532   2.167  0.2080 -0.1774 -0.0414
19858W        W39392  16.944   2.477   4.310  0.0807  0.2163  0.0034
19859W        W39393   9.856  16.791  16.121  0.0416 -0.0332 -0.0484
19860W        W39394   4.072   9.606   3.503 -0.3987  0.0964  0.3333
19861W        W39395   9.513   7.104  15.567 -0.2180  0.1277  0.3799
19862W        W39396   7.153   0.109   0.098 -0.1081  0.1614  0.1771
19863W        W39397  12.537  10.316   3.383  0.2156 -0.1067 -0.0582
19864W        W39398   2.080   4.367   3.560  0.0803  0.0484  0.2023
19865W        W39399   3.423  13.948   1.395 -0.0446  0.1395  0.1734
19866W        W39400  17.221   8.079   0.805 -0.0773  0.2393 -0.2709
19867W        W39401   9.459  13.208   3.699  0.0829 -0.0678 -0.2175
19868W        W39402   4.102  10.018   0.653  0.0143  0.2253  0.0596
19869W        W39403   6.490   7.579   1.430  0.0560  0.0284 -0.4234
19870W        W39404  13.148  10.650  15.374 -0.0761  0.1393  0.1293
19871W        W39405  16.388   5.922   0.796 -0.0087  0.0026 -0.0406
19872W        W39406  11.144  11.757  14.883 -0.0075 -0.1040 -0.0545
19873W        W39407   7.464   4.133   6.700 -0.2523 -0.0334 -0.2376
19874W        W39408   2.985  14.667  14.244 -0.2727 -0.0453 -0.1126
19875W        W39409  16.335   6.166   1.227  0.1399  0.1258  0.0065
19876W        W39410  10.541  14.934  12.512  0.1007  0.4756  0.1695
19877W        W39411  13.006   0.920  14.714  0.0375 -0.1593  0.0047
19878W        W39412   0.570  14.975  12.810 -0.1225 -0.1200  0.0819
19879W        W39413   1.228   6.457   0.734  0.2317  0.0720 -0.2597
19880W        W39414  11.339   2.758  13.216  0.3740  0.1321 -0.1190
19881W        W39415   2.069   9.165  12.301  0.1490 -0.0675 -0.0294
19882W        W39416   6.068  15.884   0.211  0.1570 -0.0508 -0.1324
19883W        W39417   5.298  13.336   2.546  0.0769  0.2222 -0.3637
19884W        W39418   9.673   6.913  12.088  0.0298  0.0153 -0.0603
19885W        W39419  14.474  16.270   0.746  0.3152 -0.2305  0.2219
19886W        W39420  11.664  17.751  12.440 -0.0337 -0.1379 -0.0782
19887W        W39421   5.941   0.996   4.987  0.1026  0.1954 -0.0839
19888W        W39422   2.467  14.684   4.079 -0.2309  0.1697 -0.0613
19889W        W39423  13.941  10.233   2.433  0.1773  0.0827 -0.2144
19890W        W39424   8.019  13.957  15.755 -0.0831 -0.2601 -0.1883
19891W        W39425  11.110   6.611   0.136 -0.1134  0.2034 -0.2343
19892W        W39426   7.467  10.774  15.667  0.0043  0.2078  0.3304
19893W        W39427  16.635   1.713   4.826 -0.0594 -0.0769  0.3712
19894W        W39428  16.274   3.910  15.654 -0.2779  0.0376  0.0410
19895W        W39429  11.919  14.753  16.339  0.1329 -0.1468 -0.2431
19896W        W39430   7.818  12.847  13.527 -0.0921 -0.1693  0.1502
19897W        W39431   2.084   7.688  12.231  0.0607  0.0240  0.0428
19898W        W39432  11.400  16.125  13.823  0.2384  0.1490 -0.0528
19899W        W39433  12.011  11.836  11.794 -0.2004 -0.0245 -0.1486
19900W        W39434   7.225   1.684  15.560  0.1202 -0.1964  0.1049
19901W        W39435   2.488   5.294  14.754 -0.1682 -0.1373  0.0438
19902W        W39436  11.867   9.266   0.034 -0.0391  0.2368 -0.1000
19903W        W39437  10.780  17.383   1.723 -0.0510  0.2188 -0.0549
19904W        W39438   0.700   0.008   4.110  0.0626  0.1740  0.0110
19905W        W39439   5.054  13.908   4.642  0.1681 -0.1855  0.0564
19906W        W39440   0.394  12.772  14.014  0.2547  0.2287 -0.0885
19907W        W39441   7.938   0.394  14.795 -0.1006  0.1048 -0.0304
19908W        W39442  14.649   5.504   2.605  0.3339  0.1088  0.0821
19909W        W39443   9.705   4.955   3.709 -0.1263 -0.0086 -0.2183
19910W        W39444  14.495   1.226  12.636  0.3115 -0.0575  0.1529
19911W        W39445  17.012   5.418   0.295 -0.1687  0.0050 -0.1406
19912W        W39446  13.068  17.897   0.395  0.0431 -0.1706  0.0023
19913W        W39447  13.623  16.143  15.995  0.1082 -0.0117  0.3134
19914W        W39448   9.801  16.372  13.745  0.1168  0.1953 -0.0113
19915W        W39449   2.664  13.139  16.492 -0.0286  0.1679  0.0273
19916W        W39450   1.603  10.107   0.991  0.4728  0.0550 -0.0340
19917W        W39451   8.284   8.329   0.968 -0.3397 -0.2843  0.0164
19918W        W39452   1.789   6.124  11.711 -0.0405 -0.1479  0.0686
19919W        W39453  11.371   9.506  13.887  0.0594 -0.0151  0.0639
19920W        W39454   5.358  14.879   4.275  0.0558 -0.2037  0.1329
19921W        W39455  14.815  15.121  13.422  0.1108 -0.1837 -0.3321
19922W        W39456  13.194   0.978   0.378 -0.2546  0.1015 -0.2445
19923W        W39457  17.857   0.467   3.762 -0.0416  0.0416 -0.1207
19924W        W39458   2.181   2.725  16.288  0.0452  0.0291  0.1503
19925W        W39459  14.421   1.573  13.641 -0.1590 -0.2305  0.1901
19926W        W39460   0.949   0.196  15.804 -0.0373 -0.0351  0.0688
19927W        W39461  16.305   0.282   0.924 -0.1479 -0.2519 -0.1005
19928W        W39462   6.470   9.923   5.948  0.0214  0.1829  0.0902
19929W        W39463  11.441  14.787   0.861  0.1356 -0.0512 -0.2163
19930W        W39464   9.354   6.995   1.105  0.2230  0.0322 -0.0382
19931W        W39465   4.265   2.972   0.526  0.0567 -0.3165  0.0001
19932W        W39466   9.474  12.101   4.416  0.0820 -0.1016 -0.2420
19933W        W39467  11.246   0.927   0.633 -0.0053  0.0256 -0.1436
19934W        W39468  17.147  15.578   0.134 -0.3796  0.0819  0.2679
19935W        W39469  10.045  16.046   0.696 -0.2432 -0.2879 -0.2351
19936W        W39470   6.997   7.017   2.912 -0.4416  0.0006  0.0126
19937W        W39471   9.460  10.054  14.989 -0.0125  0.0236 -0.2395
19938W        W39472  15.390  11.040   3.781  0.4693  0.1441 -0.0539
19939W        W39473  10.946   9.772   0.266 -0.0626 -0.0828 -0.3371
19940W        W39474   5.191  10.786   2.707 -0.1342  0.2017 -0.0062
19941W        W39475  16.133   6.465  12.803  0.0133 -0.1444 -0.3581
19942W        W39476   3.964   2.588  13.889  0.3972 -0.1386  0.0891
19943W        W39477   9.812  14.539  16.266  0.0216  0.0195 -0.2498
19944W        W39478  11.888  16.601  16.672 -0.2586 -0.3330 -0.1158
19945W        W39479   2.845  14.242   1.972 -0.2891  0.0940  0.0438
19946W        W39480  16.370   0.241   0.438 -0.2412  0.1988 -0.2312
19947W        W39481   7.637  11.038   4.600 -0.1041  0.2333 -0.0110
19948W        W39482   4.688   3.973  14.849  0.0313  0.1494  0.1789
19949W        W39483   4.906   9.345   4.244 -0.0586 -0.0532 -0.0947
19950W        W39484  13.428  17.803   1.460 -0.1008  0.0569 -0.1126
19951W        W39485   2.021   4.044  16.244  0.0674  0.3530 -0.2720
19952W        W39486  11.648   8.630   1.927  0.1097  0.0635 -0.0195
19953W        W39487  14.105  13.995  13.719 -0.0242 -0.0594 -0.0505
19954W        W39488  11.678   4.774   1.801 -0.3447 -0.4528  0.2372
19955W        W39489   6.821   6.812  14.325 -0.0135 -0.2344  0.2507
19956W        W39490  15.690   3.190  15.593 -0.0429 -0.1890  0.0543
19957W        W39491  15.684   7.105  13.054 -0.2970 -0.0082 -0.0409
19958W        W39492   7.583  11.689  12.986 -0.0590  0.1063 -0.2080
19959W        W39493   9.539   3.263  15.396 -0.1091  0.4361  0.2246
19960W        W39494   3.881  11.991   1.274 -0.1295  0.1271  0.1980
19961W        W39495   6.776  13.323   0.473  0.1600  0.0604 -0.0164
19962W        W39496   2.772   6.945   0.284 -0.1024 -0.2607  0.0598
19963W        W39497   9.207   4.384  11.656 -0.2914 -0.0280  0.0978
19964W        W39498   3.480  12.695   3.960 -0.2052  0.0064 -0.1478
19965W        W39499  16.264  17.666   3.002  0.1463 -0.0379 -0.0479
19966W        W39500  15.658   3.741   3.308 -0.3120  0.5009 -0.1426
19967W        W39501   8.747  14.748   0.390  0.0319 -0.0494 -0.2150
19968W        W39502   6.563   8.685   4.373  0.0456  0.0746 -0.0718
19969W        W39503   8.212  14.889  14.557 -0.3553  0.3359  0.0854
19970W        W39504   7.668   5.825  12.122 -0.0212  0.1700 -0.1543
19971W        W39505  16.904   9.603   0.637 -0.1962 -0.1034 -0.1134
19972W        W39506   7.624   5.922   0.731 -0.1405 -0.1527 -0.0016
19973W        W39507   7.115  13.270  16.708 -0.2461  0.1970 -0.0708
19974W        W39508   4.952   5.241  15.300  0.0581 -0.2359  0.0109
19975W        W39509  17.678  16.076   1.577 -0.2678 -0.2771  0.0018
19976W        W39510  14.711  12.045   1.935  0.0612 -0.0633  0.1980
19977W        W39511  13.716  12.243  12.594 -0.1236 -0.3482  0.1104
19978W        W39512  12.087   8.224   3.340 -0.1060 -0.0845 -0.0308
19979W        W39513   5.228  13.303   2.096  0.1317 -0.0130 -0.1147
19980W        W39514   0.923  13.245  13.233 -0.2999 -0.0819 -0.1061
19981W        W39515  12.320   6.414  13.439 -0.2933 -0.1667 -0.0282
19982W        W39516   1.208  14.906   4.553 -0.1050 -0.2404  0.1672
19983W        W39517   1.515   9.160  15.895  0.5688 -0.0008 -0.0495
19984W        W39518  11.538   8.099  13.848 -0.0224  0.1164  0.1220
19985W        W39519   8.064  12.738  16.196  0.1579 -0.0325 -0.1228
19986W        W39520  11.768   8.435  13.315  0.1451  0.1249 -0.0112
19987W        W39521  17.319   0.032  12.686  0.2390 -0.0380 -0.0296
19988W        W39522   2.946  14.819  11.865 -0.1889  0.1672 -0.1349
19989W        W39523  16.537   3.369   4.071 -0.0115 -0.0992 -0.0801
19990W        W39524  12.914   1.965   0.781 -0.2020  0.1393 -0.1035
19991W        W39525  15.013   6.073   2.735 -0.0561  0.0640  0.0897
19992W        W39526   6.595  15.939  12.310 -0.1891  0.1228  0.1101
19993W        W39527   7.479  15.363  16.227 -0.0865  0.1777  0.5902
19994W        W39528   3.548  14.038  12.906  0.0248  0.1593 -0.3967
19995W        W39529   0.010  17.102   2.322 -0.1075  0.0236 -0.1598
19996W        W39530  11.772   5.923  13.008 -0.0461 -0.0563 -0.0298
19997W        W39531  14.962   4.179   2.963  0.1186  0.4150 -0.2144
19998W        W39532   9.419  15.659   4.110 -0.1406  0.2233 -0.3364
19999W        W39533  11.641  12.962  15.881 -0.0065  0.0195  0.0937
20000W        W39534   2.664   2.320   0.320 -0.1582 -0.0850 -0.2560
20001W        W39535   0.607  14.547  12.439  0.0834 -0.1272 -0.3880
20002W        W39536   1.856  12.039  15.833 -0.0091 -0.1108 -0.2000
20003W        W39537   2.825  11.565   3.731  0.0319  0.1150  0.0413
20004W        W39538   9.592  13.419  13.787 -0.2706 -0.1663  0.2947
20005W        W39539   3.912  10.023   3.722  0.2162 -0.0756 -0.0587
20006W        W39540  16.320  10.222  12.754  0.0358  0.1262  0.1886
20007W        W39541   9.556  13.801  12.725  0.1106 -0.0720  0.0194
20008W        W39542  17.850   7.874  14.596  0.0871 -0.0259 -0.2676
20009W        W39543   2.599  10.909   4.879  0.2541  0.1827  0.0924
20010W        W39544   1.148   5.448   5.088  0.2743 -0.0824 -0.0479
20011W        W39545   4.160   7.313  13.972  0.0614  0.0133 -0.0419
20012W        W39546   9.382   1.394  14.504  0.1480  0.2984  0.3780
20013W        W39547  10.369   5.315  11.162 -0.2699  0.0223  0.2250
20014W        W39548  11.829   3.173   0.294 -0.3152  0.0155  0.0541
20015W        W39549  15.327  12.900   2.358 -0.2316 -0.0555  0.2032
20016W        W39550   0.506  17.212  13.560 -0.0620 -0.0400  0.1982
20017W        W39551   7.667   6.590   2.213 -0.2768 -0.1024 -0.4505
20018W        W39552   7.134   3.865   0.384 -0.3413  0.0880  0.1590
20019W        W39553  17.310  10.646  16.520  0.1004 -0.2562  0.1242
20020W        W39554   8.535   8.042  15.555 -0.2969 -0.3018  0.0601
20021W        W39555   8.323  16.622  16.300  0.1559  0.1576 -0.0923
20022W        W39556   8.316   3.427  10.511 -0.0507 -0.2054  0.1610
20023W        W39557  13.490   5.874   0.014  0.0844  0.1299  0.0303
20024W        W39558   0.603  16.257  15.246  0.0358  0.2341  0.4258
20025W        W39559  15.375   9.386  13.600  0.1399  0.3182 -0.0352
20026W        W39560  14.916  15.864   0.905 -0.1683 -0.1475  0.1916
20027W        W39561  10.367   8.054  14.783 -0.2570 -0.3644 -0.1137
20028W        W39562   9.097  16.747   4.783  0.0367  0.0792 -0.0408
20029W        W39563   1.416  17.293   1.684  0.0886 -0.1889  0.0775
20030W        W39564  13.633  11.063  14.629 -0.1664 -0.0752 -0.0067
20031W        W39565   7.165   5.733   4.531 -0.0671 -0.0238 -0.0852
20032W        W39566   9.889  17.818   1.141  0.1318 -0.2968 -0.1300
20033W        W39567  12.992   5.238  12.918 -0.0608 -0.1126 -0.1782
20034W        W39568  17.745  11.211   0.316  0.4029  0.3001  0.0020
20035W        W39569   7.197  13.971  14.988 -0.0823  0.0675 -0.1725
20036W        W39570   9.867   8.008  15.892 -0.2647 -0.0392 -0.2092
20037W        W39571   3.195  10.928  12.697 -0.0102 -0.0704 -0.4126
20038W        W39572   3.228  14.671   2.662  0.1885 -0.1487 -0.0122
20039W        W39573  12.295   1.155   2.297 -0.3801  0.2735 -0.0064
20040W        W39574   3.051  13.491  13.528  0.2425  0.0765  0.1384
20041W        W39575  14.994   0.255  11.142  0.1578 -0.1213  0.2639
20042W        W39576  10.364  13.449   2.590 -0.1055 -0.1614 -0.1655
20043W        W39577   2.610   5.516  13.907  0.3990 -0.0139  0.2120
20044W        W39578  10.795   1.689  14.215  0.1694  0.4399 -0.1167
20045W        W39579  10.220   8.658  14.293 -0.1023  0.0517 -0.2939
20046W        W39580   5.360   9.103  13.219  0.0543  0.1383 -0.0370
20047W        W39581  10.177  16.572  15.792  0.0451 -0.0619  0.1888
20048W        W39582   3.452   7.797  13.260  0.0991  0.0370 -0.0777
20049W        W39583   9.149   2.583  13.147 -0.0781  0.1246 -0.1075
20050W        W39584  10.457  12.156  15.460 -0.0245  0.1001  0.2009
20051W        W39585  16.395  17.115  14.264  0.2726  0.2119 -0.1019
20052W        W39586  12.447   6.915   3.098  0.1158 -0.0704  0.0883
20053W        W39587   4.017   0.375  13.943 -0.2716  0.0183  0.2230
20054W        W39588   6.372   3.390   4.265 -0.0801 -0.2904 -0.0432
20055W        W39589  12.033   5.369   1.246 -0.1087 -0.1597 -0.1912
20056W        W39590   6.998   5.369   4.793 -0.2688 -0.1966 -0.0506
20057W        W39591   5.763   2.452   3.159 -0.0019  0.1085 -0.0875
20058W        W39592  10.240   4.010   5.522  0.0315  0.3914  0.0591
20059W        W39593   9.208  15.205   1.020 -0.2992  0.1159  0.1152
20060W        W39594  10.667   9.652  14.347 -0.2718  0.0608 -0.1191
20061W        W39595  14.416   1.373  12.204  0.1392  0.0316  0.1668
20062W        W39596   5.569  10.019   2.869  0.1854 -0.2046  0.2417
20063W        W39597   2.479   2.039   3.158  0.0162 -0.2382 -0.0168
20064W        W39598   0.894  10.300  14.843 -0.1624 -0.1132  0.5958
20065W        W39599   0.771  16.320  12.503 -0.0752 -0.1720 -0.3226
20066W        W39600  10.637  10.777   3.459  0.0116 -0.0885 -0.1071
20067W        W39601   9.238  12.248   4.015  0.1623 -0.0813 -0.0208
20068W        W39602  13.735   8.577  11.515 -0.0696  0.2147 -0.0271
20069W        W39603  11.176  15.101   0.397 -0.0592 -0.4366  0.1905
20070W        W39604  15.879   2.007  16.563  0.2439  0.2053  0.4332
20071W        W39605  12.276  16.873  13.839  0.1115  0.0931 -0.1018
20072W        W39606  14.006   5.129  13.088 -0.1905  0.0390 -0.2690
20073W        W39607  13.600  11.865  15.804 -0.0211  0.3561 -0.0016
20074W        W39608   8.952   4.191   1.614  0.1604  0.1870  0.2736
20075W        W39609  15.297  10.630  14.679 -0.2885 -0.1308  0.1138
20076W        W39610  14.957   5.360   2.247  0.2130 -0.0369  0.0647
20077W        W39611   9.549   9.833   3.182 -0.0212  0.0346 -0.1487
20078W        W39612   1.452   2.114   1.061  0.2066 -0.1198  0.2691
20079W        W39613  15.860   3.132   2.078 -0.3534 -0.0127  0.0238
20080W        W39614  16.441  10.667  12.510 -0.2998  0.1274 -0.0251
20081W        W39615   4.087   7.396  12.523 -0.0289  0.1260  0.0993
20082W        W39616   3.215  10.453  12.845 -0.0275  0.2784  0.1431
20083W        W39617   1.991  17.126  12.042 -0.2663  0.0395  0.0593
20084W        W39618   7.776  10.796   1.918 -0.3115 -0.4104 -0.1257
20085W        W39619   9.267  12.543  15.751 -0.0613 -0.1091  0.1892
20086W        W39620   4.982   0.693  14.113  0.3810  0.2567  0.1860
20087W        W39621   0.933   3.893   3.946 -0.1380  0.0337 -0.1248
20088W        W39622   6.746   7.091   0.188  0.0320  0.1177  0.0122
20089W        W39623  14.081  14.743   4.897 -0.0060 -0.0404 -0.2248
20090W        W39624  15.788   2.220  13.649 -0.5037  0.1474 -0.0336
20091W        W39625   2.779   4.682   2.163 -0.2211  0.0657  0.1456
20092W        W39626  14.952  17.259   3.130 -0.1143 -0.1620  0.1476
20093W        W39627  17.780   6.091  12.581 -0.2337  0.1939 -0.2573
20094W        W39628  11.322   4.058   3.241 -0.0758 -0.1031  0.0970
20095W        W39629  11.538   6.449   4.650 -0.2313  0.0515  0.1265
20096W        W39630  16.147  16.676   0.210  0.4228 -0.1164  0.2591
20097W        W39631   2.464  10.987  15.484 -0.1397 -0.1746 -0.1169
20098W        W39632   7.106   4.707  16.052  0.0829  0.0117  0.0350
20099W        W39633   1.853   7.141   1.062  0.1358  0.1582 -0.1772
20100W        W39634   8.123   1.158  15.516  0.2512 -0.0804 -0.0432
20101W        W39635   6.443   9.939   1.654  0.1141  0.1383 -0.0274
20102W        W39636   4.246   3.064   4.127 -0.1737 -0.2060 -0.0569
20103W        W39637   5.985   5.091  11.902 -0.3417 -0.2134  0.1326
20104W        W39638  11.906   8.538   3.826 -0.0001  0.0132  0.0114
20105W        W39639   4.551   1.860  14.411  0.0120  0.2076 -0.1815
20106W        W39640   5.148   8.064   3.960  0.1094  0.0118 -0.3146
20107W        W39641  10.475   6.242   2.584 -0.1647 -0.3142  0.3604
20108W        W39642   3.559  11.685  13.532 -0.1765  0.1022  0.0631
20109W        W39643   0.830  11.747   0.920 -0.1219 -0.5268  0.0545
20110W        W39644  15.089   8.863  12.539  0.0567  0.0493 -0.0034
20111W        W39645  16.461   9.932  14.508  0.3373 -0.1872  0.0612
20112W        W39646  15.172   2.990   3.693  0.0065  0.0024 -0.0393
20113W        W39647   2.579   1.540   1.412 -0.2388 -0.2355  0.0910
20114W        W39648   0.657  12.633  14.486  0.0651 -0.1582  0.0022
20115W        W39649   1.378  11.760   2.709 -0.0309  0.1435  0.1883
20116W        W39650  15.178  11.964   2.135  0.1185  0.1235  0.1964
20117W        W39651   7.231   0.177  13.361 -0.0795  0.0144 -0.2410
20118W        W39652  10.895   7.664  13.881  0.0178  0.0263  0.0570
20119W        W39653   5.607  10.800   3.828 -0.1072  0.1880  0.0197
20120W        W39654   6.591  13.655  15.047  0.2096 -0.3076 -0.2562
20121W        W39655  14.259   9.782   0.726 -0.0101  0.0251 -0.1669
20122W        W39656  15.092  13.843   0.483 -0.1816  0.1808 -0.0730
20123W        W39657   8.765  10.262  11.663 -0.0176 -0.1175 -0.1798
20124W        W39658  17.460  17.233   3.702  0.0786  0.0283 -0.0614
20125W        W39659   8.091   0.472   2.018 -0.0580  0.1585  0.0049
20126W        W39660  16.720  14.629   1.868 -0.0531 -0.4032  0.1769
20127W        W39661  11.272  11.147   4.090 -0.1689 -0.0374 -0.0964
20128W        W39662   7.997  16.598  16.731 -0.0168 -0.0373 -0.0801
20129W        W39663   6.431   8.035  12.669  0.4840  0.1782  0.0612
20130W        W39664  15.524  11.527   3.859  0.2921 -0.0939  0.4672
20131W        W39665   1.859   9.147  16.522 -0.3124 -0.0496 -0.1601
20132W        W39666  13.512   4.184   2.809  0.0648  0.3098  0.0104
20133W        W39667   4.262  16.099  14.311 -0.0430 -0.1034 -0.1244
20134W        W39668  10.451   1.828  16.113  0.0096 -0.3414 -0.4100
20135W        W39669   4.398  17.530  13.960 -0.0756  0.1329 -0.2154
20136W        W39670  12.588  14.466  14.870 -0.2599  0.0362 -0.1822
20137W        W39671   1.110  12.055  15.292  0.2306 -0.1928 -0.1022
20138W        W39672  11.414   2.002   2.223  0.0402 -0.0766  0.2237
20139W        W39673  11.190   9.583  14.686  0.0242 -0.1658 -0.2040
20140W        W39674  11.642  14.275  16.398  0.2051 -0.0485 -0.1273
20141W        W39675   5.784   3.991   0.377  0.1471  0.0197  0.2962
20142W        W39676   3.267  12.693  14.864 -0.4020  0.3288  0.2417
20143W        W39677  11.796  17.313  14.923  0.1070 -0.1013  0.0034
20144W        W39678   3.484   2.914   2.601  0.2204 -0.0226 -0.1592
20145W        W39679   6.053  12.668   3.111  0.3216  0.4423  0.1220
20146W        W39680  13.686  13.955   1.425 -0.0529  0.0166  0.1214
20147W        W39681   0.213   6.824   1.594 -0.1245 -0.1826  0.1543
20148W        W39682  15.711   3.827  14.930  0.2041 -0.2289 -0.2315
20149W        W39683  15.635   8.044  16.567  0.4280  0.2021 -0.0269
20150W        W39684   5.755  15.225   0.291  0.0253 -0.0357 -0.0744
20151W        W39685   4.280  10.562  15.780  0.0758 -0.3456 -0.1636
20152W        W39686  16.565   0.797   5.886 -0.3131 -0.0795 -0.3625
20153W        W39687   0.678  12.367  15.394 -0.1020 -0.1744  0.0525
20154W        W39688  12.580   9.991   3.813  0.1301  0.0123  0.0743
20155W        W39689  11.316   1.972   2.788 -0.1425 -0.1199  0.5291
20156W        W39690  12.397   5.705  11.649 -0.0267 -0.1956 -0.2806
20157W        W39691   1.602  10.526  15.986  0.0762 -0.2046  0.2395
20158W        W39692   3.809   4.048  16.028  0.0783 -0.1691  0.0379
20159W        W39693   5.141   3.600   3.718  0.3305 -0.0364  0.0450
20160W        W39694   4.652  13.960   1.149  0.2451 -0.0015 -0.1727
20161W        W39695   9.682   0.041  13.164 -0.3246  0.0228 -0.0713
20162W        W39696   5.697   1.221  12.038  0.0097 -0.1087  0.0017
20163W        W39697  16.450   9.339  16.115  0.2428  0.0649  0.1084
20164W        W39698  16.658   9.705   1.511  0.2429 -0.1100 -0.1715
20165W        W39699  17.663   8.512  15.174  0.0627  0.1206 -0.3517
20166W        W39700   8.784   5.452  14.007  0.1477  0.0399  0.3931
20167W        W39701  15.938   6.299  15.991 -0.0115 -0.1347  0.1446
20168W        W39702  17.853  12.247  12.745  0.1122  0.0975  0.1361
20169W        W39703   5.291  13.912   2.745 -0.0741 -0.1993  0.0298
20170W        W39704  14.862  12.928   0.302 -0.2105 -0.1379 -0.1948
20171W        W39705  12.351   5.216  13.755  0.0847  0.0039 -0.4012
20172W        W39706  14.907   5.844   2.318 -0.6004 -0.0081  0.1868
20173W        W39707  15.708   0.373   0.496 -0.0747  0.0259  0.0223
20174W        W39708  14.432  15.406   4.004  0.0073  0.0012 -0.0410
20175W        W39709  10.261  13.225  12.308  0.0211  0.2589 -0.2634
20176W        W39710   6.752  15.771  16.183 -0.0647 -0.0558  0.2020
20177W        W39711   7.965   7.066   0.041  0.0495 -0.1685 -0.0666
20178W        W39712   8.852   5.850   5.874  0.3223 -0.0085 -0.2325
20179W        W39713  13.275  12.662  16.378 -0.0514  0.1986 -0.2646
20180W        W39714   7.355   1.131   4.770  0.0891 -0.0769 -0.1672
20181W        W39715  11.964  12.255   0.603  0.2309 -0.0915  0.0974
20182W        W39716   3.518   4.722  16.585  0.2626 -0.1263 -0.1393
20183W        W39717  15.257   6.571   2.030  0.1239  0.0581 -0.0618
20184W        W39718  15.974  15.478  12.568 -0.1127 -0.0368 -0.4846
20185W        W39719   7.545   2.910  11.814 -0.1965 -0.2363  0.1243
20186W        W39720  13.678   9.943   3.171  0.0874  0.4763  0.0207
20187W        W39721   7.709   4.566   0.196 -0.0812  0.0454 -0.6097
20188W        W39722   5.594   5.514   3.281 -0.3290  0.0108 -0.0712
20189W        W39723   6.773   3.761   0.078 -0.1849  0.1921 -0.1822
20190W        W39724   9.777  10.290   2.962  0.0811  0.0004 -0.0915
20191W        W39725  11.773  14.497  14.914  0.2005 -0.3947  0.0151
20192W        W39726  11.595   4.044  16.405 -0.2747  0.1981  0.0772
20193W        W39727   8.939  16.273  15.765 -0.1899 -0.1722 -0.0698
20194W        W39728  16.168   0.683   1.187  0.1533 -0.0430 -0.0428
20195W        W39729  11.420   7.866  12.771  0.0725  0.2347  0.0438
20196W        W39730   3.814   4.143   4.753 -0.2406 -0.0690  0.0593
20197W        W39731   4.677  13.315  13.551  0.2048 -0.1869 -0.1855
20198W        W39732  10.135   6.098  15.076  0.1744  0.2614  0.1631
20199W        W39733   6.052  15.410   3.626 -0.0932  0.2146  0.3266
20200W        W39734   9.508   9.929   3.688  0.0629 -0.1927  0.0343
20201W        W39735   6.472   4.813   4.975 -0.4537  0.0856  0.0254
20202W        W39736  16.093  12.385  15.339  0.2860 -0.1651 -0.0526
20203W        W39737  14.851   8.305  16.615  0.0326  0.1508  0.0242
20204W        W39738   1.589   3.585   4.602  0.1132  0.1174  0.0081
20205W        W39739   5.399   1.247   0.492  0.0917 -0.0660 -0.1756
20206W        W39740   9.337   2.388   1.765 -0.0487 -0.0710  0.3882
20207W        W39741  13.140  14.495  16.378  0.3068  0.0163 -0.0157
20208W        W39742   3.400   3.266  16.617  0.3044  0.0308  0.0330
20209W        W39743   5.989  16.915   1.284  0.2436 -0.1951  0.1846
20210W        W39744  15.300   7.956  14.522  0.1176 -0.0867 -0.3347
20211W        W39745   0.810   0.267   3.633  0.2103  0.0814  0.0136
20212W        W39746   1.007  10.485   0.308  0.0718 -0.1296 -0.0856
20213W        W39747  11.429  16.180  13.058 -0.0339  0.1204 -0.1444
20214W        W39748   1.225  13.149   1.943 -0.1011  0.0598 -0.0354
20215W        W39749   8.071  15.483   2.795  0.0439 -0.0068  0.0458
20216W        W39750   2.023  16.293   4.799  0.4871 -0.0352 -0.4201
20217W        W39751   3.477   8.135  15.948  0.2968  0.2302  0.0279
20218W        W39752   4.646   1.910   5.004  0.1394  0.1631  0.1022
20219W        W39753  12.954   6.489  11.986 -0.0375 -0.4527 -0.3240
20220W        W39754   3.123   3.624   5.259 -0.2130  0.2167 -0.3556
20221W        W39755   8.433   3.027   3.576  0.1185 -0.0297 -0.2002
20222W        W39756  11.197  15.944  16.581  0.1608 -0.2701  0.1569
20223W        W39757  15.229   4.393   3.685 -0.1190 -0.2376  0.0406
20224W        W39758   8.072  17.186  14.142 -0.1574 -0.0797 -0.0553
20225W        W39759  14.756  10.684   2.556 -0.2714  0.0821  0.1643
20226W        W39760  15.740   1.524  16.618 -0.0527 -0.2676 -0.2580
20227W        W39761   7.470   3.333   4.389 -0.1088 -0.0753  0.1800
20228W        W39762   6.456  13.295  14.082 -0.0024 -0.0609 -0.0131
20229W        W39763   6.755  15.282  13.036  0.0243  0.4490 -0.3821
20230W        W39764   9.498   5.767  12.396 -0.3792 -0.1229  0.1473
20231W        W39765  16.559  16.668  14.552 -0.1001  0.2907  0.0504
20232W        W39766  17.097   6.273  15.427  0.3120 -0.0914  0.2024
20233W        W39767   5.760  15.216  13.019  0.0697  0.3302  0.1361
20234W        W39768   3.964  13.296   4.230  0.0653 -0.3422  0.0306
20235W        W39769  11.394   4.418   4.375 -0.2035  0.0653 -0.1548
20236W        W39770  12.522  14.536  14.331  0.2918  0.1902 -0.2325
20237W        W39771   2.845   2.062  16.366  0.0168  0.1300 -0.2469
20238W        W39772   1.520  14.742   3.808  0.1847 -0.2772  0.0530
20239W        W39773   7.231   9.818  15.956  0.0187 -0.1227 -0.1794
20240W        W39774  11.134   4.958   2.994 -0.1593  0.1134  0.1321
20241W        W39775  17.132  13.874  16.389  0.1359 -0.2324 -0.0686
20242W        W39776   7.336   7.120   3.828  0.3056  0.1976  0.1414
20243W        W39777   3.467  14.425   1.520 -0.3164  0.2302 -0.0127
20244W        W39778  14.838   8.118   2.474  0.1681 -0.1614 -0.0490
20245W        W39779  14.142   5.427   2.608  0.2955 -0.0261  0.2070
20246W        W39780  14.867   7.882  12.394 -0.2235 -0.2755  0.1786
20247W        W39781  14.084  14.041   0.292  0.1323  0.0644  0.0488
20248W        W39782  10.176  11.655  12.262  0.0806 -0.1470 -0.0081
20249W        W39783   0.539  16.766  12.656 -0.1380 -0.2979 -0.3664
20250W        W39784   1.326   8.430  12.265  0.3860 -0.0326 -0.0673
20251W        W39785   6.644   1.964  14.320 -0.2521  0.0422 -0.0684
20252W        W39786   1.299   4.376  14.984 -0.0823  0.1021  0.1156
20253W        W39787   4.217   8.777  14.950  0.1289 -0.0373  0.0216
20254W        W39788  16.227   7.258  12.291 -0.1600 -0.5146  0.2736
20255W        W39789   5.530  15.457  14.291  0.1618 -0.2443 -0.1903
20256W        W39790  10.844  12.105  14.647 -0.2964 -0.2937  0.0924
20257W        W39791   7.393   3.813  13.267  0.0080  0.0124 -0.0354
20258W        W39792   5.584  11.778   0.129 -0.0602 -0.0760  0.2812
20259W        W39793   6.699  17.740   0.291 -0.0153 -0.0336 -0.2075
20260W        W39794   7.049   8.888  15.024  0.1297  0.0450 -0.3066
20261W        W39795   6.289   0.416   4.170 -0.1045  0.0436  0.1498
20262W        W39796  10.559   5.587  14.355  0.0873 -0.0955 -0.0844
20263W        W39797   5.176   3.639   5.429 -0.1283  0.1516 -0.0891
20264W        W39798  16.595  10.406   2.151 -0.0369 -0.0637  0.1256
20265W        W39799   9.284  10.457   2.345 -0.1334 -0.2994 -0.0820
20266W        W39800   1.913  11.892   0.457 -0.1198  0.0413 -0.1003
20267W        W39801   6.260  13.456   0.440  0.1038  0.2824  0.1966
20268W        W39802   0.654   0.085  13.235  0.1044  0.2958 -0.2341
20269W        W39803   9.873   1.302   4.596  0.1120 -0.0383 -0.0244
20270W        W39804  15.000  15.780   2.010 -0.2945  0.0496 -0.0144
20271W        W39805   5.577   3.296   4.900 -0.3505  0.1204 -0.1731
20272W        W39806  17.729  16.632   1.878  0.1366  0.0051 -0.1915
20273W        W39807  14.091   1.163  14.733 -0.1799  0.0014 -0.0881
20274W        W39808  10.094  10.557   4.211  0.0152  0.1985  0.1798
20275W        W39809  12.305  13.686  15.229  0.1076  0.1153 -0.2084
20276W        W39810  16.400   1.940   0.574  0.0904  0.0062  0.0226
20277W        W39811   7.086  10.972  12.051  0.0410 -0.1057 -0.1464
20278W        W39812   2.753   1.724  15.208  0.2745  0.0234  0.1406
20279W        W39813  12.415  10.605  12.811  0.0368 -0.1237  0.0357
20280W        W39814  12.324   6.650  15.397  0.2688 -0.3992  0.1910
20281W        W39815   3.822   4.877  12.406  0.0835 -0.0267 -0.5109
20282W        W39816   9.989   0.083   0.397 -0.1464 -0.1602 -0.1756
20283W        W39817   8.990   8.878   4.124  0.1423 -0.1250  0.1367
20284W        W39818   6.419   2.850   0.388  0.0930  0.0512 -0.2533
20285W        W39819   9.464  15.258   4.513  0.4420 -0.0649  0.0080
20286W        W39820   6.576  12.356   3.895 -0.3315 -0.0140 -0.1441
20287W        W39821   5.235   5.087   4.749 -0.0824  0.0320 -0.0062
20288W        W39822  15.610   9.735   1.836 -0.2024 -0.1614 -0.0475
20289W        W39823  16.499  17.572  15.073 -0.2395 -0.2297  0.1526
20290W        W39824  13.237   5.777  16.283 -0.2574 -0.2736  0.0112
20291W        W39825  14.575  10.776   1.848  0.0549 -0.4960  0.0849
20292W        W39826   9.056   3.166  15.558 -0.1768  0.0917 -0.2312
20293W        W39827   9.459   1.770   3.101 -0.2648 -0.1012 -0.0041
20294W        W39828  14.941  13.102  15.208  0.1989 -0.0899  0.0625
20295W        W39829   1.381  11.384   1.755 -0.1038  0.0089 -0.0434
20296W        W39830  17.219  16.449  11.911  0.3175  0.0724 -0.1114
20297W        W39831  14.310  11.896   2.155  0.1019  0.0098  0.2005
20298W        W39832  11.206   1.510   4.839 -0.2626  0.2863 -0.0099
20299W        W39833  11.924  12.509   2.688 -0.2751  0.0383  0.3738
20300W        W39834   4.497  11.162   0.058 -0.1752  0.0032  0.3538
20301W        W39835   5.109   8.792  15.987 -0.0043  0.1130  0.1334
20302W        W39836  12.152   0.560  12.617  0.0432 -0.0347 -0.0613
20303W        W39837  10.839   3.457   1.842  0.0202 -0.1259  0.1096
20304W        W39838   8.572  10.202  11.177 -0.1989 -0.0766 -0.0434
20305W        W39839   5.510  15.582   1.578 -0.1225  0.0620  0.1260
20306W        W39840  10.687   9.324  12.389 -0.0193 -0.1360 -0.1903
20307W        W39841   7.608   3.998   0.185 -0.0854 -0.0701  0.3131
20308W        W39842  13.929  10.344  12.091  0.0544 -0.0202  0.2017
20309W        W39843   6.868  14.719  12.920 -0.2084  0.1516  0.0900
20310W        W39844   4.867  13.343   3.370  0.1263  0.0985  0.3888
20311W        W39845   0.340   2.476  13.432 -0.3584 -0.1443  0.1593
20312W        W39846  17.624   7.881  11.872 -0.0019 -0.1773  0.0422
20313W        W39847  14.473   2.310   3.863 -0.1107  0.0333  0.1792
20314W        W39848  16.408  15.797  13.163 -0.3593  0.0820  0.4217
20315W        W39849  14.090   9.432  12.125 -0.0870 -0.2828 -0.3082
20316W        W39850  16.292   0.602   2.311  0.2951  0.1449  0.2723
20317W        W39851  13.258   0.313  14.418  0.1329 -0.0300 -0.0026
20318W        W39852   5.801   1.739  12.907  0.0175 -0.2385 -0.2770
20319W        W39853   4.305   4.585   4.827  0.0031 -0.1622 -0.1653
20320W        W39854   7.872   9.127   1.482 -0.3728  0.0232 -0.1365
20321W        W39855  14.067   6.111   3.204 -0.4368  0.0756 -0.2208
20322W        W39856  12.258   6.830  14.359 -0.0380  0.1198 -0.0739
20323W        W39857  16.705   1.442   2.124  0.2070 -0.0192 -0.0779
20324W        W39858   9.280  17.597   0.793  0.2256 -0.3446 -0.1634
20325W        W39859   8.982   9.467   2.408  0.0482  0.4641 -0.1448
20326W        W39860  11.131  17.788   2.453  0.1368  0.4033 -0.1525
20327W        W39861  14.789  14.815  12.466 -0.0637  0.1398 -0.2553
20328W        W39862  17.311  12.695  12.093 -0.0670  0.0809 -0.2279
20329W        W39863  16.603  17.157   4.861  0.0787  0.0057 -0.0243
20330W        W39864   3.068  15.374  12.669  0.0342  0.2526  0.1049
20331W        W39865   9.347   7.810  14.043 -0.2681  0.0655 -0.1477
20332W        W39866   0.886   5.070  15.502 -0.1296  0.1577  0.0276
20333W        W39867  17.430   7.548  12.721 -0.0022  0.0151 -0.1084
20334W        W39868  17.519  14.021   1.019  0.0349 -0.2414 -0.1199
20335W        W39869  13.112  12.105   0.486  0.1408 -0.1721 -0.0471
20336W        W39870  12.783   8.372  13.965 -0.1047 -0.2445 -0.0460
20337W        W39871   8.877   3.630  15.605 -0.2449 -0.1195  0.1212
20338W        W39872   1.254  10.910   2.336  0.1332 -0.0559  0.0575
20339W        W39873   6.159   6.279   4.826 -0.2103 -0.1930  0.0551
20340W        W39874   8.296   4.907  14.666 -0.1028  0.0660  0.1145
20341W        W39875   0.838  14.709  14.362 -0.1435  0.0435  0.1932
20342W        W39876   1.260   0.518  13.796  0.0421 -0.2165  0.0500
20343W        W39877   3.665   3.982   2.685  0.2376  0.0862 -0.1445
20344W        W39878   7.454   7.303   0.004 -0.0986 -0.0888 -0.3426
20345W        W39879   4.937  14.861   1.098  0.0119 -0.0443 -0.2879
20346W        W39880  12.291   1.983   0.751  0.0854  0.0736  0.2076
20347W        W39881  10.390  10.131   1.119  0.2913 -0.0864  0.0332
20348W        W39882   0.588  15.847  12.582 -0.1195 -0.2875 -0.1383
20349W        W39883  12.233   8.011   1.599 -0.3695  0.1105  0.1728
20350W        W39884  14.883  12.627  13.184 -0.1274 -0.1716  0.0600
20351W        W39885  13.532   6.687   0.003  0.3175 -0.5683 -0.1084
20352W        W39886  16.806   1.076  15.619  0.0495  0.3880  0.4093
20353W        W39887   9.442   1.523   4.660  0.0366  0.1446 -0.0356
20354W        W39888   4.394  12.969   0.173  0.0958 -0.2220  0.0955
20355W        W39889  15.235   3.793   1.438 -0.0212 -0.0931 -0.1563
20356W        W39890   5.440  17.478  12.637  0.0446 -0.0624 -0.2134
20357W        W39891   8.681   5.015   0.324  0.1592  0.2701 -0.0083
20358W        W39892   2.350   7.705  12.699 -0.3959 -0.2770 -0.0293
20359W        W39893   6.433  16.821  15.131 -0.3369 -0.0208 -0.3180
20360W        W39894   1.951  11.171   2.673 -0.1443  0.1465 -0.2297
20361W        W39895  12.932   4.317  14.729 -0.3206 -0.0389  0.0648
20362W        W39896   6.487  10.369   1.302  0.0911  0.0864 -0.3416
20363W        W39897   7.826  14.430  13.807 -0.0183 -0.0414  0.2695
20364W        W39898   4.340  14.381  15.150 -0.1851 -0.3231  0.1046
20365W        W39899  13.856   7.310  13.451  0.1940 -0.2184 -0.0766
20366W        W39900   8.203  15.767  11.159  0.0495 -0.5071 -0.1137
20367W        W39901   3.890   3.880   4.219 -0.1268 -0.0315  0.1279
20368W        W39902  15.512   2.891  12.241 -0.1465 -0.1614 -0.1625
20369W        W39903   3.344   4.075   4.136  0.1226  0.0873 -0.3440
20370W        W39904   2.593  16.198   0.819  0.2144  0.1252  0.1044
20371W        W39905   8.980   1.460   2.681  0.3013 -0.1811 -0.2861
20372W        W39906   7.475   3.792  13.985 -0.4101  0.2400  0.3540
20373W        W39907   0.987  11.811  14.152  0.1925 -0.0348 -0.0762
20374W        W39908   7.114   9.263  13.219 -0.4621  0.0269  0.1681
20375W        W39909  10.718  17.217  12.344  0.0338  0.1197 -0.0820
20376W        W39910  16.078  16.814  14.679  0.0004  0.2810 -0.1635
20377W        W39911  14.882  14.387  14.688 -0.0020 -0.1463  0.0584
20378W        W39912   0.865   3.961   0.041  0.0736 -0.2158  0.1647
20379W        W39913   6.530   8.170   5.185  0.2304  0.0642  0.3755
20380W        W39914   5.976   4.407  16.121  0.0012  0.1457  0.0430
20381W        W39915   6.033  10.535  15.496  0.0673 -0.1179  0.0577
20382W        W39916   0.034  16.187  13.905 -0.2985 -0.2967 -0.5012
20383W        W39917  10.545   5.119  12.820  0.1600 -0.0224  0.2284
20384W        W39918   2.096   0.870  13.317 -0.0136  0.0198 -0.1866
20385W        W39919  17.405  10.090  12.917 -0.1436  0.0186  0.0187
20386W        W39920   9.361   5.016   3.099 -0.1001 -0.0320 -0.2888
20387W        W39921  11.101  10.339  16.368  0.0970  0.2096  0.2754
20388W        W39922  17.905  10.779   3.892 -0.1287  0.1686  0.1720
20389W        W39923  11.540  17.502   3.428 -0.1317 -0.0699 -0.0962
20390W        W39924  16.095  10.934   0.941  0.3420 -0.1198  0.0746
20391W        W39925   5.977   2.482  14.802  0.1271 -0.0853 -0.3693
20392W        W39926  10.781   7.124  15.871  0.2988  0.2236  0.0439
20393W        W39927   3.782  11.545   3.698 -0.0593  0.1767 -0.0130
20394W        W39928  11.592  14.559  15.965  0.3052  0.0453 -0.1259
20395W        W39929   2.827  12.446  13.696  0.1877 -0.0081  0.1605
20396W        W39930   7.555  16.425   1.834 -0.1435  0.2325 -0.0698
20397W        W39931   3.693   3.291  11.772  0.0523 -0.2273  0.0440
20398W        W39932  13.085  16.415  14.265  0.3810  0.1587 -0.0734
20399W        W39933   7.365  16.018  13.294  0.0370  0.0596  0.2765
20400W        W39934  10.022   6.737   2.150  0.0824  0.2403 -0.2432
20401W        W39935  11.734  12.286  14.379 -0.0255 -0.0866 -0.0462
20402W        W39936   5.836   9.397  13.027 -0.2456  0.0280  0.0573
20403W        W39937  15.795  15.546   2.865  0.0019 -0.1102 -0.1203
20404W        W39938  16.313  14.428  16.456  0.2443  0.0662 -0.1300
20405W        W39939  11.416   4.154   3.920 -0.2946 -0.1745 -0.1266
20406W        W39940   6.007   7.176   4.834  0.0821 -0.3286  0.0766
20407W        W39941  10.782  16.952   5.937 -0.4114  0.0552 -0.2082
20408W        W39942   2.604   5.515   4.404 -0.1233  0.0484  0.1565
20409W        W39943  13.194   5.631  12.357  0.0614  0.0100 -0.0744
20410W        W39944   1.998   4.621   3.116  0.3966  0.0668  0.1534
20411W        W39945  15.654  16.517   0.261 -0.2113 -0.1342  0.2220
20412W        W39946   3.572   0.071  13.113  0.0537 -0.1896 -0.1223
20413W        W39947  11.438   9.839  16.122  0.1320  0.1176 -0.1737
20414W        W39948   6.837   2.962   0.115 -0.1067  0.0991 -0.1448
20415W        W39949   7.950   5.420  12.384  0.3995 -0.0235  0.3167
20416W        W39950   1.437   3.450  14.603  0.1050  0.2793  0.2877
20417W        W39951   4.993  17.788   0.858 -0.0105 -0.3027  0.1236
20418W        W39952  13.836   2.636   4.010  0.0857  0.2265  0.1703
20419W        W39953   2.953   5.335  14.851 -0.0571 -0.1729 -0.1127
20420W        W39954   8.713   4.530   0.041  0.0931  0.1920 -0.0568
20421W        W39955   6.803  15.547  14.979  0.0691 -0.1606 -0.1818
20422W        W39956  11.427   6.290  15.171 -0.0707  0.1165 -0.0447
20423W        W39957   4.807   0.540   2.065  0.1068 -0.2390  0.0705
20424W        W39958  15.723  10.779  14.944 -0.0791  0.2680  0.3140
20425W        W39959   8.909   0.430  16.334  0.0853 -0.0921  0.0501
20426W        W39960  13.317  13.126   3.817  0.0085 -0.2184  0.0997
20427W        W39961  13.458   7.234   2.410 -0.2175  0.0312 -0.0627
20428W        W39962   8.033   5.088  13.008  0.1660 -0.1433  0.2231
20429W        W39963   6.062   8.157   4.249  0.0004  0.2741  0.1780
20430W        W39964   2.445  17.074  14.870 -0.1649 -0.0109 -0.1041
20431W        W39965   8.385   4.805  15.199 -0.0584 -0.0302  0.3365
20432W        W39966   0.800  12.478   1.247  0.1807  0.1141 -0.0602
20433W        W39967  12.408  15.764   2.332 -0.0400 -0.0043  0.1500
20434W        W39968  12.403   9.716   4.341 -0.1369 -0.1261  0.3265
20435W        W39969   3.672   7.595  11.999 -0.1623 -0.1247  0.0290
20436W        W39970   2.196  13.885  15.511 -0.2773 -0.0681 -0.1841
20437W        W39971   3.840  13.850  16.725  0.1472  0.1901  0.0060
20438W        W39972  16.537   5.889  15.661  0.0866  0.0912  0.4165
20439W        W39973  17.893   7.516  12.945 -0.2867  0.0384 -0.3859
20440W        W39974   5.695  11.674  14.450  0.1427 -0.1366  0.1161
20441W        W39975  13.288  13.327   5.104  0.0350 -0.1018 -0.1513
20442W        W39976  10.015  12.046   1.514  0.1477 -0.1877 -0.2873
20443W        W39977   8.864  14.396  15.868 -0.0595 -0.1997 -0.1225
20444W        W39978   0.493  12.837   3.711 -0.0902  0.0878  0.2455
20445W        W39979   7.007  15.400   0.278  0.0298 -0.0841 -0.1431
20446W        W39980  10.286   0.063   2.147  0.0873 -0.1945  0.0661
20447W        W39981  10.406   1.323   1.584  0.0195  0.2167  0.0158
20448W        W39982  12.225   3.375  12.288 -0.0377 -0.2290  0.1051
20449W        W39983   7.431  13.904   0.170 -0.0716  0.0425 -0.0349
20450W        W39984  12.240  12.466   1.572  0.2433 -0.0235 -0.0869
20451W        W39985   9.604   4.170   4.888  0.0964  0.0842  0.2796
20452W        W39986   4.012   2.127   0.204  0.3191 -0.0926 -0.2080
20453W        W39987  11.996   1.012  15.590  0.0546 -0.4107  0.0589
20454W        W39988   0.525   8.308  13.677 -0.1790 -0.1572  0.1680
20455W        W39989   8.631   3.726   0.467  0.2009 -0.2324  0.1467
20456W        W39990   0.764  11.707  12.386  0.1038  0.1913  0.1424
20457W        W39991   9.405  11.261  12.194  0.1143  0.0744  0.1695
20458W        W39992  10.284  16.442   3.329 -0.2306 -0.0044 -0.0451
20459W        W39993   0.613   5.850   2.839  0.0368 -0.1719 -0.1261
20460W        W39994  11.995  15.540   0.775  0.0750  0.0908  0.1748
20461W        W39995   5.547   3.285   4.370  0.0085 -0.0647 -0.1727
20462W        W39996   0.950   0.146   1.107 -0.0604 -0.0792  0.4991
20463W        W39997   8.604   0.964   2.449  0.1949  0.3480  0.2192
20464W        W39998   9.175  15.022   1.485  0.2200 -0.0365 -0.3817
20465W        W39999  17.275   4.682  16.058 -0.3200  0.2702  0.1112
20466W        W40000   2.046   9.811  15.462  0.2104 -0.1336 -0.2975
20467W        W40001  12.372  15.156  15.441 -0.2365 -0.0235  0.1442
20468W        W40002   5.459   9.321   3.321 -0.0247 -0.1191  0.0831
20469W        W40003   4.304  14.194   2.055  0.1088 -0.0780  0.0643
20470W        W40004   6.447   6.162  12.999 -0.0414  0.2971  0.1219
20471W        W40005   2.506   7.669   2.727 -0.1845 -0.3647 -0.0815
20472W        W40006   0.858  17.642  12.896 -0.2463  0.2193  0.0290
20473W        W40007   3.677   6.900   4.725  0.1004 -0.0970 -0.0078
20474W        W40008  10.716   8.919  14.391  0.0109  0.1745  0.1234
20475W        W40009  15.707  11.329  15.699  0.1930 -0.0740 -0.1324
20476W        W40010   3.617   0.546  13.166 -0.1181 -0.0750  0.1591
20477W        W40011   0.152  14.458  14.133 -0.3316  0.1055  0.1229
20478W        W40012  13.142  11.335   4.004  0.2520  0.2283 -0.4385
20479W        W40013   4.348  16.066   4.589 -0.2712 -0.0909  0.1199
20480W        W40014   8.191   9.200  15.245 -0.3854  0.0025 -0.1518
20481W        W40015   9.594  13.380  15.936 -0.0814  0.0524  0.2351
20482W        W40016   0.308  10.073  14.114 -0.0496 -0.1452  0.0519
20483W        W40017  17.379   5.821  15.484  0.0784 -0.0390 -0.1125
20484W        W40018   5.756   7.728   5.023  0.0536  0.0984 -0.1670
20485W        W40019   0.521  17.767   0.009  0.2542  0.2228  0.1919
20486W        W40020   6.784   9.886   3.610  0.0489  0.1722 -0.2350
20487W        W40021   0.195   6.896  11.093  0.0599 -0.1084 -0.0766
20488W        W40022   1.685  14.643  15.436  0.1781 -0.2419  0.0680
20489W        W40023   0.077  16.567  12.688  0.1408  0.0701  0.1408
20490W        W40024   8.342  15.004   3.206  0.0138 -0.0011 -0.3134
20491W        W40025   6.463   9.389  11.974 -0.0823 -0.2133  0.3336
20492W        W40026   8.835   8.175   1.706  0.1236  0.0478  0.0117
20493W        W40027   9.267   3.948   1.253 -0.1026  0.0143  0.1182
20494W        W40028   7.499   3.611   5.964  0.1396 -0.0718  0.0244
20495W        W40029   9.587   1.256  12.779  0.2784 -0.2992  0.2018
20496W        W40030   9.076  15.155  14.552 -0.3395  0.1928  0.0480
20497W        W40031  16.561  12.648   3.433  0.1008  0.3341 -0.1319
20498W        W40032   1.018   4.434   3.947  0.2492 -0.0113  0.0079
20499W        W40033   0.395   5.900  14.616 -0.1357 -0.1313 -0.3644
20500W        W40034   8.341   7.122  13.973  0.0525  0.2855  0.1685
20501W        W40035  12.999  13.475  15.928  0.2740 -0.0727  0.1876
20502W        W40036  12.458   9.779  13.051  0.0246  0.0218  0.0713
20503W        W40037   5.447  12.236  15.078  0.0340 -0.0332  0.0200
20504W        W40038   1.772  15.605  14.197 -0.2035 -0.0918  0.2215
20505W        W40039   7.017   3.355   0.311  0.2242  0.1291  0.0527
20506W        W40040   8.830   0.860   3.366  0.0455  0.3933  0.2231
20507W        W40041  14.856   3.249  12.585  0.1689 -0.1147  0.0129
20508W        W40042   1.608   3.014   3.858  0.3443 -0.1753 -0.3188
20509W        W40043  15.369  13.651   4.689  0.1247  0.0570  0.1066
20510W        W40044   0.426   3.339  15.308  0.0214 -0.1017  0.2280
20511W        W40045   9.379  15.230  13.176 -0.0104 -0.2597  0.1159
20512W        W40046   1.587  12.619  14.162 -0.0825  0.1717 -0.0611
20513W        W40047   3.033  17.038  15.052  0.0124 -0.2149  0.4099
20514W        W40048  15.197  12.538   0.219  0.1537  0.0332  0.1901
20515W        W40049  11.681   2.795  16.747 -0.2117  0.1873  0.1342
20516W        W40050   8.299  12.542  13.338  0.0968 -0.2257  0.0188
20517W        W40051   2.857  15.246  16.265 -0.2320 -0.0538  0.1819
20518W        W40052   9.155   4.042   4.214  0.2759  0.1677  0.2698
20519W        W40053  16.110   7.754  11.929  0.1963  0.1054 -0.0033
20520W        W40054   0.677   1.767  15.597  0.3122 -0.0803  0.1748
20521W        W40055  13.603   4.761  14.511 -0.0706 -0.1472  0.1412
20522W        W40056  10.174  15.870  14.273  0.0843  0.0363 -0.0082
20523W        W40057   8.214   8.282   3.633 -0.3484 -0.2840 -0.0708
20524W        W40058  10.619   9.343   2.717 -0.2085 -0.3261  0.3049
20525W        W40059   7.878  15.187   1.810 -0.2426  0.0320  0.0835
20526W        W40060   9.541   4.397   2.067  0.0565 -0.1917  0.1164
20527W        W40061   4.981   7.630  12.126 -0.1703  0.0031 -0.1785
20528W        W40062   7.435  10.437  14.007 -0.1175  0.1230  0.0358
20529W        W40063  15.052  10.227   1.321  0.3183 -0.2501  0.0819
20530W        W40064   6.213   1.391  12.854 -0.3013  0.1519  0.0404
20531W        W40065   5.824   8.706   2.962  0.0372 -0.1087  0.2669
20532W        W40066   9.487  10.808  16.008 -0.1974  0.4332 -0.0603
20533W        W40067  15.338   7.681  12.633  0.0173  0.1181 -0.0500
20534W        W40068   8.204   8.292   2.453 -0.0358  0.0363  0.0529
20535W        W40069  14.170  17.716  15.700 -0.1727  0.1714 -0.0442
20536W        W40070  13.920   5.481   4.286  0.1316 -0.1097 -0.0481
20537W        W40071   6.288   3.518  11.811 -0.1476 -0.0637  0.1068
20538W        W40072   1.761   5.575   3.951 -0.1440 -0.0196 -0.1691
20539W        W40073  10.881   1.838   0.566  0.2637  0.0188  0.0562
20540W        W40074  14.043   5.191   2.182 -0.4205 -0.1343  0.2368
20541W        W40075   5.695  16.187  15.409  0.2444 -0.2492 -0.1604
20542W        W40076   9.584   5.494   4.100 -0.0956  0.1570 -0.2960
20543W        W40077   8.437   6.158  14.327  0.1123 -0.3712 -0.1698
20544W        W40078  10.088   3.854   3.402 -0.3962  0.1055  0.0647
20545W        W40079  16.816  11.994  13.824  0.0102 -0.1014 -0.0340
20546W        W40080   3.637  15.407  14.749  0.0878  0.2374  0.1617
20547W        W40081   9.342  13.098  11.597 -0.3389 -0.1904 -0.0810
20548W        W40082  11.170   2.995   2.555  0.0225 -0.1713  0.1993
20549W        W40083   6.147   5.472   5.521 -0.3108  0.1365 -0.1342
20550W        W40084  13.294  10.710  14.458 -0.1806  0.0504 -0.1341
20551W        W40085   7.670   3.939   5.500 -0.1766  0.0446 -0.2430
20552W        W40086   5.069   8.900  13.557  0.2041  0.2575  0.0556
20553W        W40087  10.176   9.105   0.599 -0.0373 -0.0756 -0.2329
20554W        W40088   7.247  14.680  13.740 -0.1720 -0.1921  0.2396
20555W        W40089  14.413  16.144  15.152  0.1611 -0.2125  0.0207
20556W        W40090   7.154   0.225   0.601  0.1233  0.3264  0.3993
20557W        W40091   4.829  14.791  14.003  0.0879  0.3216  0.0900
20558W        W40092  10.865  10.926   3.041 -0.0682  0.1885  0.0564
20559W        W40093   2.904   6.494  10.954  0.2470 -0.1562  0.2474
20560W        W40094   0.101  14.210  16.358 -0.1534 -0.0335 -0.0913
20561W        W40095   8.199   3.421  16.654 -0.2137  0.4459  0.1861
20562W        W40096  10.930   7.587   4.852 -0.0926  0.0992  0.3823
20563W        W40097   3.156   5.803   1.659 -0.2856 -0.3583 -0.1287
20564W        W40098  17.569   5.157  13.927  0.2581 -0.3938  0.5762
20565W        W40099  16.596  14.750   4.066 -0.2934 -0.2066  0.1198
20566W        W40100  11.743  16.093   0.901  0.0893 -0.3700  0.2633
20567W        W40101  11.862  17.194   1.236  0.1726 -0.1077 -0.1013
20568W        W40102   5.974  11.186   4.272  0.0933 -0.1552  0.1864
20569W        W40103   4.311  12.336  15.991  0.0148  0.2697  0.2981
20570W        W40104   0.809   9.761  12.340 -0.0738  0.0405  0.0417
20571W        W40105   8.670  16.009  12.859  0.0613 -0.0861 -0.1625
20572W        W40106  15.420   6.874  16.356 -0.5595  0.1085  0.1161
20573W        W40107  15.377  16.724  13.033  0.0390  0.0758  0.3394
20574W        W40108   6.193   9.264   0.926  0.1725 -0.1489 -0.0154
20575W        W40109  14.870  15.742   0.188  0.0095  0.3161 -0.1351
20576W        W40110   7.565  10.821  14.780 -0.2204 -0.0684 -0.2517
20577W        W40111   6.947  14.103   3.149  0.0513  0.3223 -0.0298
20578W        W40112   6.811  17.696  16.047  0.2633  0.2868 -0.2042
20579W        W40113  13.056   9.271   0.848 -0.4218 -0.0777  0.1479
20580W        W40114   7.214   7.333   4.247  0.1412  0.1284 -0.1367
20581W        W40115  17.098   8.533  11.450  0.2064  0.1817  0.2663
20582W        W40116  10.010   8.665   0.332 -0.0728  0.1226  0.2940
20583W        W40117   5.241   8.903  12.592 -0.3543 -0.0535 -0.0948
20584W        W40118   6.514   0.846   1.091  0.0226 -0.2044 -0.0924
20585W        W40119   4.712   5.330   2.522  0.2538  0.2815  0.1353
20586W        W40120   7.076  12.879  15.250 -0.1033  0.0801 -0.0749
20587W        W40121  10.450  12.284   1.397 -0.0773  0.3618  0.2211
20588W        W40122  12.606  16.167   4.748 -0.0242 -0.0046  0.0856
20589W        W40123   9.782  11.364  14.353  0.1385  0.1837 -0.1769
20590W        W40124  10.934  16.705   1.003  0.0682 -0.2320  0.1344
20591W        W40125   0.046  17.906  14.952  0.0382  0.0395  0.0468
20592W        W40126  15.313   1.166  14.835  0.1755 -0.0300 -0.1484
20593W        W40127   3.285   0.904  14.378  0.2805  0.0028  0.1049
20594W        W40128   1.675   7.097  13.294 -0.1645  0.0613 -0.1009
20595W        W40129   2.197  12.780   4.560  0.2403  0.1773  0.0026
20596W        W40130   7.464   9.384  13.861  0.0010  0.1032  0.0770
20597W        W40131   3.929  16.943   2.707  0.1609 -0.0450  0.0323
20598W        W40132  11.049   8.108  14.148 -0.1351  0.0694 -0.1572
20599W        W40133   7.661   4.946  15.255 -0.0160 -0.2874 -0.0221
20600W        W40134   7.046   6.669   4.241  0.3836 -0.1150  0.1974
20601W        W40135   6.548  11.938   1.762 -0.0228  0.1583 -0.1725
20602W        W40136   6.906   9.958   1.798 -0.1874 -0.1770 -0.4057
20603W        W40137   1.652  11.049  13.212  0.1739 -0.1664 -0.0889
20604W        W40138   7.777   6.842  12.570  0.4636 -0.2215 -0.2105
20605W        W40139  15.935   4.858   3.599 -0.2152  0.1126  0.3286
20606W        W40140  15.763   7.916   3.975 -0.1574 -0.4542  0.4088
20607W        W40141   6.409   2.735   4.616  0.3438  0.2403 -0.0549
20608W        W40142   9.686  12.619   2.028  0.3918 -0.1043  0.1110
20609W        W40143   6.442  15.874  12.834 -0.3869 -0.1067 -0.0656
20610W        W40144   2.322   8.515   2.378 -0.0507  0.3057 -0.1694
20611W        W40145   5.460   1.488   5.522  0.0904 -0.2363 -0.2706
20612W        W40146  14.388  17.662  12.214  0.1767 -0.0753  0.0849
20613W        W40147   8.776   7.084  10.343  0.1382 -0.2288 -0.2085
20614W        W40148   2.123  14.077   5.886 -0.3194  0.1312 -0.0454
20615W        W40149   0.889  14.044   0.298  0.2656  0.2683 -0.0631
20616W        W40150   9.823  13.042   4.061 -0.4308 -0.0824 -0.0792
20617W        W40151  17.523   0.324  12.209  0.2890 -0.1512 -0.1304
20618W        W40152  15.033   9.010   2.557  0.1622  0.0333 -0.1484
20619W        W40153   8.026  11.105  14.101 -0.1388 -0.3416  0.4543
20620W        W40154  10.435   4.792  12.005 -0.0031 -0.1874 -0.1435
20621W        W40155   6.382   4.576   3.453  0.1828 -0.1296  0.1285
20622W        W40156  13.228  16.175  16.525 -0.1018 -0.0088  0.2641
20623W        W40157  14.086   0.248   2.134 -0.1209 -0.0395 -0.0825
20624W        W40158   8.074  15.440  13.743 -0.1837 -0.1443  0.0708
20625W        W40159   8.648  12.546  14.167  0.0054  0.0732 -0.0561
20626W        W40160  11.174   4.435   5.196 -0.2215 -0.0125  0.0451
20627W        W40161  15.656  10.269  13.554 -0.2067  0.0430 -0.0980
20628W        W40162  14.101  14.735  15.855  0.0542 -0.1474  0.1933
20629W        W40163   9.269   2.038   1.159  0.0984 -0.0240 -0.1470
20630W        W40164   9.159   1.875   1.630  0.0682 -0.0917 -0.1361
20631W        W40165   5.111   1.573   0.837  0.0571 -0.0402 -0.0360
20632W        W40166  10.615   9.477   1.855 -0.0526 -0.1473  0.0762
20633W        W40167   8.615  11.922  14.311 -0.0425  0.0038 -0.3931
20634W        W40168   9.673   1.839  15.432  0.0568  0.0672  0.1036
20635W        W40169   7.863   4.634  13.016  0.3861 -0.0447 -0.0972
20636W        W40170   7.944   1.009   0.757  0.2869  0.4829 -0.1272
20637W        W40171   8.326  12.094  12.364 -0.0375  0.1846  0.0755
20638W        W40172   7.576   2.810  16.330  0.0369  0.1281  0.0075
20639W        W40173   0.585   8.511   3.549  0.0360 -0.2706 -0.3201
20640W        W40174  14.990   9.919  16.407  0.0201  0.0052 -0.0419
20641W        W40175  17.834  15.974   0.109 -0.0510  0.3888 -0.1456
20642W        W40176   5.237   5.867   3.123  0.2849 -0.0453  0.2054
20643W        W40177   7.012  16.335  13.438  0.1192 -0.0553 -0.0808
20644W        W40178   9.837  13.895   0.743  0.0274 -0.1547  0.5185
20645W        W40179  16.380  17.104  15.186  0.1183  0.1072 -0.1743
20646W        W40180   2.643  15.109   1.129  0.0697  0.0070 -0.1059
20647W        W40181   8.969  14.891  15.736  0.0042  0.0903  0.0629
20648W        W40182  15.134  13.893  15.586 -0.0614 -0.2247  0.0569
20649W        W40183   3.139   7.313  15.422  0.0124  0.0545 -0.0491
20650W        W40184   4.088  15.580   2.498 -0.0982  0.2005  0.1203
20651W        W40185  14.748   4.867  15.406 -0.0330 -0.3580 -0.0708
20652W        W40186   6.074  13.128   4.921  0.0320  0.1420 -0.0653
20653W        W40187   3.890  16.412   1.470  0.1529  0.4429 -0.2099
20654W        W40188   0.896   2.272   2.776 -0.0298  0.1848 -0.3973
20655W        W40189   2.994  14.291   1.461 -0.2012  0.2230 -0.2640
20656W        W40190   9.524  12.099   3.011  0.0525  0.1574 -0.1032
20657W        W40191   1.415   0.506   1.090 -0.0938 -0.1917 -0.0068
20658W        W40192  10.130   2.659   3.383  0.3035  0.1394  0.2478
20659W        W40193  11.687  16.968   3.362  0.1005  0.4081 -0.1183
20660W        W40194   7.686   4.337  15.293 -0.0630  0.0363  0.3598
20661W        W40195   3.670  12.678   2.231 -0.0384 -0.3290  0.0540
20662W        W40196   7.566   0.687  12.012  0.2812  0.1187 -0.1266
20663W        W40197   5.846  12.574   1.019  0.0161  0.1786  0.0905
20664W        W40198   9.166  13.501   0.059  0.0386 -0.0523  0.1914
20665W        W40199   5.963  13.024  14.563 -0.0035 -0.0011 -0.2571
20666W        W40200  15.290   7.136  13.391  0.1293 -0.2465  0.2460
20667W        W40201   9.738  10.420  15.785  0.0963 -0.2299  0.2242
20668W        W40202  12.528  15.429   1.672  0.1965  0.0240 -0.2307
20669W        W40203  12.003  17.642  16.716 -0.1853  0.0096 -0.3440
20670W        W40204  14.646   3.410   4.441  0.2152  0.1848 -0.1547
20671W        W40205   0.179   7.742  16.704 -0.1642 -0.0672  0.0676
20672W        W40206   5.956   2.001  14.875  0.3942 -0.0441 -0.1364
20673W        W40207   1.424   2.792  13.476 -0.0956 -0.1149 -0.1515
20674W        W40208  10.462   4.835  13.586  0.0255 -0.2745  0.0876
20675W        W40209   5.350   2.438   4.303  0.3633 -0.0026  0.0809
20676W        W40210  12.988   1.892  14.417  0.3143 -0.0748  0.0275
20677W        W40211  10.815   3.590  16.121  0.2894 -0.2289  0.1032
20678W        W40212   2.535   1.577  13.225 -0.0239 -0.1835 -0.2076
20679W        W40213  10.768  16.672   3.355 -0.1012 -0.1959 -0.0858
20680W        W40214  13.618   0.529   4.529 -0.1298 -0.1945 -0.2655
20681W        W40215   4.427   2.312   0.515 -0.0387 -0.1132  0.1676
20682W        W40216  10.953   4.437  12.417 -0.1787  0.3810  0.0409
20683W        W40217  13.548   0.226   2.179  0.1739 -0.1497 -0.2970
20684W        W40218   0.182  14.187   3.198 -0.0701 -0.0096  0.2505
20685W        W40219  16.244   1.335   2.379 -0.0599  0.2005 -0.2310
20686W        W40220   4.115  15.026   4.735 -0.2169  0.0984  0.2546
20687W        W40221  16.481   2.182   1.023  0.1923  0.0460 -0.2836
20688W        W40222  10.241   3.463  12.796 -0.2642  0.1291  0.1748
20689W        W40223  11.342  14.766  15.093 -0.2657 -0.0918  0.0318
20690W        W40224   0.980  13.773  12.407  0.0018  0.0908 -0.1998
20691W        W40225  14.656  14.049  15.558  0.1459 -0.0685  0.1846
20692W        W40226  15.865  15.246   2.186  0.1118 -0.2710 -0.1856
20693W        W40227   3.554   4.878  14.935 -0.0798  0.2019 -0.0305
20694W        W40228  14.933   6.096  16.460  0.0488 -0.0046 -0.1358
20695W        W40229   6.127  12.239  14.295 -0.3437  0.1342  0.0244
20696W        W40230   8.636  13.532  12.497  0.0828  0.2544  0.2714
20697W        W40231   0.787   1.946  12.771  0.1028  0.1060 -0.4261
20698W        W40232   4.914  15.372  12.412 -0.0712 -0.1585  0.2504
20699W        W40233  12.451   1.848  12.042  0.2505 -0.5591 -0.1821
20700W        W40234   6.879  12.134  14.785  0.0925  0.0388 -0.1808
20701W        W40235   6.328   0.331  14.818 -0.1699  0.1709  0.2949
20702W        W40236   2.652   8.935  12.247  0.3330  0.0392 -0.0115
20703W        W40237  16.451   4.145  12.973 -0.0574 -0.1262 -0.1310
20704W        W40238   1.522  10.360  14.052  0.2348  0.3064 -0.0042
20705W        W40239   0.301   2.361   0.201  0.0399  0.0857 -0.1173
20706W        W40240   5.771   7.426   1.975 -0.1617 -0.2207  0.0087
20707W        W40241   8.749   2.580   6.080 -0.0188  0.0867 -0.2306
20708W        W40242   0.192  17.849   1.542  0.1948  0.1832  0.2770
20709W        W40243   9.410   4.187   2.491 -0.0808  0.2420 -0.0321
20710W        W40244   7.360  16.421   0.376 -0.2671 -0.1300 -0.4384
20711W        W40245   4.730  11.687  16.539 -0.0520  0.1897 -0.2426
20712W        W40246  16.457  11.861  15.463 -0.1312  0.0845 -0.2383
20713W        W40247   3.487  11.333  14.812  0.0601  0.1187 -0.1305
20714W        W40248   2.981  14.687  12.346 -0.1025  0.0977  0.0835
20715W        W40249   7.416   9.252   0.213 -0.0689 -0.1185 -0.3332
20716W        W40250   7.569   4.270  16.510 -0.3016  0.0876 -0.0844
20717W        W40251  11.902   7.823  15.682  0.0186  0.4997 -0.6293
20718W        W40252   8.804  13.164   4.285  0.0191  0.2065  0.0875
20719W        W40253  17.349   1.754  15.787  0.0561  0.1398 -0.0979
20720W        W40254  13.461  14.373   1.026 -0.2344  0.1230  0.0472
20721W        W40255   8.909   7.931  11.795  0.0789  0.3561  0.3211
20722W        W40256   4.643  16.703   1.897  0.0592  0.1169  0.1915
20723W        W40257  12.863   0.620   2.602 -0.2660  0.0677 -0.4430
20724W        W40258   3.464   1.010   4.285  0.2468  0.1054 -0.1802
20725W        W40259  16.089  16.122   1.297 -0.0865  0.5994 -0.1014
20726W        W40260  12.901   1.618  16.357 -0.0013 -0.2205  0.1063
20727W        W40261   2.603   1.409  12.318  0.1538  0.0220 -0.2654
20728W        W40262  10.472  15.842  13.468  0.2090 -0.1470 -0.1058
20729W        W40263  16.310  11.647  12.896  0.0635 -0.1511 -0.0450
20730W        W40264  15.585  15.122   3.319 -0.0988 -0.3230 -0.4057
20731W        W40265  13.735   1.224   0.180 -0.1251  0.2834 -0.1270
20732W        W40266   0.715   3.390  12.654  0.0362  0.2422 -0.0592
20733W        W40267   2.922   1.746   1.010 -0.1237  0.0142 -0.0745
20734W        W40268   0.480  16.465  16.029  0.0706  0.0780  0.0414
20735W        W40269   0.676  14.453  13.499  0.1693 -0.3512  0.3563
20736W        W40270  11.425  10.868   0.600  0.1447  0.1424  0.1898
20737W        W40271   1.588  17.314   4.213 -0.3196 -0.1234  0.0093
20738W        W40272   6.348   5.211  16.607  0.0462 -0.0126 -0.1454
20739W        W40273  11.207  11.173  13.227  0.3077 -0.0742  0.1896
20740W        W40274  15.627  10.984   4.241  0.1481  0.0210 -0.0584
20741W        W40275  10.626   8.382  14.543 -0.0664  0.0824  0.1314
20742W        W40276  11.603   3.766   3.667 -0.2685  0.1931 -0.2677
20743W        W40277  12.076   9.937   0.005  0.1752  0.0483 -0.3790
20744W        W40278  10.682  12.433  12.237  0.1429  0.1945 -0.0883
20745W        W40279   2.254  12.181  16.197  0.0988 -0.1482  0.1009
20746W        W40280   0.260   8.267   1.216  0.1504 -0.0755 -0.1708
20747W        W40281   1.282   6.575  16.741  0.2265  0.0900  0.0158
20748W        W40282  15.544  13.112   1.560 -0.0419 -0.0277 -0.0430
20749W        W40283   1.877   8.409  13.970 -0.0504  0.1392 -0.0659
20750W        W40284  10.486  10.082  12.909 -0.0322  0.0162 -0.0927
20751W        W40285  13.993   9.200  13.241  0.0846 -0.0732 -0.2255
20752W        W40286   9.724  15.896  16.364  0.3181 -0.0100 -0.1635
20753W        W40287   4.958   8.944  15.502 -0.2135  0.3191 -0.1117
20754W        W40288   8.707  13.348  15.909 -0.0453  0.3592 -0.0478
20755W        W40289   7.437  14.549   5.089  0.1748 -0.1275 -0.0815
20756W        W40290   6.080  16.164   5.082 -0.1389  0.2270 -0.2553
20757W        W40291   8.047   0.944   3.101 -0.1491 -0.2729 -0.1753
20758W        W40292   9.694   2.438  15.599  0.0842  0.2960 -0.0285
20759W        W40293  16.018  13.191   3.173 -0.2173 -0.1468  0.0779
20760W        W40294   1.002  12.452  12.867  0.0274  0.1042  0.0335
20761W        W40295  10.017   4.957   2.661 -0.1192 -0.1393 -0.1507
20762W        W40296   8.291   6.015   2.020  0.0423  0.3029  0.1261
20763W        W40297   5.532   4.898  14.660 -0.0124 -0.4686  0.0455
20764W        W40298  17.735   4.820  14.689  0.3523  0.1557 -0.3500
20765W        W40299   2.880  15.783   1.959 -0.3156 -0.1555  0.0724
20766W        W40300  12.970   3.300  13.335 -0.3390  0.0501 -0.4639
20767W        W40301  15.228  15.210  15.176 -0.0830  0.2196 -0.3210
20768W        W40302   9.201  13.518  14.494 -0.0134  0.1738  0.2971
20769W        W40303   4.007  17.566   4.304  0.2718  0.1881  0.3616
20770W        W40304  10.237  16.723   2.662  0.3262  0.2500  0.2976
20771W        W40305  12.721   5.817   1.554 -0.5121 -0.2986  0.0628
20772W        W40306   4.601   5.119   5.534  0.0106 -0.0113 -0.1006
20773W        W40307  10.986  12.683   3.745  0.0531 -0.0950 -0.1631
20774W        W40308   6.513  16.280  13.198  0.4040 -0.3509 -0.4529
20775W        W40309  14.105   6.950   4.153 -0.4850 -0.3192 -0.2995
20776W        W40310  16.906  11.586  16.269 -0.1778 -0.0238 -0.4064
20777W        W40311   1.232  11.373   4.039 -0.0676  0.1137 -0.0675
20778W        W40312  17.663  10.073  14.388  0.0668 -0.2563 -0.1287
20779W        W40313  15.300   0.762   0.722 -0.1667 -0.0822  0.1909
20780W        W40314   3.537  14.466  14.190  0.1587  0.2006  0.1574
20781W        W40315  13.699  17.065  12.029 -0.1760 -0.0928  0.0720
20782W        W40316   0.260   3.393   4.353  0.0287 -0.0714 -0.2186
20783W        W40317   6.813   3.812   5.092  0.0203  0.1105  0.0689
20784W        W40318   5.325   7.943  12.282  0.1417  0.0426  0.1983
20785W        W40319  12.750  16.078   2.243  0.2611 -0.0216 -0.0133
20786W        W40320   8.810  13.308  13.537  0.0837 -0.1649  0.1967
20787W        W40321  16.686  10.073  14.032 -0.0122  0.2475 -0.1957
20788W        W40322   5.889   6.960   1.354 -0.1666  0.0536  0.2085
20789W        W40323  14.841  13.991  13.415  0.2355 -0.5657  0.4924
20790W        W40324   1.395   1.536  14.482 -0.2139  0.1338 -0.0834
20791W        W40325   8.351   1.827   4.770  0.1320  0.1826 -0.2046
20792W        W40326  14.907   8.536   3.470 -0.0107 -0.0006  0.4500
20793W        W40327  12.658  11.017  16.159  0.1417  0.1728 -0.2346
20794W        W40328  10.418   4.942   4.307  0.2410  0.0764 -0.0663
20795W        W40329  12.053  10.928   3.344 -0.1069  0.0119  0.4085
20796W        W40330   4.226   9.524  16.068 -0.0344  0.1746  0.1773
20797W        W40331   5.629   1.341  16.261  0.3974 -0.1387  0.0777
20798W        W40332  11.984  15.661  16.020 -0.0066 -0.0216 -0.1815
20799W        W40333   3.823  16.891  11.128  0.3034  0.2380 -0.2277
20800W        W40334  15.437   2.188   2.079 -0.3515 -0.0120 -0.0088
20801W        W40335   5.581   4.152  15.947  0.3196 -0.1590 -0.3703
20802W        W40336   0.756  15.848   1.801 -0.0944 -0.1728 -0.2433
20803W        W40337  16.785  15.865  16.065  0.1472  0.1159 -0.0488
20804W        W40338  13.925  15.290  12.207  0.0600  0.2157  0.0289
20805W        W40339   3.395  11.309  13.253  0.0324 -0.0478  0.1195
20806W        W40340   0.663  14.946   5.560 -0.0022 -0.0731  0.1361
20807W        W40341  13.701  16.221  14.562  0.0443 -0.5202 -0.1552
20808W        W40342   8.303  14.096  16.715  0.0585 -0.1270  0.2425
20809W        W40343   6.770   7.028   2.496  0.0498 -0.1754  0.0438
20810W        W40344   0.119   1.949  13.368  0.3298  0.2509  0.0348
20811W        W40345   9.830  15.728   0.168  0.0208  0.0022 -0.1035
20812W        W40346   2.824  13.344   1.369  0.1700  0.1757  0.0816
20813W        W40347   9.224  12.514  12.315  0.0212  0.1518 -0.0094
20814W        W40348   8.259   9.174  12.165  0.0860  0.0589 -0.2051
20815W        W40349  16.967  10.454   0.147 -0.0799  0.0528  0.0554
20816W        W40350   2.219   7.064   4.405  0.1896  0.1395  0.2388
20817W        W40351  14.760   9.791   4.249 -0.0538  0.1890 -0.0175
20818W        W40352   8.708   0.587  15.189  0.0783  0.1137  0.0564
20819W        W40353   5.283   2.652   0.756 -0.1943  0.1559 -0.0034
20820W        W40354   7.915  11.702   4.339  0.1339  0.1419  0.3379
20821W        W40355   6.317  12.704  12.791  0.0041 -0.0437 -0.3077
20822W        W40356  10.381   8.440  15.947  0.0304  0.1815  0.1790
20823W        W40357   2.011   6.557   3.288 -0.0707 -0.0394  0.3800
20824W        W40358   7.605   2.929  13.475 -0.1086 -0.1226  0.1758
20825W        W40359  11.207   5.463   2.475  0.4489 -0.2241  0.0268
20826W        W40360   7.887  14.183  13.353  0.0137 -0.1616  0.2634
20827W        W40361   0.317  13.796   3.533  0.1280 -0.1096  0.0453
20828W        W40362  14.095  17.108  13.620  0.0155  0.4147  0.1569
20829W        W40363   1.536  16.356   2.309  0.2486 -0.0871 -0.0842
20830W        W40364   0.262   0.484  12.830 -0.1922 -0.1993 -0.2936
20831W        W40365  12.118   9.493  12.853  0.2120 -0.3381 -0.1574
20832W        W40366   1.076   9.431  14.405 -0.3844  0.1771 -0.0413
20833W        W40367   4.918   3.346  13.961 -0.1896 -0.2005  0.1654
20834W        W40368   1.540  11.064  15.711  0.1581  0.0294 -0.3067
20835W        W40369  14.114  17.470   3.185  0.0136  0.0310  0.0722
20836W        W40370   8.012  10.901   3.629 -0.2200  0.0702  0.0566
20837W        W40371   4.841   5.163  13.782  0.2032 -0.1376  0.1560
20838W        W40372   1.106  15.739   2.345  0.0512 -0.0379 -0.1340
20839W        W40373  11.284  16.070  15.607 -0.2446  0.2376  0.0656
20840W        W40374   2.701  10.551   0.612 -0.0395 -0.2483  0.2483
20841W        W40375  12.311   4.659   4.456  0.1862  0.3596  0.1976
20842W        W40376  12.417   5.685  11.158 -0.2124  0.1180  0.0735
20843W        W40377  16.434  11.755  14.205  0.0508  0.0437 -0.1947
20844W        W40378  14.981  10.074  14.433  0.0665  0.2308 -0.0161
20845W        W40379  12.980  11.851   4.684  0.1437 -0.5990  0.0044
20846W        W40380   3.819   4.570   3.162 -0.2899 -0.0518 -0.1649
20847W        W40381  11.255   3.701  15.967  0.0304 -0.0400 -0.0448
20848W        W40382   8.103  16.173  13.827  0.1208  0.2844  0.0166
20849W        W40383  14.587   4.344  15.836  0.0292 -0.0137  0.2305
20850W        W40384  15.208   3.885   0.515  0.1189  0.0664 -0.1254
20851W        W40385   8.727  11.997   1.164  0.0278 -0.0913 -0.1645
20852W        W40386   0.910   3.424  14.501  0.0936 -0.3805  0.3691
20853W        W40387  17.205   0.028   1.828 -0.1447 -0.2326  0.2111
20854W        W40388  16.532  14.293   1.531  0.0888  0.1663 -0.1009
20855W        W40389  14.509   4.191  14.730 -0.1329  0.2655 -0.1569
20856W        W40390   2.776   2.590   3.790 -0.0801 -0.4448  0.2498
20857W        W40391   0.594   7.851  16.376  0.1503 -0.3169 -0.3160
20858W        W40392   4.755  16.608   0.961  0.2755 -0.3053 -0.1439
20859W        W40393   3.150   5.473   3.483  0.0474 -0.1393  0.2825
20860W        W40394  15.758   8.508   2.779  0.0804  0.1871  0.0591
20861W        W40395   3.145  17.775   3.428  0.2013 -0.0738 -0.0332
20862W        W40396   1.259   2.252  13.739  0.0447  0.1228 -0.1018
20863W        W40397  16.999  12.108   2.188  0.2653  0.0145 -0.0857
20864W        W40398  13.086   0.629   1.198 -0.1403  0.0291 -0.1106
20865W        W40399   2.408  10.824   1.726  0.0582  0.1917  0.1186
20866W        W40400   0.688  17.597   1.244 -0.2821 -0.0144 -0.3174
20867W        W40401   7.609  12.406   4.507 -0.0678 -0.2332 -0.1662
20868W        W40402  10.022   7.222   3.267 -0.0799  0.0469  0.1634
20869W        W40403  14.197  16.514  13.746 -0.1850  0.1766 -0.0730
20870W        W40404   7.477  12.385   0.560 -0.1982 -0.0124  0.1231
20871W        W40405  12.640   8.193  13.253 -0.1295  0.1437  0.1642
20872W        W40406  15.198   7.031   2.299  0.1385 -0.1507 -0.2419
20873W        W40407  17.467  13.737  12.222  0.1334  0.2176 -0.0927
20874W        W40408  12.839   4.754   0.860  0.2719  0.5681  0.0967
20875W        W40409   5.116   7.778   0.415 -0.1162 -0.1302  0.1103
20876W        W40410  10.429   0.818  12.364  0.0996 -0.1527  0.1792
20877W        W40411   3.459  16.880   0.880 -0.1009 -0.2258  0.0753
20878W        W40412   3.977   2.414   1.284 -0.0435  0.1546  0.1029
20879W        W40413   0.592  10.056   2.456 -0.1964  0.2136 -0.1409
20880W        W40414   2.368   1.180  14.626  0.1988 -0.0558 -0.1606
20881W        W40415  13.550   7.621   2.807  0.1965  0.1847  0.3510
20882W        W40416   5.942   1.018  16.457  0.0927  0.3286 -0.0386
20883W        W40417  11.238   3.127   1.710 -0.0937  0.0521 -0.0176
20884W        W40418   8.590  10.466  15.506 -0.1439 -0.0227 -0.0760
20885W        W40419   2.218   0.569   2.610 -0.0345 -0.1382  0.3266
20886W        W40420  14.978   9.601  16.006 -0.0879  0.1466 -0.1874
20887W        W40421  17.622  16.305  15.150  0.0803 -0.4772 -0.4285
20888W        W40422  11.813   2.156   2.557  0.2196 -0.1611  0.2021
20889W        W40423   3.415   0.903   4.943 -0.0517 -0.0325 -0.1856
20890W        W40424  14.224   2.273   0.287  0.1739 -0.3325 -0.0553
20891W        W40425  17.607  17.879  13.745  0.3139  0.0882 -0.2697
20892W        W40426   0.867  11.172   4.353  0.0761 -0.1702 -0.0977
20893W        W40427   8.630  15.168  12.511 -0.0135  0.1286  0.1800
20894W        W40428  15.412   4.320  15.507  0.0103 -0.2155  0.0062
20895W        W40429   3.040  15.187  14.182  0.0461 -0.1034  0.3101
20896W        W40430  15.632   2.708   1.501  0.2437  0.1672  0.2307
20897W        W40431  17.071   7.149   1.869 -0.1090  0.1859 -0.2165
20898W        W40432  14.437  11.162   1.492  0.3530 -0.1274 -0.0666
20899W        W40433   6.949  13.182  13.788  0.3528 -0.0075 -0.2001
20900W        W40434  11.656   8.134   2.023 -0.0666  0.2464 -0.0979
20901W        W40435   9.178   7.198  16.025 -0.1338  0.3721  0.2458
20902W        W40436  17.002   5.969  15.782 -0.0305  0.2716  0.0802
20903W        W40437  13.681  15.665   2.079 -0.1363 -0.0806  0.0849
20904W        W40438   6.998   5.340  15.950 -0.0011  0.2624  0.0786
20905W        W40439   9.795   9.398   3.109 -0.0698 -0.2818 -0.3023
20906W        W40440   3.533  14.759  13.851  0.2456 -0.2479  0.0758
20907W        W40441   8.822  12.257   0.403  0.0053 -0.0190  0.1926
20908W        W40442  10.353   4.446   0.377  0.1816  0.3878  0.1002
20909W        W40443   7.192  14.762  15.736 -0.1303 -0.0451 -0.2178
20910W        W40444   4.283   4.356  10.732  0.0125  0.3918  0.4011
20911W        W40445  13.044  11.394  16.684 -0.0292 -0.1894  0.1084
20912W        W40446  17.541   8.548   4.330  0.1448 -0.0741 -0.2967
20913W        W40447   3.265  15.437   4.823 -0.2615 -0.0627  0.1396
20914W        W40448  12.766   9.216  11.938 -0.2193 -0.3129  0.2447
20915W        W40449   7.684  14.915  16.143  0.3613 -0.4130  0.0595
20916W        W40450  13.874   6.570  16.379 -0.1201  0.0753  0.3302
20917W        W40451   4.627   4.705  14.487  0.0311  0.0034  0.0039
20918W        W40452  14.644   9.706  12.017  0.4322 -0.2134 -0.3183
20919W        W40453  10.550  10.473  13.781  0.0058  0.0271  0.0816
20920W        W40454   4.214   1.129  16.038  0.1616  0.0061  0.2588
20921W        W40455   3.281   4.894   1.028 -0.1413  0.3693 -0.3592
20922W        W40456  15.055   1.755  15.712 -0.3509  0.2300 -0.2122
20923W        W40457  11.506  16.699   0.640 -0.2805 -0.0881  0.0471
20924W        W40458  14.563   2.469   0.582 -0.1223  0.1774  0.2441
20925W        W40459   4.763   9.837   4.832  0.1563 -0.2035 -0.1421
20926W        W40460  11.548   8.904   3.095  0.1007  0.2015 -0.1053
20927W        W40461   5.099  10.444  15.337 -0.1021  0.0983 -0.2290
20928W        W40462   2.615   0.964  12.530  0.1171  0.4254 -0.2913
20929W        W40463   3.709  13.358   0.808  0.3754  0.3163 -0.0055
20930W        W40464   8.248   4.310  15.361 -0.1723 -0.0144 -0.0474
20931W        W40465   7.207   4.291  15.522  0.0643  0.1084  0.1172
20932W        W40466   7.802   3.543   5.184 -0.1909 -0.3732 -0.0549
20933W        W40467   6.380   5.233   4.280 -0.1300 -0.1675  0.0444
20934W        W40468  13.128   3.651  12.173 -0.3145  0.0841  0.0339
20935W        W40469   2.349   0.712  13.741  0.0294  0.1365 -0.0988
20936W        W40470   1.892   0.206   0.062 -0.4074  0.0050 -0.1337
20937W        W40471  13.216   1.232   4.515  0.2194 -0.2036 -0.0287
20938W        W40472  16.061   9.327   4.466  0.2989  0.1675 -0.1118
20939W        W40473  13.784   8.627  12.371  0.0947 -0.1480  0.1698
20940W        W40474  10.625   9.785   0.729  0.0326  0.0406  0.0771
20941W        W40475   0.663   7.814   1.989 -0.0840  0.0501 -0.0009
20942W        W40476  12.086   4.222  16.263 -0.2780 -0.0009  0.0292
20943W        W40477   7.335  12.910  13.857  0.1940 -0.0535 -0.2988
20944W        W40478   3.165  11.297   0.888  0.0403 -0.1443 -0.0130
20945W        W40479   5.401  10.347   3.243  0.0370 -0.1372  0.0546
20946W        W40480  10.528   9.767  12.279 -0.0482  0.1225 -0.3962
20947W        W40481  11.849   4.449  14.780 -0.0854 -0.0380  0.0762
20948W        W40482  11.871  16.485   4.599 -0.0393  0.2069  0.0446
20949W        W40483   6.174  17.025   0.857 -0.1110 -0.0449  0.2549
20950W        W40484   2.489   3.039   4.634  0.0444  0.1777  0.0211
20951W        W40485   8.333   7.496  13.046  0.0265 -0.0931  0.0366
20952W        W40486  17.201  14.381  13.657 -0.4064  0.0472 -0.2154
20953W        W40487   7.907  12.498  15.775  0.0939 -0.1315 -0.0654
20954W        W40488  12.726   8.803   4.506 -0.1048 -0.4790  0.1835
20955W        W40489  12.353   8.233   0.467  0.0944 -0.1128 -0.0431
20956W        W40490   6.133  16.160   1.689 -0.2172  0.3205  0.2188
20957W        W40491  11.316  14.685   3.993 -0.3167  0.0001  0.5926
20958W        W40492   2.376   3.636   1.612 -0.0042 -0.0572 -0.0522
20959W        W40493  15.087   6.174  15.581 -0.1027  0.2694  0.1553
20960W        W40494  13.575   8.001  13.782 -0.2793  0.1182 -0.2084
20961W        W40495   6.502   3.831  12.463 -0.2134 -0.0986 -0.2996
20962W        W40496   7.566  11.393   0.234  0.0082 -0.2833  0.3932
20963W        W40497   5.732   1.246  13.629 -0.1546 -0.2718  0.1578
20964W        W40498   5.612  13.217  15.207  0.0915  0.1844 -0.1626
20965W        W40499  11.179   9.828  14.236  0.2794  0.2650  0.1155
20966W        W40500   2.441   0.681   3.476  0.0436 -0.0875 -0.1335
20967W        W40501  15.381   0.309  12.752 -0.1161  0.1434 -0.3180
20968W        W40502  15.374   5.029   1.350 -0.1440  0.0725  0.4348
20969W        W40503   5.754   6.174  12.701 -0.1866 -0.1243 -0.2422
20970W        W40504   7.683   8.366  15.395 -0.3081  0.1953 -0.0673
20971W        W40505   7.637   8.213  13.161  0.1976 -0.0510 -0.0745
20972W        W40506  15.980   1.310  12.078  0.0118 -0.2184 -0.0387
20973W        W40507  17.745   3.731   0.429  0.4673  0.0730 -0.0989
20974W        W40508  13.768   6.923  14.435 -0.2016 -0.1983  0.0372
20975W        W40509  12.644   8.561  14.511  0.0466  0.0588 -0.1116
20976W        W40510   1.708  10.288   0.529  0.0941  0.0881 -0.0238
20977W        W40511   6.286  17.373  12.157 -0.2578  0.1661  0.0363
20978W        W40512   2.973   2.382  14.414  0.0933 -0.1386 -0.1376
20979W        W40513   1.104   2.454   3.669 -0.0147  0.0167 -0.1532
20980W        W40514   1.389  15.159  15.384  0.4750 -0.2938 -0.0796
20981W        W40515   7.660  14.234  12.913  0.0082  0.0609  0.0557
20982W        W40516   6.304   8.979   3.616  0.0757  0.1741  0.3050
20983W        W40517  14.570   7.352   3.038  0.1531  0.1639  0.0162
20984W        W40518  11.644  17.571   2.477  0.1159 -0.3249  0.2650
20985W        W40519  14.019   0.695   4.268 -0.0482  0.0783 -0.0789
20986W        W40520  17.468  17.573   0.437  0.0581  0.3136  0.0159
20987W        W40521  16.854  10.359  12.840  0.0742 -0.3009  0.0655
20988W        W40522   5.643   3.058  12.582 -0.2291 -0.0157 -0.1925
20989W        W40523   7.048   7.151   5.185 -0.1313 -0.1424  0.0695
20990W        W40524   4.492  11.444  13.389 -0.1898 -0.2863  0.4290
20991W        W40525   9.270   8.853  13.501  0.0543 -0.1132  0.1651
20992W        W40526   7.598   5.802  16.655  0.1660  0.1934 -0.4504
20993W        W40527   3.342   1.658  13.650  0.0023 -0.1135 -0.0401
20994W        W40528  15.189   6.199   0.651 -0.0181 -0.0515  0.0251
20995W        W40529  15.372   2.104  15.482 -0.1936 -0.2149 -0.0546
20996W        W40530  13.525   3.684   2.735  0.0820 -0.1632  0.1331
20997W        W40531   2.652   0.121  13.705  0.0145  0.1045 -0.0582
20998W        W40532   2.455   4.448   3.220 -0.0883  0.1381 -0.1151
20999W        W40533  10.298  14.847  15.607 -0.2549  0.1051 -0.0063
21000W        W40534  12.366   3.115  11.858 -0.1316  0.3252 -0.1449
21001W        W40535  17.661   2.888  16.710 -0.0436 -0.1905  0.3565
21002W        W40536  15.058   0.749  12.177  0.3230 -0.0295  0.2453
21003W        W40537   2.452  14.661   4.578 -0.2627  0.1440  0.0623
21004W        W40538  14.953   7.508   2.410 -0.0877 -0.0766 -0.1571
21005W        W40539   3.839  17.209  16.665  0.2165 -0.1263 -0.0850
21006W        W40540   4.701   6.421   0.384  0.1168  0.0948  0.1371
21007W        W40541   5.934   3.546   4.663 -0.1645  0.0585 -0.0406
21008W        W40542  16.236   8.870   1.017  0.0617  0.0363 -0.0858
21009W        W40543  11.818   6.989  14.408  0.2287 -0.2161  0.1232
21010W        W40544   5.603   3.941  13.690 -0.0302 -0.0707 -0.3688
21011W        W40545   1.931   6.200   2.750  0.2426  0.0321 -0.3793
21012W        W40546  14.867   1.558   0.856  0.0050  0.1248 -0.2313
21013W        W40547   3.625   9.452   3.231  0.0547 -0.4219  0.2006
21014W        W40548   3.588  14.216   0.191  0.0753 -0.1919  0.0922
21015W        W40549   6.549  17.890  14.578 -0.3011  0.0927  0.1659
21016W        W40550  14.056   3.008   3.402 -0.4240  0.2459 -0.0870
21017W        W40551   9.621   9.585   0.197  0.4045  0.1093 -0.2608
21018W        W40552   1.206  10.796  14.983 -0.4959  0.1187 -0.0585
21019W        W40553  16.772  16.331  15.806 -0.1211 -0.2149 -0.0289
21020W        W40554  12.191   6.819   1.386 -0.1890  0.2684  0.1016
21021W        W40555   1.850  10.722  12.652 -0.1600 -0.0666 -0.0482
21022W        W40556   2.411   4.455  13.448  0.0581  0.0444  0.1630
21023W        W40557   0.098   1.648   0.654 -0.1750  0.1607 -0.1173
21024W        W40558   8.644  17.331  13.604 -0.0183  0.0970  0.0278
21025W        W40559  13.515   5.836   4.391  0.0804 -0.2961 -0.0299
21026W        W40560   2.004   2.538  13.151 -0.0251  0.1953  0.0597
21027W        W40561  15.918  12.552   4.126  0.1750  0.2098  0.0957
21028W        W40562  17.682  16.618  16.134 -0.1002 -0.0711  0.1680
21029W        W40563   6.543  16.536   3.380  0.2768  0.0210 -0.4159
21030W        W40564   4.216   8.044   0.025  0.0082 -0.2809  0.3475
21031W        W40565  17.755  13.651   2.584 -0.1425 -0.0524 -0.1454
21032W        W40566   8.806   3.850  12.956 -0.0751 -0.0997  0.2037
21033W        W40567  11.909   6.333  15.479  0.0294 -0.1574  0.0701
21034W        W40568  17.732  17.437   1.147  0.1195  0.2297 -0.0650
21035W        W40569  15.195   3.087   1.673  0.1024  0.2704 -0.0661
21036W        W40570   8.515   2.526  16.249  0.0508 -0.1484  0.0984
21037W        W40571  13.783  11.418  15.560  0.0784  0.1918 -0.1661
21038W        W40572   5.135   8.559  14.652 -0.3332  0.1542  0.3397
21039W        W40573   3.893  12.582  13.395  0.1585 -0.2757 -0.1202
21040W        W40574   0.761  10.805   1.355 -0.5595 -0.2342 -0.3904
21041W        W40575   6.626  10.462   0.240 -0.3110 -0.0624 -0.1786
21042W        W40576   6.131   7.870   1.215  0.2337  0.0720  0.0653
21043W        W40577  10.564  10.716  12.769 -0.0957 -0.1861  0.1609
21044W        W40578   2.545   6.974   1.989 -0.1930  0.1595  0.0399
21045W        W40579   9.402  16.655   2.745  0.3004  0.1876 -0.1021
21046W        W40580   9.608   5.241  14.426 -0.1074 -0.0516 -0.1048
21047W        W40581   2.432   2.114  16.662 -0.2405  0.0617 -0.2291
21048W        W40582   1.894   3.244  14.183  0.0901 -0.0405 -0.2136
21049W        W40583  17.569  15.574   3.971  0.2049  0.0950  0.2175
21050W        W40584  12.240   1.646   4.082 -0.0937 -0.0886  0.1442
21051W        W40585  16.595   3.383  12.783  0.1256  0.0078 -0.0456
21052W        W40586  12.868   0.563  14.217 -0.1157 -0.2271 -0.2048
21053W        W40587  10.797   8.285  15.024 -0.3853  0.2405  0.3715
21054W        W40588  10.063   9.203  12.380 -0.0458  0.3130 -0.3287
21055W        W40589   6.350   5.645  14.928  0.3043  0.0775 -0.0620
21056W        W40590  17.138  10.743  12.046 -0.2825 -0.2470 -0.0586
21057W        W40591   8.224   5.070   0.589  0.0576  0.0085  0.0700
21058W        W40592   0.303   8.547  12.765 -0.2224 -0.0504  0.0343
21059W        W40593   9.015   2.588   3.998 -0.2931 -0.2233 -0.0456
21060W        W40594  13.729   2.568   3.023 -0.0557 -0.2228 -0.0718
21061W        W40595   0.540  17.422   3.156  0.2162  0.2147 -0.0407
21062W        W40596  12.500  12.187   5.660  0.0982 -0.0424 -0.2381
21063W        W40597   6.118   7.887   3.417 -0.0499  0.0441  0.0570
21064W        W40598   0.149   2.017   3.926 -0.1522  0.0369 -0.2134
21065W        W40599   4.768   9.442  13.360  0.1497  0.3396  0.1033
21066W        W40600  12.752  17.584   2.179 -0.0455 -0.3192  0.0971
21067W        W40601   4.927   2.978   3.528  0.1112  0.2415 -0.2141
21068W        W40602  17.637  16.533  16.642 -0.0465 -0.1150 -0.2671
21069W        W40603   3.570  15.572  12.475  0.1519  0.2201  0.0768
21070W        W40604   9.134   9.620   3.569 -0.2920 -0.0506 -0.3793
21071W        W40605  13.280  14.519  15.889 -0.1323  0.1401  0.1961
21072W        W40606  13.240  14.959   1.535 -0.0120  0.0883 -0.0070
21073W        W40607   2.218  15.325  14.167 -0.2098 -0.1648  0.0946
21074W        W40608   8.619   4.760   4.091  0.0294 -0.0034 -0.3052
21075W        W40609   6.500   8.843  14.358  0.0179  0.1127  0.1766
21076W        W40610  16.262  16.183   3.822 -0.0812  0.1517 -0.3609
21077W        W40611   2.236  10.175   0.747  0.0042  0.0120  0.0865
21078W        W40612  11.876   5.730   1.721 -0.2157  0.0779  0.3629
21079W        W40613   0.707   1.812   2.886 -0.1380  0.2809  0.0713
21080W        W40614   9.283   6.563  14.746  0.0179 -0.1955 -0.0101
21081W        W40615  12.166  12.526   4.480  0.2105 -0.1016  0.0739
21082W        W40616  15.165  13.925   2.788 -0.0456  0.1863 -0.1914
21083W        W40617  17.710  17.468   4.050 -0.0885  0.1423  0.1953
21084W        W40618   4.252  16.549  12.957  0.2582 -0.0246 -0.1399
21085W        W40619  16.099   5.537   0.114  0.2372  0.0956  0.3426
21086W        W40620   7.911  17.665  13.201  0.0229 -0.1926 -0.4768
21087W        W40621   9.770   4.598   2.465  0.2937 -0.0326  0.1231
21088W        W40622   4.745  14.146  12.507 -0.3165 -0.1926 -0.0465
21089W        W40623  11.602   5.830   2.613  0.0081 -0.1108  0.4246
21090W        W40624   3.622  13.112   2.677  0.0263 -0.1363  0.1202
21091W        W40625  11.356   3.971   4.814 -0.3512 -0.1574 -0.1179
21092W        W40626   5.378   3.381  15.385  0.0162  0.0131 -0.0981
21093W        W40627   3.412   1.763   3.445 -0.0309 -0.1143  0.0139
21094W        W40628   9.219  14.252   1.714  0.2686 -0.4278  0.1751
21095W        W40629   6.169   5.538  16.229 -0.2655  0.1892  0.1410
21096W        W40630   7.609  11.671  15.254 -0.0088  0.2135 -0.4209
21097W        W40631  16.722   3.878   2.682  0.0923 -0.0177 -0.1892
21098W        W40632   4.318   3.136  15.288  0.0662 -0.2106  0.1838
21099W        W40633  10.156   0.327   2.587 -0.1851  0.3701  0.2622
21100W        W40634   6.548   9.980   5.148  0.4448 -0.0120  0.1656
21101W        W40635   5.891   2.651  11.190  0.1666 -0.0900  0.0068
21102W        W40636   9.806   0.644  14.183  0.0654 -0.3080  0.0773
21103W        W40637  11.900   7.790   4.342  0.0143  0.2065 -0.1078
21104W        W40638  15.819   2.013  12.853  0.1660 -0.2540 -0.3166
21105W        W40639   9.029   4.806   0.828 -0.0418  0.1496  0.0040
21106W        W40640  10.789  13.858  11.758  0.1891 -0.1056  0.0263
21107W        W40641   8.382   8.011   1.390 -0.0837 -0.0443 -0.1557
21108W        W40642   7.396   3.915  15.105  0.0345  0.0328 -0.2104
21109W        W40643   4.547  11.578   5.433 -0.4639 -0.2353 -0.1070
21110W        W40644   7.719   9.800   2.175  0.1736  0.3049  0.3821
21111W        W40645   3.344   8.445   1.235 -0.0229 -0.0644  0.1224
21112W        W40646  17.787  13.325  16.631  0.3106  0.0373 -0.3280
21113W        W40647   4.704   2.582  14.681  0.0003 -0.0577  0.1803
21114W        W40648  12.226   5.390   0.707  0.3263 -0.1134 -0.4097
21115W        W40649   9.725   6.027  11.995 -0.1511  0.2101 -0.2328
21116W        W40650   4.840   3.335   6.120  0.0636 -0.0497 -0.1565
21117W        W40651  15.346   9.701  12.670 -0.0639 -0.2875  0.1571
21118W        W40652   8.471   4.845   4.631 -0.1566 -0.0177  0.0037
21119W        W40653  13.041  15.476   1.544 -0.0021  0.0230 -0.0166
21120W        W40654   3.980   1.342  14.786  0.0482 -0.0088  0.2111
21121W        W40655  14.943   0.976  13.547  0.1793 -0.3687  0.1062
21122W        W40656  17.584  17.316   3.011 -0.0418  0.4007 -0.2842
21123W        W40657   3.914  17.416  14.999 -0.3429  0.1177  0.1959
21124W        W40658  15.766   5.472  15.716 -0.2159 -0.1354 -0.1231
21125W        W40659   7.443  13.320   4.866  0.1475 -0.2405 -0.0840
21126W        W40660   1.042  17.609  14.776  0.1937  0.4144  0.2164
21127W        W40661  16.372   9.799  16.443 -0.0785 -0.0636  0.1350
21128W        W40662  14.999   9.415  11.836  0.0565 -0.0585  0.0110
21129W        W40663  13.981  16.314   3.936  0.0234  0.2993  0.2077
21130W        W40664  12.382   8.566  15.811 -0.1313 -0.2014 -0.0773
21131W        W40665   2.574  14.964  13.960 -0.0873  0.0137  0.1332
21132W        W40666   1.444  16.151  13.084  0.2697 -0.0658 -0.4206
21133W        W40667   5.586  12.223   1.991 -0.0693  0.1170 -0.1871
21134W        W40668   7.832   1.476  12.277  0.1321 -0.0573  0.2351
21135W        W40669   2.352  12.234  12.795 -0.0085  0.0527 -0.4190
21136W        W40670  13.969   8.697   1.284 -0.1222  0.0260 -0.0666
21137W        W40671   4.333  12.167  11.979  0.0981  0.0323 -0.3352
21138W        W40672   9.095   9.980   3.216  0.0594  0.3636 -0.0784
21139W        W40673   9.643  15.972  15.151  0.1689  0.1397 -0.1219
21140W        W40674   8.668   9.136   2.767  0.0345 -0.1802 -0.0245
21141W        W40675   1.295   4.426  13.703  0.2153 -0.0605  0.2983
21142W        W40676   2.862   8.403  13.650  0.1133 -0.1622  0.0597
21143W        W40677  16.877   6.987  12.808  0.1851 -0.1546  0.0159
21144W        W40678  13.544  15.351   2.419 -0.0246 -0.0703 -0.2455
21145W        W40679   6.663  10.793  10.806 -0.0406  0.0616 -0.1039
21146W        W40680   7.890   3.809  12.025 -0.0826  0.0236  0.1630
21147W        W40681   8.212   1.291   2.619  0.1060  0.2492 -0.3658
21148W        W40682  13.562  14.449  12.603 -0.0814  0.1911 -0.0549
21149W        W40683   1.692   7.240   3.950  0.0487 -0.0009 -0.5161
21150W        W40684  13.929  14.808  16.521 -0.0480 -0.0601  0.0326
21151W        W40685   6.391  13.401  14.576  0.2771  0.1534 -0.1309
21152W        W40686   2.270   9.042   4.774  0.2409 -0.1275 -0.2293
21153W        W40687  12.091  14.862   1.787  0.1315  0.1453 -0.2658
21154W        W40688  13.067   1.419   0.988  0.1328  0.2812 -0.0745
21155W        W40689   2.205  17.387   0.221 -0.3387  0.0397 -0.1999
21156W        W40690  11.157   1.149   2.291 -0.3275 -0.1758 -0.1444
21157W        W40691  10.064   5.658   3.216 -0.2482 -0.0407  0.0193
21158W        W40692   7.739  12.375  12.678 -0.0087  0.2935 -0.1453
21159W        W40693   4.153  11.471  16.260 -0.0602  0.0971  0.4119
21160W        W40694  11.994   5.052  10.660  0.1815 -0.1568 -0.1075
21161W        W40695   0.185  13.623   4.933 -0.0881  0.4297  0.0500
21162W        W40696  11.708   6.640   1.444 -0.1415  0.0949 -0.0818
21163W        W40697  11.415   7.014   3.761 -0.1501  0.2034 -0.0701
21164W        W40698   6.857  12.371   0.280 -0.1001  0.2302 -0.2257
21165W        W40699  13.248   5.470   2.066 -0.0504  0.0823  0.2210
21166W        W40700   8.426  11.930  12.837  0.0881  0.3225 -0.3314
21167W        W40701  14.187   0.246  14.373  0.0020  0.5461  0.2645
21168W        W40702  13.463   6.564  13.180  0.1380 -0.0472  0.0354
21169W        W40703   7.961  12.077  13.165  0.0633 -0.0233 -0.4281
21170W        W40704  15.448   3.008  16.278 -0.3627 -0.0511 -0.0171
21171W        W40705  11.042  12.113  12.724  0.0057  0.3199 -0.2063
21172W        W40706  17.864  17.631  13.395  0.1519  0.1536 -0.0143
21173W        W40707   1.752   4.924  15.554  0.0107 -0.1784 -0.0366
21174W        W40708   3.194   4.937   3.351 -0.2653  0.2122  0.4187
21175W        W40709  14.887   1.937  15.005  0.0725  0.1731 -0.1025
21176W        W40710  16.282  16.648  14.074  0.0369 -0.2328 -0.0200
21177W        W40711  10.770  13.588  16.013 -0.0375  0.0854  0.0494
21178W        W40712  13.122   1.504   0.443 -0.2313 -0.1459 -0.1324
21179W        W40713   8.332   2.966  16.027  0.0908 -0.2015  0.3011
21180W        W40714  13.366  12.421  15.976  0.2392  0.3462  0.0951
21181W        W40715   6.410   2.873  12.001  0.1557  0.1531 -0.0427
21182W        W40716  12.133  11.313  13.165  0.1496  0.1659 -0.1272
21183W        W40717   6.859   4.109   2.879  0.2433 -0.2700  0.1551
21184W        W40718  13.715  15.623  15.163  0.0141  0.0828 -0.1799
21185W        W40719   5.075  12.267   4.560  0.0547 -0.1008 -0.2639
21186W        W40720  11.112   0.777   3.938  0.1992 -0.0786 -0.1318
21187W        W40721  11.117  11.586   3.807 -0.3422  0.0739 -0.1035
21188W        W40722  10.279  17.288  14.052 -0.0478 -0.1445 -0.1167
21189W        W40723   7.391   5.563  15.738  0.0275  0.2191  0.2390
21190W        W40724   8.807  10.685  13.966 -0.0214 -0.0874  0.2543
21191W        W40725  14.405   1.311   1.841  0.0328 -0.3412  0.0307
21192W        W40726   8.381  16.032  15.172  0.2583 -0.2117  0.4477
21193W        W40727   1.540  14.701  13.682 -0.0703  0.0407  0.0078
21194W        W40728  10.957  12.932  15.324 -0.2297  0.3847  0.5548
21195W        W40729   1.893  15.917  15.042  0.0357 -0.3459 -0.0364
21196W        W40730  13.606  16.178   2.138 -0.0448  0.1165  0.0628
21197W        W40731   9.472   1.571  13.941  0.2702 -0.2684 -0.0277
21198W        W40732  10.800   1.138  13.469 -0.1092 -0.1135  0.2149
21199W        W40733  17.667   5.817  15.931  0.1279 -0.4657  0.0538
21200W        W40734  16.709   7.431  12.095  0.1594 -0.1224 -0.4170
21201W        W40735  15.362  16.649   4.125  0.2512 -0.3901 -0.3458
21202W        W40736   7.019   5.452   5.722 -0.1401  0.1143  0.2102
21203W        W40737  16.331   9.031  13.570  0.0434  0.1318  0.2069
21204W        W40738   5.224   1.243  13.491 -0.0773 -0.5022 -0.3871
21205W        W40739   1.046   8.004   1.496 -0.1418  0.2956 -0.1704
21206W        W40740   7.777   1.270   2.180 -0.0786 -0.1095  0.1891
21207W        W40741   7.379   0.492   1.837 -0.0111  0.1612 -0.0478
21208W        W40742   4.866   6.671  13.193  0.1006  0.1128 -0.0684
21209W        W40743  14.526  14.394  15.040  0.1384 -0.1493  0.1440
21210W        W40744   9.998   2.767  12.154 -0.0345  0.1795  0.1768
21211W        W40745   4.655   6.500  14.794 -0.2391  0.1518 -0.1281
21212W        W40746  12.710   3.580  12.482 -0.0018 -0.1009  0.0878
21213W        W40747  17.242   6.597   1.290 -0.3235  0.2417  0.1690
21214W        W40748   6.116   9.664   2.520  0.1485 -0.0978  0.1134
21215W        W40749  14.170   8.241  15.415 -0.2670 -0.1064  0.1852
21216W        W40750   0.798   2.332  14.677 -0.4632 -0.0113 -0.4070
21217W        W40751   6.158   9.428   4.494  0.5067  0.2803  0.2237
21218W        W40752   1.353  14.907   2.333  0.1060 -0.1187  0.3061
21219W        W40753  13.169   2.377   0.017  0.1963 -0.0267  0.1249
21220W        W40754   3.131   4.110  13.303  0.3063 -0.1089  0.0286
21221W        W40755  10.272  12.490   3.253  0.1132  0.1491 -0.1305
21222W        W40756   8.256   1.037  16.167  0.0893 -0.1949  0.1517
21223W        W40757   8.843  14.272  12.157 -0.0968 -0.1403  0.2725
21224W        W40758   2.198  11.299   0.532 -0.1026 -0.2867  0.2081
21225W        W40759   7.663   7.769  15.426  0.1640  0.0430 -0.3648
21226W        W40760   5.193   1.859   2.738  0.0041  0.1933  0.0897
21227W        W40761  11.982   1.253  10.967  0.3610  0.0330 -0.4574
21228W        W40762   7.117   0.203  14.274 -0.0646 -0.1658  0.1501
21229W        W40763  14.460   0.183   4.457 -0.1952 -0.4440 -0.0360
21230W        W40764   9.881   4.648  15.498  0.1944  0.0081  0.0829
21231W        W40765  17.601   6.548   1.755 -0.1347  0.1921  0.0024
21232W        W40766   6.167  16.200   0.670 -0.2516 -0.2017  0.3369
21233W        W40767  17.557  13.109   3.728 -0.0694  0.1317  0.1205
21234W        W40768   5.633  14.042  12.946 -0.2053  0.1404  0.0155
21235W        W40769   0.748  13.286  12.379  0.1754  0.0506  0.1045
21236W        W40770   1.985  16.451  13.181  0.1714 -0.0643 -0.2773
21237W        W40771   1.156  15.574   0.641  0.3302  0.0442 -0.3968
21238W        W40772   7.289  11.778  15.671 -0.2486 -0.2091  0.1752
21239W        W40773   4.649   3.147   2.973 -0.1318 -0.2664 -0.2840
21240W        W40774   7.392   3.542   3.731  0.2229 -0.1687 -0.0114
21241W        W40775  16.209   7.372  13.673 -0.0537 -0.0439 -0.1798
21242W        W40776   3.034  17.318   4.201 -0.0953  0.0918  0.2563
21243W        W40777  16.475   7.829  14.448  0.2227 -0.0344  0.2843
21244W        W40778   6.349  10.144  15.709  0.0516 -0.2549 -0.1528
21245W        W40779   5.487   6.979   1.042 -0.0975  0.1282 -0.0859
21246W        W40780   1.740  10.697  13.721 -0.1962 -0.1642  0.1598
21247W        W40781  12.147   8.115   3.979  0.4034  0.0822 -0.0969
21248W        W40782   4.760   1.872  15.337  0.0106  0.1650 -0.0714
21249W        W40783   6.045   4.002  13.360 -0.1676  0.0292  0.0906
21250W        W40784   4.545   1.417  14.050 -0.2508 -0.0835 -0.1022
21251W        W40785   6.769   0.724   6.482 -0.0267 -0.1801  0.0928
21252W        W40786   5.027   4.000  11.983  0.0820 -0.0908 -0.2128
21253W        W40787  13.287  14.867   3.865 -0.0674 -0.1941 -0.1259
21254W        W40788   3.081   2.810   1.090 -0.0686 -0.1887  0.0613
21255W        W40789   9.526   2.958  15.813 -0.1056 -0.0104 -0.0464
21256W        W40790  11.143  11.450  12.165  0.1698 -0.0005 -0.2251
21257W        W40791   6.234   2.876   5.261 -0.2006  0.0289 -0.0224
21258W        W40792   7.745   8.118   0.651 -0.0037 -0.0952 -0.1291
21259W        W40793  12.707   3.692  13.522 -0.0705 -0.0043 -0.1521
21260W        W40794  15.774  13.177   0.784 -0.1678  0.1549 -0.0669
21261W        W40795   6.421  16.037   2.664  0.2825  0.0825 -0.1825
21262W        W40796   2.410   3.457   2.511  0.0972  0.3501  0.1399
21263W        W40797   4.111   1.961   4.949 -0.0091  0.0103  0.2168
21264W        W40798  11.421   5.846   3.293  0.0427  0.0810  0.1318
21265W        W40799   2.969   9.745  16.136  0.2179 -0.3250  0.2313
21266W        W40800   1.399   4.409   1.168 -0.1556 -0.1517  0.0914
21267W        W40801   7.417   3.155  12.258 -0.1536  0.0910  0.4487
21268W        W40802   2.678   5.116   3.359 -0.1044 -0.4110 -0.1050
21269W        W40803  16.059   1.137  16.365 -0.0316 -0.1008  0.3324
21270W        W40804   9.760  17.020   4.284 -0.3096 -0.2131 -0.0289
21271W        W40805  16.676   9.940  12.001 -0.3396  0.0859  0.1598
21272W        W40806   4.279  12.307   2.770  0.0273  0.1822  0.1070
21273W        W40807   6.649   2.242   4.697  0.1445  0.1804  0.3365
21274W        W40808  13.713  13.339  14.816  0.1818 -0.0733 -0.0847
21275W        W40809   9.758  17.265   3.804  0.0254 -0.1095 -0.1057
21276W        W40810   1.275   2.151  15.090  0.1176  0.2811 -0.0103
21277W        W40811   3.942  11.994   3.607  0.0256  0.1785  0.0332
21278W        W40812  16.431   4.503  15.694  0.0234 -0.0421 -0.3281
21279W        W40813  13.087   4.853  14.388  0.1672 -0.2771 -0.1077
21280W        W40814  13.041  11.996   2.090  0.1216 -0.0902 -0.0678
21281W        W40815   9.728   2.227   4.205  0.1234 -0.1739 -0.1808
21282W        W40816   8.323   7.199   2.528  0.2574 -0.0291 -0.2573
21283W        W40817   0.154  11.416  12.664 -0.1762  0.0945 -0.1966
21284W        W40818  13.262  15.240   1.939  0.0272 -0.1447  0.0222
21285W        W40819   2.915   9.709  15.603 -0.1793  0.1242 -0.2042
21286W        W40820   0.058   5.715   4.346  0.0478  0.1328  0.0354
21287W        W40821   1.051   8.376  16.427  0.5368 -0.1326 -0.1556
21288W        W40822  13.376  13.562   1.286 -0.3391  0.1397 -0.0514
21289W        W40823   4.678  12.567  14.764  0.1187 -0.2323 -0.0509
21290W        W40824  14.504   2.965  16.312 -0.0379 -0.1153 -0.0608
21291W        W40825   7.908   6.862  10.496 -0.1784 -0.0397  0.2564
21292W        W40826  17.827  12.089   4.245  0.2806  0.0861 -0.3255
21293W        W40827   2.358   7.024   0.669 -0.0338  0.0368  0.0933
21294W        W40828   3.077  13.568  16.285 -0.0890  0.0081  0.0255
21295W        W40829  14.414   7.159  15.187  0.0261  0.4359 -0.0655
21296W        W40830   6.057   4.191  11.590 -0.0597 -0.1490  0.0091
21297W        W40831   9.535  13.339  12.099 -0.2382  0.1247  0.2107
21298W        W40832  10.938  10.673   0.858 -0.0771  0.2707 -0.2382
21299W        W40833   3.318  17.137  13.097 -0.3413  0.0942  0.1733
21300W        W40834   8.505  11.579  12.314 -0.1355  0.2935 -0.1536
21301W        W40835   9.626  15.187  13.920  0.4826 -0.1391  0.1183
21302W        W40836   6.116   4.895   0.680  0.0818 -0.3257  0.0449
21303W        W40837   4.198   0.476  13.465 -0.2278  0.0187 -0.0551
21304W        W40838   1.177   1.691  14.032  0.0943 -0.2042 -0.2172
21305W        W40839  12.231   1.361   2.721  0.4763  0.1158 -0.0927
21306W        W40840   2.476  13.859  14.388 -0.0651  0.1602  0.2693
21307W        W40841   7.117   2.167   2.827  0.1701 -0.3055  0.0032
21308W        W40842   1.993  13.230   4.780 -0.0058 -0.0756  0.0170
21309W        W40843   1.379  12.176  12.690  0.0981 -0.2334 -0.1997
21310W        W40844  15.129  12.842   3.494 -0.1697 -0.3977 -0.1862
21311W        W40845   2.795  13.332  15.979  0.3645 -0.3589 -0.2901
21312W        W40846  17.608   3.197  15.820 -0.0344 -0.0525 -0.3300
21313W        W40847  17.119   2.566  12.795  0.0260  0.0385  0.1020
21314W        W40848   9.505   5.614  16.410  0.0807 -0.0474  0.1733
21315W        W40849  16.140   8.645  12.124 -0.2646  0.1675  0.0652
21316W        W40850  14.941  10.167   3.530 -0.0565  0.0199  0.0146
21317W        W40851   8.807   6.247   3.547 -0.1621 -0.3325 -0.2119
21318W        W40852  15.127   5.665   3.564  0.0121  0.0850 -0.1211
21319W        W40853   3.777  10.640   2.554  0.3671  0.2180 -0.0270
21320W        W40854  10.003  12.399  15.963 -0.1913 -0.1635 -0.2969
21321W        W40855   7.579   3.074   3.456 -0.2936  0.2125  0.3926
21322W        W40856   3.191   6.054  13.265  0.1141 -0.1075  0.0864
21323W        W40857  11.427   1.832  15.634  0.0494 -0.1726  0.0743
21324W        W40858   3.567  13.876  11.997  0.2197 -0.0163  0.1833
21325W        W40859  16.555  10.849   0.742 -0.0767  0.2047 -0.0951
21326W        W40860   7.954  11.878  12.695  0.1184  0.3683 -0.2784
21327W        W40861  10.187   3.826   2.380 -0.0075 -0.2570 -0.1908
21328W        W40862   6.414   1.312   1.416 -0.0432  0.2487 -0.0344
21329W        W40863  13.320   4.443  14.245  0.0374 -0.1244  0.1338
21330W        W40864   5.381   9.266   1.856 -0.1617 -0.0001  0.0132
21331W        W40865  12.919   5.550  15.944  0.1730  0.1243 -0.1827
21332W        W40866  10.545  16.049   0.628 -0.0600 -0.2560  0.1579
21333W        W40867   5.454  11.272  15.994 -0.0247  0.1103 -0.1298
21334W        W40868   1.566   1.674  15.045 -0.1306 -0.0638  0.1694
21335W        W40869  14.103   7.822  13.376  0.2202 -0.0838  0.1655
21336W        W40870  11.649   2.312   3.039 -0.0430  0.0965  0.0049
21337W        W40871  16.670  14.965  15.302  0.0472 -0.0431 -0.4877
21338W        W40872  13.958   2.921  11.304 -0.3379  0.2889 -0.0261
21339W        W40873   3.924  11.231  13.189  0.1238  0.1769 -0.2966
21340W        W40874   3.295  17.702  14.049  0.0489  0.1987  0.0369
21341W        W40875   5.863   8.783   0.127 -0.0122 -0.1970  0.1054
21342W        W40876  10.917  12.527   0.212 -0.4235 -0.2053 -0.3685
21343W        W40877   1.804   9.716   1.977 -0.0966 -0.2398  0.3108
21344W        W40878   9.390   7.586   2.686 -0.1531  0.1960 -0.0631
21345W        W40879   9.110   5.924   2.352  0.0048 -0.1064  0.1988
21346W        W40880  13.378  10.295   1.206  0.1031  0.1012 -0.2660
21347W        W40881   4.823  12.047  11.903 -0.0672 -0.1261  0.1077
21348W        W40882   0.722   4.214   2.365  0.0784 -0.1567 -0.0222
21349W        W40883   3.299   7.331   2.609  0.0560 -0.0057  0.1224
21350W        W40884  15.712   6.466  16.421  0.0641 -0.2594  0.0484
21351W        W40885  14.668  10.263   3.940  0.1245  0.0826  0.0673
21352W        W40886   2.592   0.214  15.930  0.1817  0.3036  0.1516
21353W        W40887  17.462  14.880  14.708  0.0819 -0.0995  0.0728
21354W        W40888  15.406  11.486   1.853  0.0545  0.1326  0.1875
21355W        W40889   2.268   8.606  15.927  0.1727 -0.1153  0.0648
21356W        W40890  14.158  17.425   1.105 -0.1127 -0.0307 -0.0030
21357W        W40891   2.821   6.431   0.103  0.0740  0.1490  0.0881
21358W        W40892  14.721   7.548  14.970  0.1382  0.0876 -0.3397
21359W        W40893  17.583   2.558  14.088 -0.0526 -0.2478  0.0463
21360W        W40894  12.132  16.199   0.149  0.0655  0.2584 -0.2862
21361W        W40895   8.867  10.430  14.425  0.1444  0.0866  0.1497
21362W        W40896   6.553   6.305   3.701 -0.1961 -0.0995 -0.2473
21363W        W40897  15.230   2.104   2.566  0.0436 -0.0436  0.2903
21364W        W40898   3.314   4.441  15.096  0.2366  0.1879  0.1756
21365W        W40899   2.031  14.876  13.880  0.1599  0.3282  0.1008
21366W        W40900   9.568   0.302  12.339  0.0659  0.2926  0.2574
21367W        W40901   1.444   2.162   2.136 -0.0564  0.2688  0.1974
21368W        W40902   7.393  10.411  14.585  0.0199  0.1474 -0.1516
21369W        W40903  15.921  11.183   1.775  0.1616 -0.0990  0.3271
21370W        W40904  14.933   7.194  14.073  0.1711 -0.3399  0.0635
21371W        W40905  16.958  15.011   2.329 -0.0857  0.2805 -0.0586
21372W        W40906  17.378  14.651   1.376  0.1360 -0.1466 -0.1331
21373W        W40907  14.452  13.713   2.636  0.5353 -0.0721  0.1154
21374W        W40908   6.494   3.076  15.009 -0.2059 -0.0783  0.2049
21375W        W40909   5.884   9.932  15.759  0.4848 -0.0764  0.1753
21376W        W40910   8.129  13.533   2.920  0.0797 -0.1379  0.0645
21377W        W40911   2.840   4.992  12.903 -0.1408 -0.0440  0.2166
21378W        W40912  11.462  16.372  16.531  0.0729 -0.2091 -0.1249
21379W        W40913  10.485   8.270  12.387 -0.1308 -0.3419  0.1019
21380W        W40914   4.616   0.209   2.722 -0.0434  0.0740 -0.1578
21381W        W40915  17.857  17.521  12.915 -0.2433  0.0417 -0.0974
21382W        W40916   3.992   9.104  13.824 -0.1823 -0.1007 -0.0388
21383W        W40917  15.523   0.304   1.717  0.3360 -0.3093 -0.0453
21384W        W40918  16.632   5.373   3.314  0.2274  0.1124  0.0326
21385W        W40919   3.994  12.418   4.547 -0.2648  0.0088  0.4270
21386W        W40920   3.826   8.552  14.690 -0.1099 -0.0026 -0.0255
21387W        W40921   4.432   6.996   1.817 -0.1298  0.1775  0.2165
21388W        W40922   9.816   9.303   1.903  0.1547  0.1176 -0.1302
21389W        W40923   7.423   3.912   1.318  0.1887  0.2521 -0.1509
21390W        W40924   9.718   6.831   3.350 -0.1913 -0.1134 -0.1272
21391W        W40925   1.499  11.469  13.421 -0.1102  0.0225 -0.1017
21392W        W40926   4.912  15.208   3.504  0.0391  0.0165 -0.0193
21393W        W40927  10.513   7.953  11.948 -0.1180 -0.0503  0.0327
21394W        W40928   5.387   0.653  12.137 -0.0598  0.0497  0.0790
21395W        W40929  16.163  11.125  13.052  0.2783  0.0733 -0.1177
21396W        W40930  11.849  17.740   4.226  0.3041 -0.2679  0.1973
21397W        W40931   0.758   8.884   1.870 -0.0442  0.3946  0.4308
21398W        W40932   1.022   6.646   1.249 -0.1304 -0.1129  0.0946
21399W        W40933   6.472  15.296   1.571 -0.0290 -0.0573 -0.1687
21400W        W40934   1.334   5.124   2.517  0.3395 -0.2052  0.3866
21401W        W40935   4.314  17.060  14.267  0.2000 -0.3485 -0.1192
21402W        W40936  15.942  16.887   2.347  0.0684 -0.0559  0.2016
21403W        W40937  14.597   8.263  13.230 -0.2167 -0.2294  0.0962
21404W        W40938   8.294   8.984   0.591  0.2750  0.0282  0.1025
21405W        W40939   1.143   6.851  11.707 -0.1401  0.0657  0.0073
21406W        W40940  16.426   4.717   3.685  0.3097 -0.4104  0.3202
21407W        W40941  13.182   2.767  13.170 -0.1833  0.2027  0.1314
21408W        W40942  13.117  11.395   1.144  0.0717 -0.1562 -0.2810
21409W        W40943  14.558  14.538   2.991  0.3985 -0.0860  0.1382
21410W        W40944  14.027  10.823   1.285  0.1651 -0.4070  0.1749
21411W        W40945   0.882  10.894  12.773  0.1637 -0.0778  0.4059
21412W        W40946   7.516   5.415   0.671 -0.1689 -0.0448 -0.2055
21413W        W40947   8.154  14.806   5.679  0.0725  0.1416  0.1711
21414W        W40948   5.692   3.741   3.568  0.0967  0.2020  0.0624
21415W        W40949  11.758  16.227  15.742 -0.1999 -0.1610 -0.1406
21416W        W40950   0.352  13.313  14.004 -0.1299  0.1148 -0.1136
21417W        W40951  15.260  15.915  13.943  0.1422  0.1248 -0.1391
21418W        W40952   2.995   0.829  15.352  0.1039  0.2220 -0.0761
21419W        W40953   7.058   8.434   4.868 -0.1016  0.1202  0.1291
21420W        W40954  15.971   2.668   2.868  0.2349  0.1050 -0.0445
21421W        W40955  15.390   0.015   0.887  0.0820 -0.3027  0.0015
21422W        W40956   4.931  16.626   1.446  0.1822  0.0990 -0.0090
21423W        W40957   5.691   3.752   5.152 -0.1035  0.3895 -0.0007
21424W        W40958  12.696   0.238   0.490  0.3051 -0.1504  0.0611
21425W        W40959   6.004   2.418   4.294 -0.1509 -0.2631  0.1223
21426W        W40960  17.590   8.584  14.625 -0.1538 -0.3106  0.0457
21427W        W40961   1.381   1.442   2.691  0.3214  0.0684  0.1687
21428W        W40962   7.954   5.157   2.165 -0.1372  0.1623 -0.2056
21429W        W40963  14.654  12.701  11.713  0.1181 -0.1047 -0.3674
21430W        W40964  16.828  11.233   4.366 -0.1042  0.0668 -0.2655
21431W        W40965   3.863  16.308  14.113  0.1700  0.1696 -0.0934
21432W        W40966   2.176  16.625   0.011  0.0298 -0.1562 -0.2244
21433W        W40967   0.212   0.237  13.671  0.2198  0.0608  0.3258
21434W        W40968   0.949  10.940   0.929 -0.3316  0.0804 -0.0557
21435W        W40969  11.407  17.847   2.105 -0.0978 -0.1091  0.0800
21436W        W40970  13.995   2.152   3.921  0.1407  0.1625  0.2002
21437W        W40971  11.137   4.794  14.690  0.1680 -0.0622  0.0072
21438W        W40972   7.928  16.883  11.336 -0.1113 -0.0132  0.1403
21439W        W40973  15.722   0.475  16.644 -0.1954 -0.2753 -0.0118
21440W        W40974   8.607  16.623  14.362  0.0053 -0.3224  0.1000
21441W        W40975   4.093  14.795  15.026 -0.2271 -0.2003 -0.0545
21442W        W40976   1.722   5.153  13.606  0.0487 -0.0220  0.2706
21443W        W40977   3.341   0.233   4.318  0.1479 -0.2055 -0.0952
21444W        W40978   2.124   8.034  16.127 -0.0566 -0.1697  0.0865
21445W        W40979   7.966  11.655   0.388  0.2199 -0.1561 -0.0733
21446W        W40980   9.619  17.482  13.311  0.1333  0.0911 -0.0636
21447W        W40981  10.774  14.631  12.861  0.0583  0.2612  0.0739
21448W        W40982   3.218   6.194   4.889  0.0338 -0.2530 -0.2742
21449W        W40983   0.175   9.916   4.065 -0.0554 -0.0418  0.0388
21450W        W40984   1.933   9.028   2.484 -0.0261  0.1102 -0.1039
21451W        W40985   3.872   0.856  15.190  0.0213 -0.0320 -0.0631
21452W        W40986  10.720  14.465   0.092 -0.4088  0.0063  0.0521
21453W        W40987   3.912  16.872   1.211  0.0963  0.2206 -0.3606
21454W        W40988  11.335   1.837  13.036  0.2175 -0.0005 -0.2723
21455W        W40989   8.847   6.561  12.051 -0.0643  0.2279 -0.0018
21456W        W40990  17.619  14.623   1.825 -0.1067 -0.2011 -0.0318
21457W        W40991   0.042   8.398   0.756 -0.0440 -0.3720 -0.1844
21458W        W40992  17.069   0.009   4.283  0.1692 -0.0019 -0.3401
21459W        W40993  10.248  11.036  12.985 -0.5478  0.1285 -0.0569
21460W        W40994  14.037  16.483   2.516 -0.1035  0.1924  0.2088
21461W        W40995   1.420   0.976   0.873  0.1297 -0.4338 -0.0218
21462W        W40996   3.249  16.296  15.510  0.3160 -0.0285  0.0476
21463W        W40997  10.595   3.007  14.010  0.0161  0.0815  0.0168
21464W        W40998   8.682  12.412  13.647  0.0302 -0.0833 -0.3188
21465W        W40999   0.881  10.977  13.801  0.1683 -0.1870 -0.0756
21466W        W41000   6.099  17.002   1.805  0.2342  0.1897 -0.4722
21467W        W41001  16.073  14.455   0.161 -0.0903  0.0105 -0.1257
21468W        W41002   6.720  14.942   4.738  0.0472 -0.1687 -0.0977
21469W        W41003  15.392   0.931  12.792 -0.0748 -0.0956 -0.2332
21470W        W41004   4.723   1.200   5.382 -0.2123 -0.2921  0.0376
21471W        W41005   7.249  11.569  16.638 -0.0213 -0.2244 -0.1060
21472W        W41006   7.594  11.263   2.899  0.0055 -0.1001  0.0622
21473W        W41007  11.278  17.204   0.636  0.0757  0.2692 -0.1725
21474W        W41008   6.011  15.405   1.377  0.3586 -0.3634  0.1949
21475W        W41009  13.468  14.207  14.959 -0.1377  0.4352 -0.1972
21476W        W41010   9.070  16.846  15.855  0.2192 -0.0745 -0.0356
21477W        W41011  12.234  12.532  14.183  0.2312  0.1365 -0.1069
21478W        W41012  12.236   3.689   4.430  0.2225 -0.0378  0.2159
21479W        W41013  17.581  13.138   0.368 -0.0697 -0.2321  0.4743
21480W        W41014  17.279   8.467   2.195  0.3088  0.1220  0.0163
21481W        W41015   6.154  15.020  12.337  0.0904 -0.1076 -0.3003
21482W        W41016  11.444  16.548  16.005  0.1058  0.2961 -0.0462
21483W        W41017   3.186  10.900   0.408  0.1493  0.1711  0.0722
21484W        W41018   6.474  17.775   1.312 -0.2830  0.2665  0.1066
21485W        W41019  11.648   8.285  12.864  0.4487  0.3030 -0.2271
21486W        W41020   6.757   6.986  14.886  0.0019 -0.0287 -0.0612
21487W        W41021  10.993   7.561   6.011 -0.0001 -0.2944  0.0339
21488W        W41022   8.469   5.879   1.043 -0.0036 -0.1880 -0.2329
21489W        W41023  17.895  12.734   0.848 -0.1003 -0.1725  0.1954
21490W        W41024   1.553   0.196  13.506  0.2994  0.2351  0.0820
21491W        W41025   2.614   8.128  15.850  0.0690  0.1626 -0.0579
21492W        W41026  14.601   6.707  13.426  0.1548 -0.1254  0.0765
21493W        W41027   0.184  17.340  14.425  0.1224  0.0984  0.2990
21494W        W41028   1.190   3.906  11.987 -0.0973 -0.0339 -0.1649
21495W        W41029   5.345  17.010   3.086  0.0497  0.0626 -0.1229
21496W        W41030  12.134   5.927   0.916  0.1075  0.1630 -0.0757
21497W        W41031  16.243   6.020  13.495 -0.0586 -0.0148  0.2493
21498W        W41032   6.833  13.965  12.425  0.0784  0.1227  0.2804
21499W        W41033  10.685   7.373  14.317 -0.0381  0.4085 -0.0932
21500W        W41034  16.748   6.258   0.805 -0.0335  0.1195 -0.0653
21501W        W41035   9.823   0.708  15.813  0.0924 -0.0840 -0.1811
21502W        W41036   2.427   7.229   1.577 -0.0740  0.2027  0.0431
21503W        W41037   5.160   5.361   3.024 -0.5101 -0.1383  0.0846
21504W        W41038  14.364   8.870   2.162 -0.1474  0.0698  0.0717
21505W        W41039  17.835   3.856   1.190 -0.1356  0.2936 -0.0411
21506W        W41040   2.868   3.967  11.919  0.0219  0.3880  0.1073
21507W        W41041   4.226  10.888  15.373  0.0531 -0.0936 -0.0764
21508W        W41042   1.339  13.238   1.351 -0.1278  0.4250  0.0681
21509W        W41043  16.078   6.797  16.005 -0.1334  0.2084 -0.2073
21510W        W41044   7.246  10.814  14.379  0.0185  0.2149 -0.1417
21511W        W41045   2.478  11.217   3.829  0.4597  0.0142 -0.0125
21512W        W41046  13.872   2.203   1.163  0.1129 -0.2406 -0.3513
21513W        W41047  10.035  13.911  16.607  0.0699  0.0411 -0.0371
21514W        W41048   5.407   6.733  12.284  0.1314  0.0835  0.2083
21515W        W41049   0.576  14.962  15.904  0.0187  0.0093  0.1912
21516W        W41050   7.024  16.740   1.057  0.0097  0.1163  0.2426
21517W        W41051  13.181  17.792   2.352 -0.0065 -0.0826 -0.1963
21518W        W41052   4.747  15.864   4.881 -0.2984 -0.0974 -0.0314
21519W        W41053   6.525   8.342   4.709 -0.3515  0.1306 -0.1363
21520W        W41054   8.779   8.187   4.214  0.0332 -0.1837  0.1106
21521W        W41055   0.346   1.058  14.399 -0.1984  0.0386  0.2171
21522W        W41056   7.302  11.065  16.200 -0.2310 -0.1490 -0.0724
21523W        W41057   3.698   6.556  11.912 -0.2748 -0.2315  0.0796
21524W        W41058  11.349  14.561   0.284  0.0638 -0.0955 -0.0519
21525W        W41059  16.739  15.859  12.700 -0.0082 -0.0343  0.2362
21526W        W41060   0.035   9.023   4.316  0.1277 -0.0363  0.0563
21527W        W41061   8.375   2.845  13.912  0.0158 -0.1657  0.1606
21528W        W41062  15.295   3.867  14.094 -0.0828 -0.0339 -0.0614
21529W        W41063   8.223  14.388  12.360 -0.0081  0.1367  0.1420
21530W        W41064   7.132  16.369   1.544 -0.0160  0.0813 -0.1268
21531W        W41065   0.125   4.838  12.936  0.1486  0.2674 -0.0489
21532W        W41066   4.377  10.045   3.514  0.0021 -0.1236 -0.1109
21533W        W41067   8.534  16.747   4.606 -0.0728  0.0621  0.1375
21534W        W41068  10.986   3.901  16.465  0.3099 -0.1092 -0.1456
21535W        W41069  15.824  15.650  15.189 -0.0873  0.0681 -0.5594
21536W        W41070   0.611   6.818   3.623 -0.0131 -0.1097 -0.2683
21537W        W41071   4.221   3.279  12.574 -0.0232  0.0916  0.1071
21538W        W41072  10.072   2.503   0.576  0.0054  0.3235 -0.2845
21539W        W41073   1.798   5.251   0.916 -0.0789  0.3189 -0.3193
21540W        W41074  14.849   2.526   1.009  0.0043  0.0074  0.1149
21541W        W41075   1.248  11.580  15.134  0.0687 -0.2455 -0.1083
21542W        W41076   0.908   3.655   5.379 -0.0063 -0.3367 -0.1975
21543W        W41077   8.939   5.569   4.700  0.1547  0.2810  0.4169
21544W        W41078   3.459   8.013   5.527  0.0999  0.0945 -0.1226
21545W        W41079  13.680  10.843   3.734 -0.0949  0.2811 -0.1839
21546W        W41080  11.267   0.917  15.635 -0.1381 -0.0852  0.0302
21547W        W41081   6.398  14.058  13.407  0.0007  0.0471  0.0171
21548W        W41082  12.052  16.641   3.389  0.1920 -0.1608  0.0328
21549W        W41083  13.375  10.118   4.648 -0.1313  0.0587 -0.5420
21550W        W41084  14.294  13.869  15.246 -0.2585  0.1688  0.2024
21551W        W41085  14.249   1.936  14.968  0.0184 -0.0208  0.0422
21552W        W41086   4.800  10.831  13.899  0.0560 -0.2315 -0.1942
21553W        W41087   8.260   8.115   5.088  0.4220 -0.0407 -0.2900
21554W        W41088   0.906   9.137   4.017 -0.3806  0.0858 -0.0258
21555W        W41089   9.247  10.845   3.335  0.1523  0.1265  0.2557
21556W        W41090   3.371   0.649   5.507 -0.1375 -0.1421 -0.2353
21557W        W41091  16.921   9.338   2.946  0.0371  0.3075 -0.1114
21558W        W41092  16.484   8.860  15.860 -0.0208  0.1010 -0.0915
21559W        W41093   6.742  10.675   4.663 -0.0546  0.0830 -0.0842
21560W        W41094  15.348   3.851   2.796  0.3063  0.1725  0.0216
21561W        W41095  12.886   2.124   3.063  0.1980 -0.1503 -0.1151
21562W        W41096  10.764  14.887  16.219 -0.0242  0.1484  0.0673
21563W        W41097   8.962  11.980  13.535  0.1164 -0.1004 -0.4010
21564W        W41098   2.309   5.528  16.745  0.0967 -0.0285 -0.0861
21565W        W41099   0.530   5.547   3.532  0.2372 -0.0064  0.2725
21566W        W41100   8.960   8.997   1.140 -0.0646  0.1570 -0.1978
21567W        W41101  15.806  11.552   2.069 -0.0831  0.3853 -0.0122
21568W        W41102  13.296   7.149  11.609 -0.1276  0.1162 -0.3963
21569W        W41103   9.522  15.403   2.366 -0.1055 -0.0649  0.1044
21570W        W41104  12.570  14.068  14.569  0.0419 -0.5650  0.2577
21571W        W41105  10.501  14.789   0.387 -0.0655 -0.2415  0.1751
21572W        W41106  14.085   2.812   0.377  0.3152 -0.0617  0.1894
21573W        W41107  13.274  17.267   1.509 -0.0115 -0.0898 -0.1935
21574W        W41108   0.933   7.958  12.784  0.1245 -0.0843 -0.2273
21575W        W41109   9.888  17.335  15.862 -0.1352  0.1751  0.0788
21576W        W41110  12.783   2.407   0.800  0.0225  0.1438  0.1852
21577W        W41111   3.098  17.699   2.884  0.0205  0.0942  0.0630
21578W        W41112   4.351   5.230  14.515 -0.1037  0.0054  0.1438
21579W        W41113   1.379   5.050   0.041  0.0250 -0.0434 -0.1995
21580W        W41114   7.625   7.097   3.326 -0.0734  0.2134 -0.0112
21581W        W41115   7.858   2.868   6.344 -0.0774  0.0057  0.1074
21582W        W41116  16.702  15.688   1.757  0.0872 -0.1945 -0.2740
21583W        W41117   2.819   3.147   1.540  0.4188  0.1941  0.0072
21584W        W41118  16.345   8.444  14.648 -0.3511  0.2809  0.0847
21585W        W41119   4.415   2.866  16.427  0.0201 -0.0506  0.1002
21586W        W41120  12.943   9.364  15.894  0.1001  0.0932  0.0587
21587W        W41121   6.275   6.730  12.395 -0.0089 -0.3097  0.1863
21588W        W41122   4.133   2.229  13.587  0.0688  0.1921  0.0200
21589W        W41123  13.805  16.193  13.698  0.0914 -0.1499 -0.1505
21590W        W41124   7.353  16.532  13.113 -0.0480  0.0039  0.2341
21591W        W41125   7.108  13.609   2.087 -0.2499  0.1277  0.0444
21592W        W41126  12.456  10.782   3.019  0.2079  0.0591 -0.3952
21593W        W41127   9.389  14.614   0.801  0.1255 -0.3300  0.3239
21594W        W41128   2.732  14.994  14.540 -0.1662 -0.2592 -0.2985
21595W        W41129   5.999   8.605   4.480 -0.2769 -0.3324 -0.2518
21596W        W41130  12.133   9.259   2.571 -0.2416 -0.0946  0.1750
21597W        W41131  17.258  16.303  12.892 -0.2510 -0.2424 -0.1094
21598W        W41132  14.322  12.617  13.496 -0.2181  0.0351  0.1296
21599W        W41133   6.668   8.527   1.568  0.0506  0.1313  0.0178
21600W        W41134   5.023   8.453  15.302  0.2230 -0.0221  0.0499
21601W        W41135  17.257   3.765   1.293 -0.0725  0.0731 -0.1379
21602W        W41136   2.337   7.990   4.980 -0.0495 -0.1237  0.0408
21603W        W41137  15.004   8.488   4.442  0.1047  0.1448  0.2881
21604W        W41138  16.900   8.645  14.028 -0.1260  0.0312 -0.0005
21605W        W41139   9.030  16.042  14.017 -0.1735 -0.1457 -0.0698
21606W        W41140   3.139  13.464  15.224 -0.1944  0.1429 -0.1707
21607W        W41141  16.424   2.966   0.693 -0.4815  0.2226 -0.0975
21608W        W41142   7.474  16.740   0.783 -0.0578  0.0384 -0.2647
21609W        W41143   0.025   8.942  16.441  0.0295  0.1139 -0.0707
21610W        W41144  17.808   8.504   3.004 -0.0020 -0.0961 -0.1654
21611W        W41145  15.639   0.062   3.679  0.2642  0.2987 -0.0942
21612W        W41146  10.555   5.533   3.269 -0.3353 -0.0288 -0.0765
21613W        W41147   5.057  12.600   1.453  0.0028 -0.5553 -0.1679
21614W        W41148   5.316   8.258   2.328  0.0719  0.1016  0.2265
21615W        W41149  11.574   5.963  16.302 -0.1252 -0.2788  0.0120
21616W        W41150  14.201  15.768  15.431 -0.0731  0.1394 -0.1963
21617W        W41151   9.124  14.950   3.408 -0.0281 -0.2776  0.3703
21618W        W41152  16.045  15.398  13.112 -0.4266  0.2792 -0.2378
21619W        W41153  11.679   7.540   2.840 -0.0604  0.2208  0.0060
21620W        W41154  16.626  11.837   0.754  0.1695 -0.1109  0.1835
21621W        W41155   6.161  11.643  14.691 -0.2134 -0.1856  0.0314
21622W        W41156  10.651  17.355   4.705  0.1618 -0.0043  0.0580
21623W        W41157   5.165  14.906   2.621 -0.1062 -0.1639  0.4247
21624W        W41158   7.950  16.939  13.688 -0.1500 -0.0767 -0.1931
21625W        W41159   3.620   3.574   2.955  0.1821 -0.1052  0.0794
21626W        W41160  13.294   0.427   1.710 -0.0636 -0.1281  0.1222
21627W        W41161  16.367  10.049   3.396 -0.2827  0.1506  0.0456
21628W        W41162   5.300  16.092   4.099  0.0201  0.1987 -0.2093
21629W        W41163  13.585  11.587  12.848 -0.0857 -0.0847 -0.2531
21630W        W41164   6.676   9.833  16.500 -0.2723 -0.1046  0.1492
21631W        W41165   1.970   7.206  14.729  0.1618  0.2225  0.0403
21632W        W41166  11.506   7.349   4.129  0.0954 -0.1429  0.4175
21633W        W41167   5.904  15.468  14.627 -0.0343  0.0154  0.1974
21634W        W41168   6.384   1.061   4.055 -0.3622 -0.1196  0.0405
21635W        W41169   5.436   0.900   3.845  0.0563  0.1883 -0.2222
21636W        W41170   9.480  15.638   1.056  0.1191 -0.3833 -0.1083
21637W        W41171   6.330   5.028   1.086  0.2157 -0.0090 -0.0354
21638W        W41172   7.536  16.150   3.309  0.2090  0.1159 -0.1043
21639W        W41173   9.177   6.349   2.076 -0.0352 -0.0189 -0.0778
21640W        W41174  10.429  15.660   2.371 -0.0460  0.0487  0.1017
21641W        W41175   6.254  14.889  16.359 -0.2740 -0.1483  0.1831
21642W        W41176   2.569  17.104   2.702  0.0771  0.0622  0.0535
21643W        W41177  12.278  11.168  14.668 -0.3001 -0.1343  0.1940
21644W        W41178   3.123   2.654   2.463  0.1173  0.0441 -0.2820
21645W        W41179   2.353   4.914  13.201 -0.1922 -0.5033 -0.0635
21646W        W41180   4.866  16.729   4.933  0.1978  0.3479 -0.0522
21647W        W41181   7.672   7.206  14.608 -0.3747  0.1284 -0.0101
21648W        W41182   6.623   0.782  13.565 -0.1249 -0.0808  0.2596
21649W        W41183  11.508   4.828   0.029  0.0743  0.0728  0.0243
21650W        W41184  14.275  15.587  12.615  0.1478  0.0234 -0.0367
21651W        W41185   5.985   5.752   0.636 -0.0040  0.0893  0.1324
21652W        W41186  16.942  16.988   2.136 -0.0015  0.0708  0.3239
21653W        W41187   8.069  17.706  15.412 -0.1309  0.0343 -0.0885
21654W        W41188   9.065   0.626  12.964 -0.0401 -0.2323 -0.3463
21655W        W41189   3.259  16.214  13.537  0.1859 -0.0533  0.0471
21656W        W41190  10.522   4.017   4.870  0.2121 -0.1708  0.0554
21657W        W41191   6.117  14.414  12.647  0.2459  0.1592  0.3122
21658W        W41192  13.133  12.218  14.367  0.3279 -0.3848  0.2467
21659W        W41193   4.143   5.654   0.002 -0.0525  0.0193  0.2435
21660W        W41194   9.755  12.434   4.741  0.0715  0.2653 -0.1373
21661W        W41195   7.324   2.652  13.804  0.2474 -0.0184 -0.2449
21662W        W41196  12.031   6.097   4.582  0.2284 -0.1980 -0.0663
21663W        W41197   5.539  14.553  13.030 -0.0175  0.2910  0.3439
21664W        W41198  12.088  16.797  15.651 -0.0620 -0.0658 -0.0685
21665W        W41199  13.916   7.588  16.458 -0.0372  0.2473 -0.1273
21666W        W41200  16.620  16.272  15.121  0.2488 -0.0197  0.1061
21667W        W41201  16.543   9.381  12.945 -0.0166 -0.1125 -0.0102
21668W        W41202   3.602  16.045  12.884 -0.2003 -0.0872 -0.1057
21669W        W41203   0.217  12.941   2.133  0.0709  0.1590 -0.0029
21670W        W41204  14.542   2.283   1.873 -0.2363  0.0861 -0.0514
21671W        W41205   1.437  10.497  12.355  0.0817 -0.2388 -0.0493
21672W        W41206   8.345   7.850   5.476 -0.0646 -0.0139 -0.2952
21673W        W41207   2.792  10.115  15.869 -0.2252  0.0198 -0.0208
21674W        W41208   5.779   8.191   2.663 -0.2425  0.0831 -0.2561
21675W        W41209   4.104   6.268  12.111  0.0015  0.0800  0.0761
21676W        W41210   9.864  11.919   2.606 -0.0820  0.4142 -0.2990
21677W        W41211   0.898  14.278  15.347  0.2889  0.2872 -0.0584
21678W        W41212   1.276  10.440   2.056  0.0446 -0.0612  0.0561
21679W        W41213  15.660   6.900  15.572  0.1194 -0.2492 -0.0728
21680W        W41214   5.104  15.901  12.264  0.1504 -0.1529 -0.0157
21681W        W41215  11.069   9.639  15.706  0.0950  0.0155 -0.0590
21682W        W41216  12.002   9.043  14.786 -0.3301 -0.2526  0.4926
21683W        W41217  12.369   8.626  12.216  0.0848  0.4002  0.3416
21684W        W41218  10.504   6.774   5.818 -0.3245  0.0595  0.1138
21685W        W41219  10.857   8.629  16.088  0.0944  0.0496  0.0606
21686W        W41220  13.745  12.129   1.787 -0.0382  0.1452 -0.0327
21687W        W41221   0.430  17.747  12.175  0.1473  0.0837 -0.2596
21688W        W41222  13.068   9.200   2.270  0.4276 -0.1218  0.2551
21689W        W41223   0.972   5.221  11.484 -0.1479 -0.1095  0.2689
21690W        W41224  14.101  16.275   1.103 -0.2218 -0.1027  0.1343
21691W        W41225  14.686   1.586  15.318 -0.4391  0.4509 -0.0266
21692W        W41226   0.282   5.157   1.798 -0.1967  0.0911  0.0458
21693W        W41227  15.364   6.032  15.152  0.3751  0.0060 -0.0472
21694W        W41228  16.344   5.022   1.442 -0.0748  0.2432 -0.2891
21695W        W41229  12.970  10.365  14.221  0.0103  0.0644 -0.6060
21696W        W41230   6.489   2.059   5.804 -0.1542 -0.5917  0.1274
21697W        W41231  12.555   1.056  13.963  0.0418 -0.1529  0.0863
21698W        W41232  12.207  12.964   1.667 -0.5117  0.0024  0.1944
21699W        W41233  17.536  17.102   1.919  0.0906 -0.1141 -0.2447
21700W        W41234   4.132   9.695  15.455  0.0622  0.0814  0.0772
21701W        W41235   5.173   5.682   3.610 -0.0852 -0.2275 -0.0681
21702W        W41236  16.758   5.107   4.321 -0.1477  0.2689  0.0934
21703W        W41237  11.857   3.151  11.966 -0.0324 -0.0550  0.0603
21704W        W41238  15.640  17.866  12.582  0.0084 -0.1537  0.0705
21705W        W41239   5.370   3.269   1.363 -0.0194  0.1226 -0.1582
21706W        W41240   5.839  10.306   1.678 -0.0140  0.2668  0.1745
21707W        W41241   6.292   6.735  11.348 -0.0588 -0.0122  0.1665
21708W        W41242  13.468   5.647  11.597 -0.2509 -0.0819  0.2507
21709W        W41243   8.894   5.022  15.414  0.1057  0.0009 -0.2011
21710W        W41244  17.005   6.553   3.145 -0.2125  0.1490 -0.1737
21711W        W41245   4.434  12.139   4.381 -0.1201 -0.1535 -0.1758
21712W        W41246  13.432   7.588  14.447 -0.0206  0.1248  0.4345
21713W        W41247   8.981  16.372   4.462 -0.1121 -0.1139  0.0703
21714W        W41248   1.260   2.976   2.451  0.7204  0.0590 -0.0552
21715W        W41249   9.654   6.132  13.888  0.0740  0.1084  0.0029
21716W        W41250   5.876  11.434  15.362  0.3741  0.2815  0.0207
21717W        W41251  14.079   6.012  13.362 -0.1263 -0.3151 -0.2163
21718W        W41252   9.351   5.466   0.690 -0.2671  0.2288  0.0795
21719W        W41253  16.220  17.576  16.445 -0.2188  0.1090 -0.0267
21720W        W41254  10.956   3.820   3.002  0.2973  0.0084  0.2428
21721W        W41255   6.029  16.760   0.421 -0.1443  0.3061 -0.1213
21722W        W41256  12.929  11.924  16.604 -0.4707 -0.0405  0.1038
21723W        W41257   1.948   4.272  11.432  0.1047 -0.1424 -0.1004
21724W        W41258  15.913   7.564   1.333  0.1428 -0.1713  0.2374
21725W        W41259   9.189   6.741  15.582 -0.0532 -0.0789  0.0028
21726W        W41260   4.039   0.414  15.026  0.0520 -0.0785  0.0760
21727W        W41261   4.310  17.367   0.054  0.2070  0.0179 -0.0446
21728W        W41262   4.556  12.643   1.705 -0.1843  0.1412  0.1722
21729W        W41263  13.724  10.728  13.472  0.2998 -0.2179  0.3397
21730W        W41264   4.450  17.703   2.976  0.2886 -0.1329  0.1858
21731W        W41265   9.959  15.479  15.038  0.1766  0.1648  0.0269
21732W        W41266   0.007   5.117   0.409 -0.1955 -0.0417  0.3515
21733W        W41267   9.186   7.283   5.360 -0.3791  0.0223  0.1422
21734W        W41268   6.218   4.021   0.755 -0.2726 -0.0679 -0.1176
21735W        W41269  10.008   2.522   4.538 -0.0602 -0.1074  0.0127
21736W        W41270   0.679  10.619  12.037  0.1948  0.1139 -0.0596
21737W        W41271  17.082   4.095   1.031 -0.1686 -0.0091  0.1900
21738W        W41272  17.760  11.544  13.988 -0.0464 -0.0845 -0.2953
21739W        W41273   6.490  16.792   4.429 -0.1134  0.0021 -0.0783
21740W        W41274   6.349  14.418  16.358 -0.3250  0.0153  0.0071
21741W        W41275   0.590   5.428   2.077  0.0698  0.0540 -0.1955
21742W        W41276   5.351   9.413  12.826 -0.1160  0.1393 -0.0511
21743W        W41277  14.742   7.434  15.460 -0.0187 -0.3325 -0.3607
21744W        W41278   5.221   3.727  13.913  0.0785 -0.0084  0.4901
21745W        W41279  11.994  13.739  11.813 -0.0578 -0.2783  0.1480
21746W        W41280   2.944   0.970   3.179 -0.3192  0.2112  0.0503
21747W        W41281  10.171   5.750  12.802 -0.1649 -0.1776 -0.0386
21748W        W41282  14.252  14.974   0.386 -0.0111  0.1446  0.2023
21749W        W41283   5.523  11.002   4.796  0.2042 -0.1425 -0.2229
21750W        W41284  15.692  13.042  14.872 -0.4845 -0.0169 -0.0278
21751W        W41285  11.542   1.743  14.351 -0.3395 -0.3201 -0.1958
21752W        W41286  15.431   5.133  15.411 -0.3605 -0.1116  0.0427
21753W        W41287   0.994  13.992   4.905 -0.1378 -0.2493  0.3375
21754W        W41288  16.353  13.611   0.212  0.0167  0.1797  0.4270
21755W        W41289   1.078  11.924  16.591  0.1628  0.0726  0.0963
21756W        W41290   8.240   9.484  15.640 -0.0683  0.0298 -0.2217
21757W        W41291  10.275   4.455   2.587 -0.1015  0.3524 -0.0036
21758W        W41292  10.305  14.643  14.247  0.1852 -0.0680 -0.1293
21759W        W41293   3.825  10.142   4.834  0.4072  0.0109 -0.0725
21760W        W41294  11.408   9.990  12.379  0.0957  0.0001 -0.0363
21761W        W41295   0.622  13.994   3.175  0.0072  0.4868  0.0358
21762W        W41296   0.688   3.264   1.376  0.0732  0.0551  0.1467
21763W        W41297   7.639  15.132  12.592  0.2040 -0.0039  0.1694
21764W        W41298   1.108   2.317   0.295 -0.1876  0.1167 -0.1436
21765W        W41299  11.451  15.867  12.053  0.0865  0.1915  0.0802
21766W        W41300   4.808  12.059   4.005 -0.0450  0.2510  0.0003
21767W        W41301  15.275   7.056   1.816  0.3385  0.1501 -0.0634
21768W        W41302  14.860   2.443  14.725  0.1504 -0.1311  0.1145
21769W        W41303   5.515  10.663   1.719 -0.0227 -0.0014 -0.1233
21770W        W41304   2.879   3.813   4.864  0.0936  0.0394 -0.1274
21771W        W41305   0.586  10.429  14.454  0.2898  0.0343 -0.0033
21772W        W41306   8.760   6.510  14.617 -0.0518  0.0059 -0.0728
21773W        W41307   9.112  10.378  16.371 -0.0505  0.3433 -0.1055
21774W        W41308   2.429  16.883  12.912 -0.3235  0.0056  0.0148
21775W        W41309  14.481  15.184   0.781  0.2967  0.0385 -0.0676
21776W        W41310   3.897   1.613  13.459  0.1939 -0.2980 -0.0454
21777W        W41311   1.018   6.273  12.553 -0.1065 -0.1361  0.0258
21778W        W41312   0.286   7.568   1.262 -0.2375  0.2197  0.2476
21779W        W41313  10.538   7.120  12.562  0.1832  0.3442  0.1456
21780W        W41314   9.719   4.744  14.070 -0.1335 -0.0460  0.2844
21781W        W41315   0.351   1.861  16.023 -0.1708 -0.3209 -0.0506
21782W        W41316  17.710  14.531  12.879 -0.0010  0.0622 -0.3173
21783W        W41317   5.789  14.787  14.751  0.2856  0.1070  0.4837
21784W        W41318  13.118   6.666  15.112  0.2268 -0.0578 -0.0104
21785W        W41319   6.916   7.462   0.710 -0.0040  0.1467  0.2972
21786W        W41320   4.393  17.171   3.155  0.0067 -0.1564 -0.1235
21787W        W41321  14.746   0.950   1.826  0.0773 -0.2624  0.3414
21788W        W41322  11.804   5.535  16.222 -0.1752 -0.0292  0.1435
21789W        W41323  10.017   2.270  13.679 -0.0127 -0.0262 -0.0942
21790W        W41324   6.923   0.654  12.849 -0.0470  0.1579  0.1386
21791W        W41325  13.260   9.069   2.816  0.0161  0.1877 -0.1307
21792W        W41326  17.230  10.339   2.730 -0.0956  0.3796  0.0008
21793W        W41327  12.756  16.381  12.892  0.0491  0.3329 -0.1571
21794W        W41328   0.072   1.956  12.108 -0.1495  0.1019 -0.1108
21795W        W41329   9.479  10.293   3.333  0.1605  0.1069  0.1108
21796W        W41330   4.433   9.016  12.055  0.0960  0.2757  0.0370
21797W        W41331   9.826   8.393   3.874 -0.2636  0.0607  0.0194
21798W        W41332  15.147   6.495   2.523 -0.2208 -0.3525 -0.1935
21799W        W41333  12.602   9.577  13.717 -0.0913 -0.1759 -0.1754
21800W        W41334   9.784   8.726   4.683 -0.2339 -0.3729 -0.3452
21801W        W41335   9.717  16.197   2.607  0.1831  0.1714  0.1527
21802W        W41336  13.078  14.939   0.643  0.1910 -0.1629 -0.2015
21803W        W41337   9.746   9.885  15.986  0.1433 -0.0664 -0.0404
21804W        W41338   8.903   9.954   2.190  0.0762  0.0825 -0.0762
21805W        W41339   8.770  15.150   0.783  0.2545 -0.1416 -0.0521
21806W        W41340  11.551   6.799   3.313 -0.0049  0.2933 -0.0647
21807W        W41341  13.179   6.187   4.579  0.0318 -0.2793  0.2084
21808W        W41342   0.000  14.553  14.913  0.2213  0.1213  0.1250
21809W        W41343   3.104  12.015   2.060  0.1650  0.3622 -0.1174
21810W        W41344   8.042  11.270   4.684  0.2027 -0.3291 -0.0425
21811W        W41345   0.412   3.798  12.670  0.2063 -0.0525  0.0719
21812W        W41346  16.828   8.014   4.196  0.0860 -0.3415  0.3772
21813W        W41347   6.986  15.628   4.618 -0.0922 -0.4091  0.0456
21814W        W41348   5.921  12.105   3.353 -0.1142 -0.0687 -0.0547
21815W        W41349   7.616   3.405   0.250  0.1943 -0.2272 -0.1572
21816W        W41350  10.148  10.183  16.024 -0.0416  0.0970 -0.2058
21817W        W41351   6.724  13.248   3.313  0.1481 -0.3041 -0.0936
21818W        W41352  12.938   9.471  14.633 -0.1465 -0.0726 -0.3959
21819W        W41353  17.296  12.217  12.164  0.0663 -0.0059 -0.1065
21820W        W41354  16.131   1.188  12.511 -0.1396  0.0331 -0.2127
21821W        W41355   4.082   9.372   0.735 -0.3609 -0.3253 -0.1387
21822W        W41356   6.980   0.486   1.049  0.2386 -0.0335 -0.1939
21823W        W41357  11.182  13.708   0.135 -0.0920 -0.0440 -0.1640
21824W        W41358  16.410   5.692   2.235  0.3424 -0.1947 -0.0979
21825W        W41359   8.133   7.708   6.360  0.0640 -0.2159  0.2333
21826W        W41360   1.929  15.114  12.728  0.0923  0.1791  0.2774
21827W        W41361  11.549   9.368  14.342  0.0872  0.2145  0.3312
21828W        W41362   7.579  12.687  15.316 -0.2399 -0.0729 -0.0219
21829W        W41363  12.889   6.026   3.005 -0.1029 -0.3086  0.0977
21830W        W41364   5.248   6.617  14.740  0.0186  0.0643 -0.2636
21831W        W41365   0.595  10.285  16.061 -0.1618 -0.0426  0.1027
21832W        W41366  12.968  15.310  13.996  0.1070  0.1459 -0.1876
21833W        W41367   7.336  16.522   3.614 -0.1906  0.1692  0.1362
21834W        W41368   9.754   6.402  15.677  0.0361 -0.1980 -0.1083
21835W        W41369   5.646   3.523  14.113  0.0254 -0.0432 -0.5976
21836W        W41370  12.429   5.810  16.658  0.1583  0.2801 -0.3102
21837W        W41371   8.079  10.434  16.358 -0.1494  0.3013 -0.0583
21838W        W41372  17.817   7.057  13.851  0.2449 -0.3921  0.0503
21839W        W41373  13.536  14.447  12.070 -0.1531 -0.0743  0.2525
21840W        W41374   3.838   1.667   5.325 -0.0317 -0.1183  0.0642
21841W        W41375   0.441  10.726  14.011  0.0137 -0.1910  0.3347
21842W        W41376  10.460   9.825  14.814 -0.0629  0.0788 -0.0733
21843W        W41377  15.805  17.886  16.352  0.1187  0.0072 -0.0078
21844W        W41378   6.324   8.249   1.829 -0.0614  0.0950  0.3318
21845W        W41379   2.503   9.126   4.186  0.1015 -0.0168 -0.1209
21846W        W41380  13.785   0.061   1.751 -0.0560  0.2989  0.0687
21847W        W41381   9.930   8.857   3.062 -0.2826 -0.0165 -0.3330
21848W        W41382  10.591   9.922  16.309 -0.1021  0.0298  0.1917
21849W        W41383  14.782   5.097  14.331 -0.0553  0.0024  0.0303
21850W        W41384  15.487  13.295  14.429 -0.0562 -0.2175 -0.1251
21851W        W41385  12.484   4.279  15.945  0.0310 -0.0835 -0.0213
21852W        W41386   8.837   2.391  11.312  0.0139  0.2662  0.0050
21853W        W41387  12.064  14.853   4.295  0.0065 -0.1138  0.0301
21854W        W41388   1.166  12.497  15.525 -0.1076 -0.1514  0.1034
21855W        W41389  14.850   3.390  15.077  0.1352 -0.0676  0.0698
21856W        W41390  16.085   2.531  15.812  0.0293  0.2285  0.1998
21857W        W41391   0.760   9.654   2.146 -0.0001 -0.0818  0.3653
21858W        W41392   9.077   9.105  12.852  0.1092 -0.0528  0.0703
21859W        W41393  15.156   8.734  14.266  0.0862 -0.2458  0.0172
21860W        W41394   2.380  12.341   4.382  0.0171  0.1600  0.2180
21861W        W41395   6.656  11.759   3.185 -0.0502 -0.0490  0.3029
21862W        W41396  16.967   2.278  15.542 -0.0498 -0.2659 -0.2196
21863W        W41397   6.813  15.159   2.924  0.0480 -0.0635  0.0715
21864W        W41398  13.661  16.303  12.686  0.2784  0.0729  0.1389
21865W        W41399   9.170   0.981  16.375  0.1535  0.0094  0.1470
21866W        W41400   5.165   5.716  16.659 -0.1840 -0.0324  0.1253
21867W        W41401  11.918  10.842   1.338 -0.1438 -0.3214 -0.1524
21868W        W41402   0.552  17.114   2.189 -0.0113 -0.0624  0.1374
21869W        W41403   1.900   0.811   2.168  0.0482 -0.0649 -0.1713
21870W        W41404   5.632   0.576   4.327 -0.0504  0.1091  0.2572
21871W        W41405   4.012   7.507   0.940  0.0305  0.1093 -0.1278
21872W        W41406   2.080   9.938  16.031  0.1946 -0.2714  0.1973
21873W        W41407   6.361  17.833   4.446 -0.2848 -0.0308 -0.2248
21874W        W41408   9.677  11.596  12.390 -0.3569  0.0570  0.1495
21875W        W41409   0.517   0.132   1.870 -0.0875  0.1344  0.3090
21876W        W41410   0.251  16.804   3.462 -0.1061 -0.0723 -0.0876
21877W        W41411   0.942  11.005   3.908  0.0177  0.0031  0.3774
21878W        W41412  12.343   2.143   0.302 -0.0328 -0.1068  0.3692
21879W        W41413   5.827   2.230  13.969  0.0210  0.2408  0.3166
21880W        W41414   1.429  12.019  16.166 -0.2482  0.0750  0.0559
21881W        W41415  15.174   7.272  12.915  0.0556  0.0234 -0.0968
21882W        W41416   1.798   3.897   4.277 -0.0780 -0.1135  0.0520
21883W        W41417   5.328   2.471  13.427  0.1017  0.1853 -0.0322
21884W        W41418   6.044   0.319   2.098 -0.0936  0.0025 -0.0604
21885W        W41419   9.048   9.170  14.283  0.0714  0.2734  0.3864
21886W        W41420  17.354   1.551  12.372  0.0001 -0.2128  0.0884
21887W        W41421   2.376   2.268  16.188  0.2724 -0.3499  0.1833
21888W        W41422  16.348   7.268   3.649  0.2672 -0.0083 -0.3337
21889W        W41423  14.862   1.470  12.891  0.3729  0.1740 -0.4812
21890W        W41424   0.769   5.495  15.266 -0.1987 -0.1217 -0.0006
21891W        W41425   3.392  10.428  15.416  0.1009  0.1290  0.1650
21892W        W41426  17.443  16.350  13.906 -0.1495  0.5153 -0.3830
21893W        W41427  15.189   4.701   0.398 -0.1230 -0.0595 -0.0642
21894W        W41428   0.058   3.319   2.989  0.0742 -0.0534 -0.3152
21895W        W41429  11.365   6.702  14.345  0.3043 -0.1681 -0.1391
21896W        W41430  14.211   2.763  13.116 -0.1564  0.1322  0.0419
21897W        W41431   7.910  13.779   0.176  0.1455 -0.3168 -0.1065
21898W        W41432  17.268  14.110  12.502  0.3010  0.0638  0.0524
21899W        W41433   0.531   8.698   0.465 -0.2503  0.0620 -0.2052
21900W        W41434  17.662  14.979  15.718 -0.1899  0.1413 -0.1335
21901W        W41435   3.605  17.878  16.440 -0.2999  0.0742  0.0539
21902W        W41436   3.455   1.395   3.824 -0.0910  0.2462 -0.0794
21903W        W41437   3.573  17.165  15.253  0.1931 -0.0905  0.0145
21904W        W41438  12.066  14.143  13.497 -0.1032 -0.2976 -0.0819
21905W        W41439   7.188  12.612  12.818  0.0542  0.3621 -0.1126
21906W        W41440  13.429  14.709  13.416  0.0883 -0.0962  0.0083
21907W        W41441   4.090   1.747  14.527  0.1889  0.2097  0.0475
21908W        W41442   5.067   0.625  14.685 -0.0909  0.0546 -0.0580
21909W        W41443  10.699   0.919   1.473 -0.2554  0.1786 -0.2148
21910W        W41444  11.107  16.441  15.285  0.0041  0.5229 -0.0484
21911W        W41445   3.570   9.143  14.085  0.1789  0.1491 -0.2050
21912W        W41446   6.197   1.091  11.875  0.1132  0.2408  0.4857
21913W        W41447  15.862  14.406   4.002  0.1490 -0.0406  0.0327
21914W        W41448   9.057   3.562   4.396  0.2481 -0.3560  0.1980
21915W        W41449  16.866   2.796   1.587  0.0487  0.1363  0.2199
21916W        W41450  11.680  11.240  11.896  0.0661  0.0522  0.2857
21917W        W41451   7.850   7.562   0.172 -0.4610 -0.1710  0.4050
21918W        W41452  11.237  13.524  13.606  0.3144  0.2739  0.1290
21919W        W41453  17.460   5.138  16.254  0.2387  0.2778  0.1968
21920W        W41454   7.373   9.041   5.691 -0.1028  0.2663 -0.0518
21921W        W41455   4.746   3.611   1.031 -0.2647 -0.0444 -0.2075
21922W        W41456   1.917  16.377   4.146  0.1245  0.1344  0.0158
21923W        W41457   7.288   3.612  16.649 -0.2749 -0.0268 -0.1236
21924W        W41458   3.059  13.834  12.168  0.2654 -0.0422  0.0163
21925W        W41459   9.735  11.679   3.348 -0.0710  0.0951  0.1615
21926W        W41460   6.593   1.875   4.217 -0.2189 -0.4036  0.2304
21927W        W41461  13.864   8.676   0.702  0.1535 -0.1204 -0.0016
21928W        W41462  12.255  11.737  16.066  0.1454 -0.3289 -0.0834
21929W        W41463  13.412  16.598   0.009  0.0487  0.0523  0.2955
21930W        W41464  12.256   5.309   4.665  0.1999 -0.3308 -0.2440
21931W        W41465   9.770  14.484  11.972  0.3215  0.0123  0.0119
21932W        W41466   6.484  10.543   2.269  0.0433 -0.2904  0.0658
21933W        W41467   1.873  13.740  16.451  0.1151  0.1256  0.2335
21934W        W41468   4.897   7.875   1.987 -0.0076  0.0137  0.1948
21935W        W41469  16.270   2.156  13.855  0.0460 -0.1718  0.1007
21936W        W41470  15.028  11.100   3.412 -0.1143  0.0246 -0.2083
21937W        W41471  15.185   9.524   1.929  0.1948 -0.1670  0.2556
21938W        W41472   3.969   5.056  15.156 -0.1104 -0.3934  0.2577
21939W        W41473  10.274   7.425  12.122 -0.0978 -0.1823 -0.0611
21940W        W41474   0.002   3.680   3.452  0.0131 -0.0524  0.1081
21941W        W41475   7.417   5.347   4.321 -0.5696 -0.1499 -0.0153
21942W        W41476  11.292   8.215  15.073  0.0643  0.1060  0.1660
21943W        W41477   5.317   2.058   0.872 -0.0237 -0.1390 -0.1153
21944W        W41478   2.966   2.217   5.626  0.3261 -0.1265 -0.1225
21945W        W41479  12.333  16.676   0.145  0.1943  0.4101  0.2929
21946W        W41480   3.128  13.316  12.305 -0.0568  0.3254 -0.1781
21947W        W41481  11.245   8.738  13.142  0.2345 -0.0457 -0.0541
21948W        W41482  14.592   6.555  12.724 -0.3149 -0.1373 -0.0581
21949W        W41483   7.164   3.606  12.752  0.1743 -0.2493 -0.0224
21950W        W41484  11.870  11.611  13.800  0.0923  0.0098  0.6434
21951W        W41485   5.630  13.515   4.732 -0.1708 -0.0619 -0.1315
21952W        W41486  12.190   2.296   4.790  0.3079 -0.1656 -0.1227
21953W        W41487   4.475   5.323   3.092  0.1675 -0.2606  0.3115
21954W        W41488  17.270   9.418   1.148  0.1904  0.0775 -0.2215
21955W        W41489   1.733   1.041  12.370  0.1430  0.1197 -0.4200
21956W        W41490  13.242   0.771  15.911  0.0259  0.0947 -0.1596
21957W        W41491   2.865  11.158   1.650  0.3419  0.0989  0.5661
21958W        W41492   1.451   7.210  16.305 -0.4110 -0.0923 -0.2790
21959W        W41493  11.178  12.500   2.095 -0.1123  0.4555  0.2228
21960W        W41494   0.680   1.509   1.013 -0.0512  0.0265  0.2640
21961W        W41495   2.281  10.690   2.275 -0.0438 -0.1218 -0.0114
21962W        W41496   6.585   6.420  13.400  0.2032  0.2102  0.1885
21963W        W41497   2.079  15.902   4.138  0.0408 -0.2448  0.0533
21964W        W41498  11.726  14.172   1.595 -0.2684  0.1143 -0.1553
21965W        W41499   3.239  13.090   1.514 -0.1724  0.2375 -0.2096
21966W        W41500   3.454  15.974   3.738 -0.1082 -0.2129 -0.1598
21967W        W41501   1.532  14.053  16.389  0.1888 -0.2355 -0.0961
21968W        W41502  12.685   9.244  11.353  0.1136  0.1076  0.2157
21969W        W41503   1.255   9.571   0.625  0.1237 -0.1122  0.2245
21970W        W41504   9.213  15.608  11.766  0.0181  0.3190  0.1321
21971W        W41505  11.260  12.881   1.029  0.0570  0.0689 -0.1591
21972W        W41506   4.183   7.557  12.020 -0.0372 -0.0553 -0.1293
21973W        W41507  16.098  12.957  15.270 -0.0757  0.0615 -0.3121
21974W        W41508   2.813  16.586  15.382 -0.1018  0.3215  0.5070
21975W        W41509   2.973  11.551  13.444  0.2689  0.1914 -0.0156
21976W        W41510   6.821  10.090  16.056  0.2138 -0.0814 -0.0412
21977W        W41511  15.730   7.702  12.988 -0.3670 -0.4789 -0.3753
21978W        W41512  16.512  12.657  15.401 -0.1001  0.0050  0.0634
21979W        W41513  11.384  10.668   1.119 -0.0281  0.4086 -0.0750
21980W        W41514   0.495   4.276  15.944 -0.0886  0.1323 -0.2005
21981W        W41515   5.015   2.116   3.170  0.0899 -0.0623  0.3449
21982W        W41516   2.631  14.848   5.317  0.1104 -0.1677  0.0586
21983W        W41517   4.495   7.907  15.013 -0.0426 -0.1422  0.2156
21984W        W41518   8.550   1.907  14.169  0.1159  0.0280  0.0844
21985W        W41519   6.484  15.797   0.552 -0.0021 -0.4622  0.2376
21986W        W41520  13.069  11.201   0.692 -0.0627 -0.0386 -0.1096
21987W        W41521  15.130  14.205   0.149 -0.1675 -0.0900  0.2313
21988W        W41522  11.043   7.376   2.355  0.1213 -0.1104 -0.0285
21989W        W41523   1.907   8.570   3.178 -0.1768 -0.0648 -0.2215
21990W        W41524   1.904   0.765  16.251  0.2031 -0.1057 -0.3930
21991W        W41525   0.272   8.200   3.950  0.2284 -0.0704  0.1327
21992W        W41526   6.876  16.715  13.770  0.0683  0.1416  0.1326
21993W        W41527  10.466  11.723  16.178 -0.0461  0.2181  0.1440
21994W        W41528   3.016   6.812   1.924  0.1257  0.1117 -0.1473
21995W        W41529   4.980   4.235  15.240  0.2872  0.2434 -0.1502
21996W        W41530  12.625   5.394   3.815 -0.0160 -0.2845 -0.1846
21997W        W41531   7.623   9.715  16.667  0.1252 -0.0005 -0.1021
21998W        W41532   9.787  11.975  12.008 -0.2714 -0.1202  0.0594
21999W        W41533  10.654  11.279  15.042 -0.2021 -0.1699 -0.2472
22000W        W41534  11.226  17.804   4.820  0.0888 -0.1594  0.0261
22001W        W41535  11.907  16.788   4.210 -0.0275 -0.2541 -0.2338
22002W        W41536   9.292   2.167  15.286  0.0401  0.0489  0.1005
22003W        W41537  17.216  12.779  13.294  0.2288  0.0219  0.0120
22004W        W41538   4.688   8.583  14.889 -0.2032  0.0134  0.0742
22005W        W41539   3.631  16.294   0.975  0.1446 -0.3259  0.1429
22006W        W41540  10.346  13.872   3.441  0.2397  0.0971 -0.1208
22007W        W41541   5.262  11.562   0.499 -0.0266 -0.0506 -0.0023
22008W        W41542   4.385   6.369   3.618  0.1525 -0.1777 -0.1581
22009W        W41543   3.198   7.757  12.821  0.0482  0.3062 -0.0640
22010W        W41544  14.564  16.595  15.377 -0.2102  0.0634 -0.0482
22011W        W41545   4.124  17.807  15.282 -0.0543 -0.2758 -0.1882
22012W        W41546  12.809  16.145   0.908  0.0169 -0.0833 -0.0127
22013W        W41547   9.989   4.602  13.621 -0.0196 -0.1372  0.0063
22014W        W41548   7.316   5.884   3.475  0.1146 -0.2615 -0.4719
22015W        W41549   2.403   7.285   0.182  0.3125 -0.1333 -0.0864
22016W        W41550   4.824  10.364  12.574 -0.0524  0.0769  0.1862
22017W        W41551  13.972   8.619   2.375  0.0326  0.0899 -0.2180
22018W        W41552  10.606   0.518   3.961  0.0911  0.1896  0.0103
22019W        W41553   1.856  16.546   0.849  0.0443  0.4761  0.2169
22020W        W41554   4.478  17.103   0.426  0.1101 -0.0633  0.2136
22021W        W41555   1.430  16.844   1.311 -0.0930 -0.0281 -0.2433
22022W        W41556   5.082   1.472   4.109 -0.2799 -0.1377  0.1882
22023W        W41557   4.512   2.161   3.059  0.1569 -0.0883 -0.1705
22024W        W41558  14.283   7.787   1.178  0.2420 -0.0401  0.1364
22025W        W41559  14.314  17.523  13.377 -0.0579 -0.2028 -0.1314
22026W        W41560  17.095   9.456  12.970 -0.0868  0.2225  0.4323
22027W        W41561   9.761   3.217  14.124  0.2938  0.1626  0.0572
22028W        W41562   6.593  13.977   3.900 -0.0942 -0.3709 -0.3244
22029W        W41563   4.694  10.288  15.890 -0.0901 -0.1202  0.0874
22030W        W41564   7.753   8.434  15.930 -0.1075 -0.1391 -0.1891
22031W        W41565   1.134   4.841  12.887  0.1908  0.2993 -0.2038
22032W        W41566  15.189   0.263  11.882  0.1226 -0.3396  0.1536
22033W        W41567   1.466  16.352   3.877  0.1539  0.1782 -0.0975
22034W        W41568   0.504  16.245   3.227 -0.2709 -0.0271  0.1097
22035W        W41569  13.799   1.227  15.465  0.1285  0.0877  0.1759
22036W        W41570   0.363  11.560  13.570 -0.1442  0.1183  0.0450
22037W        W41571   8.213   2.185  15.247  0.0661 -0.4325 -0.0397
22038W        W41572   8.613  11.372   1.331  0.3620  0.3708  0.0880
22039W        W41573  17.378  13.290  12.643 -0.2741 -0.2040  0.0114
22040W        W41574  10.485  10.576   0.758 -0.0758  0.0850 -0.1016
22041W        W41575  12.016  13.380   1.306 -0.2931  0.0810  0.2153
22042W        W41576   6.584  13.398   3.782 -0.1990  0.0151  0.2357
22043W        W41577   7.963   8.903   0.109  0.3014 -0.4758 -0.0935
22044W        W41578   9.911   6.169   0.787  0.0295  0.0105  0.4052
22045W        W41579   6.056   2.987  12.341  0.5357  0.3301  0.2079
22046W        W41580  13.283  10.770   0.852  0.1843  0.2751  0.2615
22047W        W41581   6.568  14.618   0.926  0.0109  0.3445 -0.1139
22048W        W41582  13.460  13.556   3.536  0.1621  0.0493 -0.0092
22049W        W41583   5.436  11.208   2.900  0.2154  0.0804 -0.0273
22050W        W41584   2.900   0.140   1.138 -0.1571 -0.2137  0.1194
22051W        W41585  14.735  15.775  13.916  0.2207  0.0180 -0.2087
22052W        W41586   9.984  13.862   2.652 -0.1169  0.0542  0.0638
22053W        W41587  11.757   4.034  14.413 -0.0744 -0.0749  0.0419
22054W        W41588   3.693  10.692   0.646 -0.2134 -0.0590 -0.1916
22055W        W41589   7.479   4.333  14.688  0.1650 -0.2360 -0.2785
22056W        W41590  12.060   3.024   3.775 -0.0742 -0.2243 -0.0864
22057W        W41591   4.506   6.889   3.444 -0.1261 -0.1204  0.1334
22058W        W41592   7.209   9.072   3.825 -0.1340  0.2297 -0.3782
22059W        W41593   5.178  16.901   0.912 -0.2508  0.1595  0.0552
22060W        W41594   1.706  14.203   0.191  0.1404 -0.1399  0.1562
22061W        W41595   0.992  11.349   3.591 -0.2746  0.1215  0.1317
22062W        W41596  14.724  13.820   3.493 -0.0901 -0.0126 -0.1044
22063W        W41597  14.828   0.393  16.196 -0.0515  0.0195  0.0838
22064W        W41598   0.439  10.975   4.127  0.1262 -0.1182  0.2020
22065W        W41599   8.034  14.637  14.172 -0.2359 -0.0663  0.0195
22066W        W41600   1.171   0.969   4.404 -0.0454 -0.1086 -0.0293
22067W        W41601  16.400   7.950  15.382  0.4315 -0.0045  0.2603
22068W        W41602   1.080   7.598  10.786  0.1329  0.1125  0.0663
22069W        W41603   2.956   4.719  14.210 -0.0550 -0.1852  0.3119
22070W        W41604  13.441   6.281   1.620 -0.0993  0.0032  0.3099
22071W        W41605   6.470  16.160   3.769 -0.2509  0.0094 -0.0336
22072W        W41606   2.762   5.935   3.544  0.2315  0.1556 -0.0794
22073W        W41607  11.223   4.057  15.467 -0.0523  0.0452  0.0575
22074W        W41608  15.983  14.762  12.050  0.0857 -0.1646 -0.0885
22075W        W41609  15.486   8.736   4.349  0.0572 -0.1933  0.0748
22076W        W41610   2.487  17.365  15.243  0.1247 -0.3487  0.1178
22077W        W41611   6.979  10.140   4.430  0.3201  0.0425 -0.0438
22078W        W41612   0.264  17.376   1.332  0.2807  0.1679 -0.1664
22079W        W41613   7.476   8.533  14.901  0.2701 -0.2813  0.0206
22080W        W41614  16.320   9.313  15.593  0.1296  0.0653  0.1358
22081W        W41615   5.262  13.835   1.888 -0.1227  0.0468 -0.2179
22082W        W41616   0.043   9.255   2.942  0.2574  0.0141  0.1967
22083W        W41617   7.409  17.479   1.505 -0.0520  0.1733 -0.0387
22084W        W41618   1.540   6.647  15.990  0.0816 -0.4723 -0.0893
22085W        W41619  12.213   4.102  13.493  0.0310  0.2038 -0.0360
22086W        W41620   8.281   5.203  14.246  0.0582 -0.0360  0.0520
22087W        W41621   9.696  10.418  12.459  0.1366 -0.0222 -0.1919
22088W        W41622  13.876   1.356   2.929  0.3252 -0.0880 -0.0049
22089W        W41623   5.260   3.014   0.400 -0.0839  0.0639 -0.1107
22090W        W41624   8.054  14.647  15.876  0.1623 -0.2528 -0.1973
22091W        W41625  15.398   3.386   5.091 -0.1806  0.0060 -0.1906
22092W        W41626  14.090  11.688   4.137 -0.3008 -0.2490 -0.0578
22093W        W41627   9.790  15.167   3.292  0.4442 -0.2993  0.1438
22094W        W41628  16.194  12.725  15.760  0.0737 -0.0904 -0.2980
22095W        W41629   1.215   6.012  12.880  0.1189 -0.3326  0.2682
22096W        W41630  10.439  12.254   4.907 -0.0626 -0.1592  0.0926
22097W        W41631   6.398  15.955   4.728  0.3245  0.2604  0.0413
22098W        W41632   1.648  15.553   2.968  0.1168 -0.1151  0.2338
22099W        W41633   0.503   4.752  15.380  0.0518 -0.0766 -0.1413
22100W        W41634   3.521   8.187   1.985  0.3338  0.3043  0.2865
22101W        W41635   8.675   2.398   4.298 -0.0100 -0.0981  0.3254
22102W        W41636  14.276  13.089  14.480 -0.3178 -0.1233  0.0680
22103W        W41637  15.540  11.759  15.821  0.1180 -0.2416 -0.0856
22104W        W41638  12.497   5.174   1.049 -0.1884  0.1748 -0.3613
22105W        W41639   2.251  12.987   2.266 -0.0336  0.0033  0.3341
22106W        W41640   5.251   0.773   2.185  0.1050  0.0938 -0.3602
22107W        W41641   1.001  16.103   0.860 -0.0544 -0.2016  0.3214
22108W        W41642   6.153   6.581  11.801  0.2452 -0.0887 -0.0681
22109W        W41643   0.158  11.167   2.286 -0.0473 -0.0407  0.1492
22110W        W41644  16.300   0.491  13.365  0.2737 -0.2365  0.2985
22111W        W41645   8.090  14.459   3.029 -0.0577 -0.1824 -0.2442
22112W        W41646   9.701  17.378   1.212  0.1236 -0.1389 -0.0967
22113W        W41647  10.102   5.729  11.796 -0.1590  0.2378  0.1946
22114W        W41648   9.977   4.520   4.723 -0.1555 -0.1265  0.0170
22115W        W41649  11.156  14.359   4.349 -0.1005 -0.1474  0.3192
22116W        W41650  13.275   5.760  13.054  0.0456  0.0366  0.0067
22117W        W41651   5.849   7.725   3.042 -0.1441 -0.2931 -0.0439
22118W        W41652   5.572  11.801   3.683 -0.3812  0.0732 -0.1671
22119W        W41653  15.297   1.076   1.737  0.1517 -0.2012  0.0768
22120W        W41654  16.473  12.223  12.238 -0.1546  0.1274  0.4408
22121W        W41655  12.861   4.138   0.034  0.2514  0.1489 -0.3126
22122W        W41656   5.246  11.758  11.975  0.1753  0.3732  0.4219
22123W        W41657  12.152  17.230   4.245  0.0370  0.0730  0.0717
22124W        W41658   7.431   1.134   0.605  0.0813  0.0583  0.3571
22125W        W41659   6.780  12.371  12.451  0.1755 -0.0648  0.0462
22126W        W41660   7.393   2.401  14.318 -0.0744 -0.0815  0.3309
22127W        W41661  16.200  10.598  15.683  0.0986 -0.0114  0.4121
22128W        W41662   6.751   6.795  12.188  0.2542 -0.0912  0.1588
22129W        W41663   1.286   7.606  14.564  0.0224 -0.3468  0.0145
22130W        W41664   1.512   1.472  16.141  0.1149  0.0493  0.1959
22131W        W41665   8.755   3.082   4.629  0.0477  0.1478 -0.2147
22132W        W41666  16.463  16.210  14.046  0.0923 -0.2230  0.1800
22133W        W41667  15.935  14.708  15.059  0.2003 -0.1043 -0.1184
22134W        W41668   6.993   4.463  12.003  0.1685  0.0517  0.3105
22135W        W41669   2.167   4.816   4.266 -0.1240 -0.1441  0.1074
22136W        W41670  16.327   2.614   0.242 -0.0511  0.0700  0.0296
22137W        W41671   6.729   7.795  15.282  0.1409  0.1726  0.1167
22138W        W41672  13.765   7.096  15.625  0.1765  0.0583 -0.1527
22139W        W41673  15.622  11.788  14.152  0.4015 -0.1975 -0.1266
22140W        W41674  11.100  16.690  16.346 -0.0227  0.1892  0.0725
22141W        W41675   9.463   8.830  13.073 -0.3017  0.3194  0.0053
22142W        W41676   2.301  15.508   1.914 -0.0867 -0.3066  0.0621
22143W        W41677  17.539   6.557   0.807 -0.0742  0.2193  0.0584
22144W        W41678  16.722   7.378  14.387  0.0436 -0.1103  0.1499
22145W        W41679   3.889   6.937  14.339 -0.0520 -0.2555 -0.0143
22146W        W41680   1.113   4.923  11.946  0.2844 -0.1896  0.1477
22147W        W41681   7.403   3.541   2.705  0.3431 -0.0806 -0.1517
22148W        W41682   5.467   8.663   4.498  0.0983 -0.2156 -0.1209
22149W        W41683  12.562   7.172   4.325  0.2181  0.2417  0.3777
22150W        W41684  16.271   2.671  14.988  0.1988 -0.1097 -0.0165
22151W        W41685   1.142  11.432   0.143 -0.0873  0.1506  0.0828
22152W        W41686  11.104   5.339  13.014  0.2666 -0.0305  0.2794
22153W        W41687  14.345  14.699  12.780 -0.2601  0.2903  0.3069
22154W        W41688   7.118  12.567   2.963 -0.0558  0.0696 -0.1631
22155W        W41689   7.517   9.014  16.036  0.0440 -0.1446  0.2297
22156W        W41690   9.937   6.190   5.338  0.0013 -0.0929  0.4238
22157W        W41691  17.734   3.624  12.238 -0.0930  0.3388 -0.3260
22158W        W41692  13.321  12.745  14.113 -0.1164  0.0404 -0.1099
22159W        W41693   3.657  17.566  15.576 -0.0780  0.0779 -0.1481
22160W        W41694   7.611  15.892   1.284  0.1289  0.0288  0.3477
22161W        W41695  17.659  11.112  12.843 -0.3460 -0.1017  0.0363
22162W        W41696   1.139  16.127  15.388  0.0198 -0.0674  0.3125
22163W        W41697   4.092  16.317   0.255 -0.1985 -0.0909 -0.0451
22164W        W41698   5.708   4.444   2.144  0.1592  0.0740  0.1430
22165W        W41699  15.356  11.273   0.436 -0.1199  0.2207 -0.1510
22166W        W41700   5.711  14.057  16.533  0.0218  0.0169 -0.1110
22167W        W41701  15.636  14.274   0.034  0.1873  0.2187 -0.1700
22168W        W41702   3.655  10.054  12.455 -0.1779  0.0217  0.3881
22169W        W41703   5.122   0.417  15.137 -0.2008 -0.2470  0.0480
22170W        W41704   7.560   5.576   1.218 -0.1378 -0.0157  0.0219
22171W        W41705  14.333   8.303  14.279  0.0579 -0.1523  0.2340
22172W        W41706  16.171   3.363   1.704 -0.0327 -0.0134 -0.6084
22173W        W41707   3.627   2.316  16.745  0.2299 -0.0585 -0.0564
22174W        W41708  12.248   7.258  12.757  0.2314  0.2884 -0.1528
22175W        W41709   8.541  13.503   4.006  0.1018  0.4016  0.0607
22176W        W41710   8.528  17.088  12.051  0.1979 -0.2273  0.0863
22177W        W41711   2.384  13.069  16.026 -0.0566 -0.0916 -0.0968
22178W        W41712   3.670   7.389  16.507  0.0312 -0.1156 -0.0758
22179W        W41713   1.348  14.474  14.887 -0.3298 -0.1505  0.0535
22180W        W41714   0.144   4.196   3.637  0.3631 -0.3399  0.1667
22181W        W41715   6.890  13.425  12.344 -0.0102 -0.1936  0.2108
22182W        W41716   4.355   1.291  12.352  0.0368  0.2438  0.1826
22183W        W41717  13.026  11.827   4.185  0.0421 -0.2306 -0.1024
22184W        W41718  10.101   7.818  13.566 -0.3596 -0.0535 -0.2913
22185W        W41719  14.087  10.205  12.752  0.1572  0.1456  0.0331
22186W        W41720  15.948  13.499  14.512  0.3628 -0.1952  0.2570
22187W        W41721  13.846  17.501  16.412 -0.2613 -0.0129  0.0266
22188W        W41722  16.734   9.688  15.635 -0.0161 -0.0630 -0.0447
22189W        W41723  16.252   0.583  16.269 -0.1342  0.1924 -0.2408
22190W        W41724   5.943   2.918   2.544  0.2812 -0.3387  0.0334
22191W        W41725   4.291  14.240  16.146 -0.0507  0.1575 -0.1608
22192W        W41726   0.511  10.586   0.242  0.0703 -0.2820 -0.4212
22193W        W41727  10.678   6.603  12.772 -0.2563  0.0493  0.1635
22194W        W41728   1.128   0.562   0.113 -0.3024 -0.1256 -0.1000
22195W        W41729  10.231  16.140   2.160  0.0579 -0.1619 -0.4213
22196W        W41730  10.253  15.889   4.835  0.0775  0.2463  0.1117
22197W        W41731   8.640   1.133   2.911 -0.1678 -0.3746 -0.4918
22198W        W41732  11.978   0.179   5.109  0.2600 -0.0691  0.1760
22199W        W41733   9.274   0.644  16.733 -0.2166 -0.1104 -0.1572
22200W        W41734  10.203  15.747  13.018  0.2100  0.1213  0.0990
22201W        W41735   9.847   1.861   2.775  0.2261 -0.0309 -0.2064
22202W        W41736   0.953   2.938  12.609 -0.2214  0.1544 -0.1932
22203W        W41737   0.618   1.979  13.271 -0.0670 -0.1575  0.0622
22204W        W41738  12.691   6.291   1.867 -0.1709  0.0367 -0.1234
22205W        W41739  11.934  11.095   4.180 -0.0187  0.0643  0.0277
22206W        W41740   4.295   9.787   1.065 -0.0026 -0.1252  0.0873
22207W        W41741   1.478  10.703   3.283  0.2915  0.0721 -0.2017
22208W        W41742   8.460   2.574   3.206 -0.0800 -0.2764  0.0324
22209W        W41743   9.119  11.747  13.155 -0.0516  0.0363  0.0096
22210W        W41744   4.634   6.073   0.758 -0.1864  0.4308  0.0307
22211W        W41745   3.754   6.545   0.097 -0.2792  0.1725  0.3335
22212W        W41746  16.567  17.637  12.405  0.0006  0.0619 -0.0789
22213W        W41747   8.208   4.677   0.292 -0.1129 -0.0205  0.4861
22214W        W41748   1.914  11.887  14.589  0.1993  0.2824 -0.0427
22215W        W41749  17.857  12.651  14.863  0.0373  0.1619 -0.1865
22216W        W41750  10.202  11.432   0.331  0.5536 -0.0487  0.1343
22217W        W41751   2.380   1.807  13.715  0.1152 -0.1916  0.3111
22218W        W41752   7.959  13.016   1.490  0.1092  0.0151 -0.1981
22219W        W41753  13.116  14.196   0.041 -0.1374 -0.0487 -0.0887
22220W        W41754  17.485  11.506   3.336  0.1487 -0.5095  0.2275
22221W        W41755   1.762  12.816  13.657 -0.0976 -0.0840  0.1496
22222W        W41756  14.161  11.498  11.154 -0.0421 -0.0205 -0.1170
22223W        W41757   9.948   9.645   3.678 -0.1071  0.2295  0.0094
22224W        W41758   4.484   9.243   1.136  0.1252 -0.2266  0.1081
22225W        W41759   1.526  11.021  16.203 -0.0145 -0.0996 -0.0749
22226W        W41760   4.419   3.085  15.968 -0.2188 -0.1490  0.0219
22227W        W41761   1.387   3.630  15.946  0.5311 -0.0978 -0.1985
22228W        W41762  12.276  16.329   4.367 -0.2920  0.0148  0.0343
22229W        W41763   6.121   1.467   4.181  0.1076 -0.0673 -0.0269
22230W        W41764   5.708  13.090   1.703 -0.0686 -0.0989 -0.2026
22231W        W41765  13.212  15.833  14.599  0.2380  0.0333 -0.0291
22232W        W41766  16.685   2.949  14.545  0.1651  0.0880 -0.0451
22233W        W41767  13.653   8.350   0.976  0.2642  0.2152  0.1617
22234W        W41768   0.240  16.160  13.428  0.2148 -0.0965  0.3088
22235W        W41769   0.965  15.107   2.619 -0.2968  0.0727 -0.0169
22236W        W41770   8.301   2.992   3.003 -0.2142 -0.1074 -0.1251
22237W        W41771  11.233   9.448  13.264 -0.0722  0.0557 -0.0600
22238W        W41772   6.857   6.135   4.068 -0.2366  0.0425  0.1691
22239W        W41773   7.501  12.158   1.879  0.3082 -0.2903  0.1670
22240W        W41774  16.327   6.857   2.358 -0.1121  0.0423 -0.1101
22241W        W41775   6.267   8.800   2.633 -0.0326  0.0178  0.1664
22242W        W41776  15.629   5.193  14.025 -0.1112 -0.2637  0.2188
22243W        W41777   2.755  16.230  15.782 -0.0915 -0.0135 -0.2575
22244W        W41778   4.784  17.481   4.617  0.2520 -0.0428 -0.0367
22245W        W41779   6.789   0.126  13.914 -0.1703  0.0495  0.2297
22246W        W41780  16.311  16.013  16.702 -0.0198  0.3162  0.1804
22247W        W41781   3.259   0.406   2.536 -0.0628 -0.0682 -0.1783
22248W        W41782   9.615  12.915  15.687  0.2822 -0.0268 -0.0948
22249W        W41783  11.557   8.582  15.310  0.1782  0.0260  0.1109
22250W        W41784   3.618  17.050  15.728  0.4417 -0.0936 -0.1101
22251W        W41785  14.140  14.936   1.878 -0.0923 -0.0909 -0.0277
22252W        W41786  12.122   4.092   1.041  0.1192  0.0269  0.2315
22253W        W41787   2.354  12.495   2.444  0.1170 -0.0107 -0.0318
22254W        W41788   7.002   1.934  11.575  0.0113  0.0547  0.0786
22255W        W41789   0.146  14.846   0.976  0.0518 -0.1227 -0.3679
22256W        W41790  15.995  11.991   4.562  0.0936 -0.1994  0.2525
22257W        W41791   9.557  11.590   2.789 -0.0253  0.0588  0.1343
22258W        W41792   8.208   9.201   3.749 -0.2093  0.0654  0.0180
22259W        W41793  14.435   1.883  14.072 -0.1940  0.1647 -0.0558
22260W        W41794  17.586   9.760   1.223  0.0900  0.1566  0.2388
22261W        W41795   1.814   1.322   0.914 -0.3202 -0.1982  0.1695
22262W        W41796   6.673  13.509   1.946  0.1790 -0.0334 -0.1891
22263W        W41797   8.302   5.080   3.873  0.1269  0.1018 -0.3277
22264W        W41798   8.070   1.368   0.418 -0.0270 -0.0708 -0.1761
22265W        W41799  17.873  17.177   3.431  0.1863 -0.0224  0.0503
22266W        W41800   7.817  16.732  15.615  0.0644 -0.1815  0.1638
22267W        W41801  11.587  11.519   1.158 -0.0951  0.0503  0.1256
22268W        W41802  10.423  14.411   3.349 -0.2324 -0.0148  0.4260
22269W        W41803   4.209  12.228   4.959 -0.2836 -0.2449 -0.1935
22270W        W41804   6.147   8.364   0.909  0.0561 -0.2692 -0.0983
22271W        W41805   8.243   9.900  13.500  0.1777 -0.0117 -0.0216
22272W        W41806  13.393   0.174   3.148  0.0604 -0.0511  0.0897
22273W        W41807  16.844  14.254   0.208 -0.0560  0.1372  0.0452
22274W        W41808   2.337  11.888  14.127  0.0625  0.1094 -0.1244
22275W        W41809   0.615  11.473   2.446  0.1343  0.0708  0.2455
22276W        W41810   1.747   4.774   3.565  0.0021  0.0998  0.2799
22277W        W41811   2.073  15.541  14.672  0.1316  0.4093  0.0715
22278W        W41812  11.148  16.997   3.093 -0.1654 -0.2786 -0.0158
22279W        W41813   1.320   8.683  15.518 -0.1339  0.1771  0.0721
22280W        W41814  17.273  10.188  14.703  0.3196 -0.1184  0.2216
22281W        W41815   5.732  15.814   5.096  0.0493  0.3014  0.2583
22282W        W41816   2.704   8.269   4.477  0.0637  0.2488 -0.0334
22283W        W41817  11.841   6.642  13.452  0.0532  0.0731 -0.0714
22284W        W41818  16.212   2.914  12.816  0.2611 -0.4940 -0.2069
22285W        W41819   0.385   0.383  15.080  0.0753 -0.0486  0.1550
22286W        W41820  11.089  13.462  15.485  0.3022 -0.0120  0.2649
22287W        W41821   2.351  13.509  12.522 -0.2108  0.1630 -0.2076
22288W        W41822  17.686   3.244  11.758  0.2728 -0.0295  0.1889
22289W        W41823  10.212  12.688  13.114 -0.1992  0.0013  0.0690
22290W        W41824  15.244  17.824  14.409  0.4842  0.2428  0.1096
22291W        W41825  17.883   4.354   1.021  0.1952  0.3593 -0.2044
22292W        W41826  10.920   2.865   0.129  0.0212  0.2412  0.2860
22293W        W41827   4.222   8.567  15.845 -0.0236  0.1328 -0.0797
22294W        W41828  10.727  10.444   2.233 -0.3432 -0.4805  0.1016
22295W        W41829  11.103   8.591  15.675 -0.0709  0.2413  0.1252
22296W        W41830  13.954   8.020   2.768 -0.0961  0.0960  0.0603
22297W        W41831   1.296  14.481   4.216  0.0642 -0.1205 -0.2467
22298W        W41832   3.593  17.646   3.613 -0.0601  0.3030 -0.0230
22299W        W41833  12.438   2.467  13.744 -0.1042 -0.0426 -0.1833
22300W        W41834  12.796  10.247   0.477 -0.3498 -0.4206  0.2541
22301W        W41835   5.257   3.048  15.821 -0.1076  0.0313 -0.0780
22302W        W41836   2.464   3.620   3.046 -0.0130  0.2389  0.1963
22303W        W41837   4.539   8.142  13.144 -0.3030 -0.1174 -0.1767
22304W        W41838  17.718   4.670   0.244 -0.0943 -0.2875 -0.0109
22305W        W41839  17.605  10.101   1.570  0.1072 -0.1461  0.1265
22306W        W41840   1.031   1.993   3.854 -0.0416 -0.0400 -0.2752
22307W        W41841  10.657  14.586  15.815 -0.3808  0.1817  0.0347
22308W        W41842  13.014   3.853  13.919 -0.1814  0.0089  0.0437
22309W        W41843   4.389  11.171  12.958  0.1182  0.1430  0.1175
22310W        W41844   1.132  14.543  12.218  0.1482  0.1908  0.1974
22311W        W41845   0.743   9.768  16.405 -0.0523 -0.2138 -0.0776
22312W        W41846  14.356  13.043   0.118 -0.2228 -0.2036 -0.0712
22313W        W41847  16.856   4.930   1.518 -0.3332 -0.5104  0.0185
22314W        W41848  17.811  12.917   2.472  0.0581 -0.0546 -0.1992
22315W        W41849  16.626   6.221  14.423  0.1161  0.1642 -0.0416
22316W        W41850  12.786  13.527   2.413  0.0230 -0.2171 -0.2223
22317W        W41851   6.165   7.392   3.311  0.1785  0.0826  0.1177
22318W        W41852   6.101   0.280   2.601  0.2094  0.2842 -0.3935
22319W        W41853   2.289  17.415   2.280 -0.0837  0.0469 -0.2743
22320W        W41854   1.036   5.666  16.235  0.1915  0.0929 -0.1615
22321W        W41855   8.756  16.839   2.610  0.2147 -0.2320 -0.1622
22322W        W41856   8.309   4.539  10.514 -0.0979 -0.1542  0.1105
22323W        W41857   2.327  13.631   4.757  0.0204  0.0884  0.0308
22324W        W41858   2.219  10.497   4.009  0.2767 -0.0558 -0.0316
22325W        W41859  11.424   8.670  12.546  0.0616 -0.0840 -0.0351
22326W        W41860  10.509  12.588  14.030 -0.0239  0.0811 -0.0331
22327W        W41861  14.390   7.568  12.965  0.0621 -0.0315 -0.0604
22328W        W41862  12.721   9.839  16.095  0.0495 -0.0670  0.0588
22329W        W41863  13.451   3.690  11.757 -0.4532 -0.2794  0.0885
22330W        W41864   3.552  10.523   0.128 -0.0124  0.0589 -0.0484
22331W        W41865   6.192  11.948  16.091 -0.0730 -0.2811  0.0198
22332W        W41866   8.832   4.899   2.144 -0.2862 -0.0452 -0.2297
22333W        W41867  11.069  15.877  13.176 -0.4228  0.2541  0.2376
22334W        W41868   3.235   3.390  12.950 -0.0810 -0.1099 -0.0567
22335W        W41869   1.701   2.288   0.623  0.2560  0.0389  0.1221
22336W        W41870   0.531   8.781  15.766  0.0671  0.0782  0.2499
22337W        W41871   4.716  10.890   4.098  0.1274  0.0328 -0.1306
22338W        W41872   8.422   6.193   2.757 -0.1248 -0.1348 -0.0670
22339W        W41873   4.975  11.456  13.082  0.0897 -0.0300 -0.1199
22340W        W41874  11.369  12.353   1.321  0.2767 -0.1180  0.1256
22341W        W41875   2.426   9.456   2.116  0.1625  0.0870  0.1704
22342W        W41876  11.151  15.183   4.120  0.0167  0.0818 -0.0175
22343W        W41877  10.230   3.948  13.882 -0.2347  0.1379  0.1098
22344W        W41878   2.536  13.463  13.504 -0.1190 -0.1005  0.0289
22345W        W41879   5.133  10.929  16.203  0.2118  0.0278  0.0764
22346W        W41880   8.461  15.667  12.400  0.0092 -0.1926 -0.1714
22347W        W41881   0.351  12.150   4.516  0.2807 -0.0113  0.1142
22348W        W41882   3.676   1.519   6.050 -0.1697  0.0223  0.0807
22349W        W41883   7.738   1.540   0.085 -0.0335 -0.0041 -0.2475
22350W        W41884   5.576  13.708   1.079  0.1524  0.0160 -0.3008
22351W        W41885   5.307   8.213   3.537  0.0886  0.0877  0.1202
22352W        W41886   1.087   1.168   1.229 -0.0385  0.2632  0.1348
22353W        W41887  10.948   0.651   2.698  0.1898  0.2313 -0.2920
22354W        W41888  15.724   8.131  12.683 -0.2582 -0.2516  0.0370
22355W        W41889   6.915  12.414  15.433 -0.0086  0.2679 -0.1228
22356W        W41890  14.658  17.645   4.378 -0.4312 -0.1728 -0.1499
22357W        W41891   8.290   1.768   2.641  0.0181 -0.2959  0.0877
22358W        W41892  17.622   6.416  15.295 -0.1899 -0.0630  0.1001
22359W        W41893  11.672  13.665   1.681 -0.2835  0.3031  0.1816
22360W        W41894  13.305  10.157   2.899  0.0556 -0.1368  0.0675
22361W        W41895   7.367   2.120   3.903 -0.0719  0.0690 -0.0142
22362W        W41896   2.699  15.385  13.783  0.0615 -0.0086 -0.0650
22363W        W41897  15.799  14.212  13.530 -0.2058  0.2639  0.3621
22364W        W41898  14.389  17.291   4.104 -0.0046 -0.0730  0.0627
22365W        W41899  14.591  11.218  14.958  0.0717  0.2588 -0.2376
22366W        W41900  13.317   1.339   2.857 -0.1126  0.1601 -0.1385
22367W        W41901   7.114  10.524  12.370  0.1339  0.0909 -0.1091
22368W        W41902  13.059  13.718  13.317 -0.1229  0.1343 -0.1372
22369W        W41903   6.724  17.584   2.241  0.1499  0.1435  0.1026
22370W        W41904   6.153   5.807  12.688 -0.0706 -0.1123  0.0722
22371W        W41905  11.610   4.440   4.884  0.2597  0.1398 -0.3149
22372W        W41906   0.921  13.612  15.551 -0.0131  0.3652  0.0247
22373W        W41907  17.490   7.018   3.542  0.3041 -0.0007  0.2419
22374W        W41908  16.984   0.801   2.115  0.3124  0.0554 -0.0204
22375W        W41909  15.510   6.016   1.580  0.2942 -0.1198 -0.0951
22376W        W41910   9.969   1.173   1.844  0.1052 -0.1445  0.2942
22377W        W41911   4.097   3.604  12.216  0.1469  0.3064 -0.0604
22378W        W41912  10.617   7.917  13.494 -0.0158 -0.2854  0.2474
22379W        W41913   9.026   3.066   2.645  0.0943  0.0616  0.0958
22380W        W41914   4.003  16.912  15.163 -0.2903  0.0493  0.0628
22381W        W41915   9.533   1.317   3.915 -0.3271 -0.1293 -0.0629
22382W        W41916  17.716   6.011  16.431 -0.2745 -0.2869 -0.1402
22383W        W41917   2.103   7.916   1.024 -0.1483 -0.3834  0.1183
22384W        W41918  17.611  10.253   3.766 -0.0128 -0.0942  0.3106
22385W        W41919  10.941   9.295   0.154 -0.0150 -0.1851  0.2253
22386W        W41920   9.788   5.527   0.996 -0.1013  0.1501 -0.2038
22387W        W41921   7.691  16.002   4.476  0.2048  0.2961 -0.0231
22388W        W41922   0.592  14.320  13.952 -0.2085 -0.1813 -0.0581
22389W        W41923   6.930   6.160   0.919 -0.1107 -0.0739 -0.1636
22390W        W41924  12.777   3.103   1.318 -0.0067  0.1192 -0.0635
22391W        W41925  14.807   2.174  10.700  0.3473  0.0802 -0.0464
22392W        W41926   4.398   5.775  15.999  0.0002  0.1782  0.2724
22393W        W41927   8.235   8.766   2.299 -0.0898  0.0843  0.0972
22394W        W41928  14.864   3.035   1.306  0.0237 -0.1838  0.1233
22395W        W41929   1.290  13.686   3.593  0.0074 -0.1265 -0.3553
22396W        W41930   0.692  11.767   1.381 -0.3794 -0.0574 -0.2136
22397W        W41931   4.712   3.254  13.504  0.1248 -0.0312  0.0427
22398W        W41932   4.507  13.207   4.101  0.1212 -0.0154  0.0233
22399W        W41933  15.283   7.358  16.300  0.2548 -0.0010 -0.0370
22400W        W41934   3.746  12.552   2.716  0.0123 -0.1866  0.0775
22401W        W41935   1.756  15.833  12.148  0.1697 -0.2291  0.3191
22402W        W41936   7.056  16.419   4.988  0.2162  0.0960 -0.0878
22403W        W41937  15.784  10.674   1.749  0.0149  0.1605 -0.0960
22404W        W41938   5.776  11.497  11.521 -0.0031 -0.1226  0.2355
22405W        W41939   9.076   4.196   2.066 -0.0350 -0.0689 -0.2269
22406W        W41940   3.036   8.811  15.596 -0.0529  0.0702 -0.0513
22407W        W41941  13.400   2.505   4.327 -0.3969  0.1913  0.0731
22408W        W41942  16.622   6.885   3.253 -0.1110  0.2143  0.0778
22409W        W41943  14.375  15.846  13.060  0.1626  0.2381 -0.1823
22410W        W41944   2.983   6.031  16.032  0.1807  0.0558 -0.0846
22411W        W41945  14.763   5.137   4.039  0.0413 -0.3607 -0.2428
22412W        W41946   3.254   0.007   4.795  0.3161 -0.4420  0.1948
22413W        W41947  10.534  15.643  15.899  0.0350 -0.1303  0.0064
22414W        W41948  13.938   2.678   2.489 -0.0560 -0.3131  0.3126
22415W        W41949   0.151   6.141  15.880 -0.1078  0.4691 -0.2380
22416W        W41950  10.146  12.491   0.363 -0.1530  0.3399  0.1279
22417W        W41951  12.932  15.147   3.619 -0.0209  0.1438  0.0438
22418W        W41952   2.798   4.845   1.162 -0.1503  0.0037 -0.0284
22419W        W41953   3.774   3.502   3.451 -0.1851  0.1432 -0.1963
22420W        W41954   7.800   9.669   2.924 -0.1193  0.1472  0.2164
22421W        W41955   7.558   4.923   5.016  0.0731  0.0061 -0.1541
22422W        W41956  16.076  17.885   3.447 -0.0543 -0.1722 -0.3013
22423W        W41957  12.474   8.732   0.637  0.1450 -0.3338 -0.0832
22424W        W41958   8.215  17.138   1.529  0.1413  0.1397  0.0069
22425W        W41959   7.431  11.915   2.844  0.0543 -0.1318 -0.1080
22426W        W41960  17.490   3.172   4.266 -0.0416  0.2672  0.0644
22427W        W41961   4.266  10.900  16.299 -0.2862  0.2322 -0.0419
22428W        W41962   3.158  13.517  15.748  0.0251 -0.3718  0.1941
22429W        W41963   9.824  10.924   1.274 -0.2636 -0.0033 -0.2733
22430W        W41964  12.420   5.765  16.033  0.0843  0.1614 -0.0807
22431W        W41965  15.766  14.374   0.532 -0.0093  0.0675 -0.1170
22432W        W41966   2.282   1.633  14.333 -0.0257  0.1977  0.4193
22433W        W41967  14.451  14.019  14.729 -0.1352  0.2079  0.2568
22434W        W41968   4.718   8.435   4.799 -0.0032  0.1717  0.0636
22435W        W41969   8.846  16.113  16.694  0.1857  0.1188  0.0343
22436W        W41970   7.815   7.892   5.110 -0.2728  0.1372  0.1708
22437W        W41971  12.798  15.823   2.688  0.0013 -0.2852  0.0522
22438W        W41972  16.053  13.384  15.606  0.0419 -0.0083  0.1477
22439W        W41973   4.182   4.729  14.320  0.0334  0.1611 -0.0863
22440W        W41974  15.644   5.538   4.469  0.1013 -0.1232 -0.0033
22441W        W41975  11.098   3.684  11.666  0.1439 -0.2499 -0.0242
22442W        W41976   0.946  10.402  12.976 -0.0177 -0.1602  0.0116
22443W        W41977  15.573   7.814  14.071  0.5102 -0.0831 -0.3164
22444W        W41978   8.537   9.083   4.040 -0.0823  0.0454 -0.2526
22445W        W41979  12.912   0.041   0.897 -0.0902 -0.1578 -0.0399
22446W        W41980   7.911   7.701   0.997  0.3615 -0.2070 -0.1498
22447W        W41981  10.645   2.841  16.336 -0.2334 -0.2194 -0.5247
22448W        W41982   2.182  11.962  12.349 -0.0912  0.0203 -0.2728
22449W        W41983  11.133  10.276   1.452 -0.0725 -0.0470  0.0471
22450W        W41984   1.630  13.620   3.072 -0.0466  0.1083  0.1279
22451W        W41985   2.797  10.641   3.258 -0.0567  0.1702 -0.2755
22452W        W41986   6.276   3.667   1.739 -0.1029  0.1682 -0.0615
22453W        W41987   8.305  12.495  12.107  0.0460  0.0984 -0.0211
22454W        W41988  17.294  16.382  13.411  0.0684  0.0957 -0.1318
22455W        W41989   4.648   1.535   1.834  0.3069 -0.1747  0.2271
22456W        W41990   6.505  15.668   1.962  0.0467 -0.1130 -0.1496
22457W        W41991  14.960   5.302   1.297  0.0578 -0.1264 -0.0547
22458W        W41992  16.961   2.309   3.066  0.0134 -0.1216  0.0511
22459W        W41993  17.099   1.304   2.379  0.0290  0.3864  0.3325
22460W        W41994  13.262  17.539  15.711  0.1450  0.0385  0.1184
22461W        W41995   2.325  10.088  11.908  0.1141 -0.0712  0.0361
22462W        W41996  11.696   0.156   1.734  0.1396 -0.0668  0.3126
22463W        W41997   1.756  15.178   4.680  0.0688  0.3098 -0.3967
22464W        W41998   6.864   1.459   2.737 -0.1437 -0.3124 -0.2347
22465W        W41999  14.725  17.385  12.466 -0.0669 -0.0489 -0.0041
22466W        W42000   2.593   4.233   2.284  0.1197 -0.1048  0.1538
22467W        W42001   6.984  15.716   3.728  0.1152 -0.0603 -0.1030
22468W        W42002   1.885  11.149   1.656  0.2351 -0.1232  0.0212
22469W        W42003   4.552   7.511   0.974 -0.0363  0.1171 -0.1789
22470W        W42004   6.483  12.532   1.627  0.0726  0.0145 -0.0028
22471W        W42005  12.903   9.573   3.532  0.0783  0.1724 -0.1888
22472W        W42006  10.382   6.140   3.993 -0.0984  0.1835 -0.0354
22473W        W42007   2.308   9.559  13.120 -0.2146 -0.0762  0.1286
22474W        W42008  13.192  13.168  12.254 -0.3801  0.1508 -0.0255
22475W        W42009   6.011  14.407   0.002 -0.1628 -0.4365  0.1516
22476W        W42010  15.101   8.418  13.790 -0.0368  0.0238 -0.0014
22477W        W42011   4.787  15.733  15.455 -0.1064 -0.1205 -0.0357
22478W        W42012   0.530   4.284  13.303  0.4250  0.1263  0.1659
22479W        W42013   9.487  16.814  14.806 -0.2250  0.0867  0.3005
22480W        W42014  14.343   9.502  12.520  0.1339  0.1664 -0.0017
22481W        W42015  10.603  10.515   2.881 -0.3361  0.1307  0.1450
22482W        W42016   6.059   5.947   5.408 -0.0215  0.3307 -0.3155
22483W        W42017  16.062  12.722   0.873 -0.1552  0.0025 -0.1050
22484W        W42018  14.250  10.565   4.585  0.1400 -0.0737  0.2601
22485W        W42019   6.013   3.504  12.364  0.2748  0.1055 -0.2398
22486W        W42020   4.410  10.533   3.319 -0.1279  0.0098  0.0102
22487W        W42021  15.673  14.668  14.594 -0.0803 -0.1635 -0.3281
22488W        W42022  10.518   8.086   3.394 -0.2470  0.0358 -0.1992
22489W        W42023   0.032  10.784   4.398  0.3440 -0.0815  0.1246
22490W        W42024   8.811  16.024  13.492  0.2924  0.0427 -0.1450
22491W        W42025  10.002   7.595   1.933  0.2303  0.0341  0.1520
22492W        W42026   8.124  14.422  15.376  0.1800  0.0642 -0.3064
22493W        W42027   9.737   9.590  14.719  0.1098  0.1923 -0.0644
22494W        W42028   2.785   5.959   1.992 -0.1266  0.0991 -0.3224
22495W        W42029   9.070   3.744   0.244 -0.0568 -0.2426 -0.0547
22496W        W42030   3.605  12.157   0.115 -0.0083  0.1826 -0.0985
22497W        W42031   4.254   9.743   2.512 -0.1810 -0.0544 -0.1800
22498W        W42032   9.123   3.546  13.422  0.1473  0.1821  0.2935
22499W        W42033  11.494  10.336  16.019 -0.2506  0.2225 -0.1829
22500W        W42034  12.265   3.899  12.208  0.2690 -0.0524 -0.0473
22501W        W42035   8.874  14.289  13.450  0.0908 -0.0861 -0.2533
22502W        W42036   6.328  12.806   2.554  0.2821  0.0879 -0.2309
22503W        W42037   3.316   5.775  14.998  0.1678  0.2946 -0.0044
22504W        W42038  16.091   7.125   1.158  0.3186  0.0414  0.1735
22505W        W42039   4.837  15.579   2.072  0.0020 -0.1270 -0.2633
22506W        W42040   9.864  12.035  13.700  0.1997 -0.3343  0.1964
22507W        W42041   3.662   9.474   4.303  0.3885 -0.0645 -0.2810
22508W        W42042  15.818   4.281  12.241  0.1324  0.0478  0.0576
22509W        W42043  17.196  16.992  14.882 -0.1041 -0.2082  0.0523
22510W        W42044  14.487   3.065  13.923  0.3005 -0.2423 -0.0309
22511W        W42045  16.074   2.534   1.524  0.0134  0.2845 -0.1985
22512W        W42046   5.989  16.810  12.667 -0.0248  0.4012 -0.0296
22513W        W42047   0.809   0.198  14.617 -0.0075  0.1427  0.3469
22514W        W42048  16.583  16.066   1.314  0.0083  0.0733  0.1709
22515W        W42049   1.247   9.580  12.148 -0.0688 -0.1836 -0.0653
22516W        W42050  13.113  11.526  14.948 -0.1869 -0.2503 -0.1248
22517W        W42051   2.699  14.163  12.190 -0.1417  0.1146 -0.0174
22518W        W42052   4.199   5.827   4.140 -0.0629 -0.0198  0.1062
22519W        W42053   5.596   0.154  14.499 -0.0365 -0.0053 -0.3943
22520W        W42054   4.700   6.713  10.627 -0.1555 -0.0322  0.4432
22521W        W42055  15.890  11.159   2.387  0.1432 -0.1955 -0.0249
22522W        W42056   1.110  10.796  15.891  0.0632 -0.4308  0.0937
22523W        W42057   5.890  14.589  14.049 -0.0248 -0.1741  0.0173
22524W        W42058   6.331   4.296  16.590 -0.0360  0.0056  0.1248
22525W        W42059  13.767  17.488  15.920  0.0991  0.2610  0.1302
22526W        W42060   2.225   0.207  14.551 -0.3003  0.0677 -0.0211
22527W        W42061   9.834   6.126  12.486  0.2069 -0.0691  0.0173
22528W        W42062   0.599   1.243  15.758 -0.3147  0.0189 -0.1160
22529W        W42063   4.422  14.993   0.395  0.1496 -0.2925  0.0942
22530W        W42064   3.278  16.779  13.537 -0.0884 -0.1748 -0.1906
22531W        W42065  17.380  11.573   0.399 -0.1792 -0.0502  0.2033
22532W        W42066   9.048   8.514   2.750 -0.3050 -0.0257 -0.0341
22533W        W42067   8.203   7.197   1.541  0.2280  0.0101  0.0604
22534W        W42068  11.815  12.935  16.625 -0.1810  0.1726 -0.0313
22535W        W42069   9.235  17.090   1.138 -0.0170  0.1498 -0.0115
22536W        W42070   4.352   7.539   4.138 -0.1194 -0.3724  0.0503
22537W        W42071  10.140  14.361  15.537 -0.0356  0.1923 -0.4948
22538W        W42072  11.355   6.519   2.399  0.0824  0.0623 -0.0380
22539W        W42073   5.010   0.250  12.770 -0.1938  0.1481 -0.2708
22540W        W42074  11.432  16.752   4.727  0.1394 -0.0513 -0.0458
22541W        W42075   3.882   8.032  11.969  0.1894  0.0094 -0.0261
22542W        W42076   2.157   4.758   0.531  0.1239 -0.1430 -0.1469
22543W        W42077   0.835   5.586  14.212  0.1070  0.0148 -0.0548
22544W        W42078   8.263   7.789  13.445  0.1680  0.1423  0.0628
22545W        W42079  10.028  10.743  13.418  0.2758  0.0467 -0.1349
22546W        W42080   8.510  13.134  14.941 -0.1429 -0.0957  0.1571
22547W        W42081   2.139  16.939  13.409 -0.1317 -0.1772 -0.2633
22548W        W42082  11.214  17.144  15.591 -0.4126  0.0167  0.1977
22549W        W42083   7.688  10.662   0.050 -0.0313  0.0512 -0.3544
22550W        W42084  12.174   2.468  14.496  0.3117  0.4187 -0.0280
22551W        W42085   6.729  14.293   1.775  0.1137  0.0100  0.1329
22552W        W42086   1.981  15.094   1.561  0.2213  0.0442 -0.1992
22553W        W42087  11.116   1.236   1.651  0.2858 -0.1673  0.0491
22554W        W42088   6.413  10.831   1.180 -0.1612 -0.0866 -0.0561
22555W        W42089  17.251   0.448   4.055  0.2658 -0.3210  0.1342
22556W        W42090  10.354   2.096  16.501 -0.0019 -0.1946  0.0651
22557W        W42091   1.154   5.094  12.429 -0.0960 -0.1506  0.1011
22558W        W42092   7.191  16.551  16.355 -0.0680 -0.0529  0.0836
22559W        W42093   8.154   4.995   1.083 -0.3004 -0.2156  0.1032
22560W        W42094   5.296   7.123   4.298  0.1173 -0.0565  0.1794
22561W        W42095   2.374  13.017   0.163  0.1267 -0.1100 -0.1066
22562W        W42096  14.762   9.373   4.470  0.2212  0.1247  0.2006
22563W        W42097   6.933   2.293  14.066 -0.1134 -0.0275  0.1464
22564W        W42098  14.703   1.319  16.030 -0.1399  0.1332  0.2035
22565W        W42099   4.923   1.449  13.025  0.1617  0.0697  0.0253
22566W        W42100   7.575  14.471  16.051  0.1803 -0.0453 -0.2178
22567W        W42101   8.701   8.872  16.315  0.3007  0.0026 -0.0937
22568W        W42102  11.279  10.380   0.695 -0.1043 -0.0188  0.0369
22569W        W42103  14.491  17.807   2.273  0.2593 -0.1404 -0.4098
22570W        W42104  14.336   4.422   5.236  0.1811 -0.0820 -0.3452
22571W        W42105   9.110   3.363   3.444 -0.0861 -0.0287  0.1579
22572W        W42106  10.618   7.043  12.057 -0.0266 -0.1851  0.0260
22573W        W42107  10.095  10.247  12.130 -0.0313  0.0370 -0.0312
22574W        W42108  13.378   6.108  15.977  0.1106  0.1649  0.4038
22575W        W42109  10.685   4.839   1.801  0.1056  0.2737 -0.0227
22576W        W42110   2.355   1.636   1.008  0.1781 -0.1349  0.0447
22577W        W42111   5.039   5.286  12.234  0.0700 -0.1004  0.2195
22578W        W42112   2.562  17.038   0.404  0.2802  0.1155 -0.2961
22579W        W42113  16.599  12.747   0.394  0.0095 -0.0082  0.1564
22580W        W42114   0.546   5.278  15.753  0.3026 -0.0356  0.1469
22581W        W42115  16.030   8.135  12.313  0.2117 -0.2727 -0.4034
22582W        W42116  17.201  14.591  12.729 -0.0630  0.1198 -0.2785
22583W        W42117   6.975   2.878  11.758  0.0876  0.1668 -0.1398
22584W        W42118  16.976   7.737  12.521 -0.1073  0.0282  0.0145
22585W        W42119   5.926  17.744  12.709  0.0080  0.0527  0.0653
22586W        W42120  13.460   4.341   0.391 -0.1279 -0.1562 -0.2055
22587W        W42121  14.375  14.230  13.182 -0.0233  0.2071 -0.0392
22588W        W42122  17.770   5.481  15.396 -0.0189  0.1693  0.0573
22589W        W42123  17.726   6.391  14.746 -0.0780  0.1826  0.2099
22590W        W42124  15.649   3.276   3.470  0.3214  0.2055 -0.1887
22591W        W42125   8.329   1.063   3.572 -0.2156 -0.0934  0.0325
22592W        W42126  13.156   6.134  15.179  0.1944  0.0012  0.0757
22593W        W42127  11.371   0.539   3.465  0.0313  0.2086  0.1945
22594W        W42128   8.392  14.266  15.782  0.0079  0.2826  0.1197
22595W        W42129   3.357  13.975  13.373  0.2566 -0.1206 -0.0375
22596W        W42130  13.211   1.733   3.228 -0.1169  0.4100 -0.0470
22597W        W42131   6.807   4.954   0.886 -0.3377  0.1900 -0.1883
22598W        W42132   4.107   9.107   3.679  0.1538 -0.1008 -0.2889
22599W        W42133   2.763   2.633   1.401  0.0077  0.3175  0.2450
22600W        W42134   9.282   6.744   0.344  0.3771 -0.2428 -0.0606
22601W        W42135   2.714  14.708  13.179  0.1106 -0.0722  0.0293
22602W        W42136  15.683   6.856  14.374  0.2177  0.0295  0.0635
22603W        W42137   3.043  12.501   5.207  0.0689 -0.1523  0.0933
22604W        W42138   2.771  13.323   4.200 -0.0345  0.0234 -0.0476
22605W        W42139   3.503   9.791   1.949 -0.0000  0.1356 -0.0971
22606W        W42140   8.111  11.587  13.059  0.0209  0.2137 -0.0432
22607W        W42141   8.698  12.303  13.093  0.5495 -0.0502 -0.1465
22608W        W42142   0.953   9.089   2.274  0.0700 -0.1778 -0.0969
22609W        W42143   1.453   2.223   4.013  0.3337  0.0546 -0.0941
22610W        W42144  15.041  17.199   4.163 -0.2356  0.0746 -0.2151
22611W        W42145   7.794  10.303  12.183 -0.1247  0.3189 -0.2291
22612W        W42146   0.999   8.326   4.429  0.3207  0.0956 -0.1621
22613W        W42147  17.055   0.805  12.839 -0.0994  0.4561 -0.2990
22614W        W42148   1.578   4.382  15.401 -0.0933  0.0190  0.1240
22615W        W42149   4.150  15.465   3.840 -0.0911  0.0936 -0.0809
22616W        W42150   8.010  13.422   1.256 -0.1322  0.3025 -0.1735
22617W        W42151  15.906  16.835   1.367  0.2487  0.1883  0.1909
22618W        W42152   7.870   5.158  13.948  0.0322 -0.3732  0.0050
22619W        W42153  13.005   6.586  16.574  0.2626 -0.0506  0.0241
22620W        W42154   5.098   0.171  13.739 -0.1042 -0.1614 -0.1611
22621W        W42155   8.183   5.539   1.952  0.2094 -0.1119  0.0292
22622W        W42156   5.681   4.408   5.247  0.0011 -0.0087 -0.0525
22623W        W42157   5.573  13.030   4.741 -0.2989 -0.2397 -0.4687
22624W        W42158   3.291   0.244  12.268 -0.0963 -0.1645  0.0322
22625W        W42159   8.158  16.090   4.103  0.0625 -0.0056 -0.2592
22626W        W42160  15.153  15.002   4.108  0.0184 -0.1531  0.2519
22627W        W42161  11.676   0.837  14.063  0.0378 -0.2240 -0.1781
22628W        W42162   4.429   8.884  15.380 -0.0697  0.1490 -0.3193
22629W        W42163   0.968  13.329   4.503  0.3947  0.0149 -0.2726
22630W        W42164   9.388   7.916   1.149 -0.0432 -0.2699 -0.3014
22631W        W42165  10.967   1.311   1.117 -0.1806  0.1043  0.6398
22632W        W42166  13.251   5.060   3.061 -0.1377  0.2196 -0.2603
22633W        W42167   2.247   6.913  13.361 -0.2680 -0.0740 -0.2738
22634W        W42168  15.620   5.991  12.408 -0.1245 -0.2900 -0.2318
22635W        W42169  16.851   3.947   0.519  0.2560  0.0237  0.0612
22636W        W42170  12.423   8.689   3.092 -0.1543 -0.4138 -0.3145
22637W        W42171  11.285  13.776  15.973  0.2593 -0.1685 -0.1229
22638W        W42172  15.186  17.632   4.508 -0.2402 -0.2104 -0.0588
22639W        W42173  13.883   3.038  13.994  0.0448  0.0888  0.1154
22640W        W42174   9.495  14.945   4.929  0.1239 -0.2088  0.1957
22641W        W42175  13.264   2.503  13.665  0.0537 -0.1024 -0.0109
22642W        W42176   8.971   8.143   3.184  0.0676 -0.0043 -0.1184
22643W        W42177   1.328   3.050   1.784  0.0885 -0.0778 -0.2177
22644W        W42178  16.216   8.598   2.445  0.0934  0.1052  0.0958
22645W        W42179   6.038   2.656  15.895  0.0046 -0.0226  0.0910
22646W        W42180  11.350  17.503   4.017 -0.4963 -0.1838  0.2135
22647W        W42181   0.173   6.776  11.678 -0.1399  0.3259 -0.2965
22648W        W42182  16.612  10.178   0.556 -0.0262  0.1462 -0.1420
22649W        W42183  16.810  16.957  16.426  0.3044 -0.1357  0.0172
22650W        W42184   6.170   5.125  15.992  0.0663 -0.0132  0.0313
22651W        W42185   0.482   7.645  11.646  0.2169 -0.0081 -0.3463
22652W        W42186  16.274   6.734  12.305 -0.0224 -0.0174 -0.0617
22653W        W42187  13.623  16.110   0.167 -0.1311  0.1429  0.1203
22654W        W42188   4.437  14.963  15.333 -0.0331  0.1957  0.2021
22655W        W42189  17.382   0.124  14.734 -0.0993  0.1091 -0.2506
22656W        W42190  12.446   5.668   2.899  0.2530  0.1016  0.1424
22657W        W42191   1.372   4.497  15.852 -0.0694  0.0688  0.1484
22658W        W42192   1.629   2.228  14.671  0.0251  0.1769  0.3483
22659W        W42193   2.928   6.781  14.506  0.0460 -0.0291 -0.1417
22660W        W42194  14.246   9.455   3.910 -0.0861 -0.1009  0.1446
22661W        W42195   2.967  16.803  12.804 -0.0681 -0.2217  0.0857
22662W        W42196   5.997   1.569  13.325  0.2832 -0.2376  0.4180
22663W        W42197  15.503  10.646  14.056 -0.1963 -0.0858 -0.2777
22664W        W42198   6.354  13.980   0.916  0.2471  0.1168 -0.0504
22665W        W42199  12.052  14.984   0.020  0.0406 -0.2043  0.0334
22666W        W42200  11.898  15.935  14.515 -0.0173 -0.2544  0.1179
22667W        W42201   6.914   5.339   1.853  0.1575  0.1068  0.1059
22668W        W42202  10.210   3.992  16.542 -0.1123 -0.3734 -0.1432
22669W        W42203  11.184  14.709  16.282 -0.2738 -0.0453 -0.4737
22670W        W42204  13.134   3.597  14.520 -0.0566  0.1487 -0.1128
22671W        W42205  17.305   2.155   0.575  0.2139 -0.0010  0.5469
22672W        W42206   9.432   5.940   0.777  0.0645  0.0459 -0.1449
22673W        W42207   4.700   9.965  13.508 -0.2116 -0.1442  0.1154
22674W        W42208  13.458   1.666  12.525  0.0731 -0.1283  0.1465
22675W        W42209  16.211   9.873  14.049 -0.0561  0.1745 -0.1160
22676W        W42210  14.355  15.047  16.696  0.1660  0.2856 -0.3486
22677W        W42211   3.956  14.798  14.471 -0.1591 -0.2480  0.1147
22678W        W42212  14.696  11.820  16.478  0.0849  0.1321 -0.1326
22679W        W42213  12.008   3.782  12.593 -0.0167 -0.0385  0.2662
22680W        W42214   9.722   7.669   2.363  0.2890 -0.0951  0.2984
22681W        W42215   6.210   3.433  14.198 -0.1223 -0.1352 -0.1253
22682W        W42216  11.298   5.394   0.711 -0.1699 -0.1331  0.2316
22683W        W42217   8.652  11.257  14.021  0.0607 -0.0012  0.0852
22684W        W42218   6.135   0.107  14.338 -0.1194  0.0714 -0.0445
22685W        W42219  11.042  16.129   2.641  0.0495 -0.3287  0.0315
22686W        W42220  17.648   0.365  12.844  0.0733 -0.1415  0.0429
22687W        W42221   9.399  16.837   1.907  0.2641  0.1244  0.1094
22688W        W42222   4.522  16.583   4.074  0.0291  0.0025  0.1207
22689W        W42223   2.559   9.175   2.580  0.3107 -0.2039 -0.1416
22690W        W42224  11.181   1.258  16.593 -0.0217  0.2259 -0.1349
22691W        W42225  14.488   3.929  16.680  0.1580  0.1037  0.2241
22692W        W42226   9.457  13.947   2.490  0.0828  0.0220 -0.3666
22693W        W42227  16.321   7.431  15.301 -0.0776 -0.0991  0.2538
22694W        W42228  16.556   8.421   0.686 -0.2216  0.1646  0.0293
22695W        W42229   6.002   1.853  15.393 -0.0922 -0.1760  0.0332
22696W        W42230  15.457   3.228   1.276  0.3107  0.1293 -0.0618
22697W        W42231   6.601   2.327   0.678 -0.2854 -0.1270 -0.4913
22698W        W42232   2.233   2.119  14.548 -0.2081 -0.0912  0.5408
22699W        W42233   4.878   0.053   0.120 -0.3142  0.0838 -0.1050
22700W        W42234   7.253   6.472  12.177  0.1506  0.3495 -0.0381
22701W        W42235   5.739  11.722   4.268 -0.0021  0.1751 -0.0339
22702W        W42236   9.760   6.752   3.840 -0.1186  0.1023  0.0621
22703W        W42237  14.125   3.729   0.803 -0.0288 -0.1939  0.0614
22704W        W42238   5.393   4.977   4.211 -0.0548 -0.1091 -0.2729
22705W        W42239  14.225   9.176  15.481  0.1395  0.0253 -0.1532
22706W        W42240  16.116   9.850   4.576 -0.1712 -0.2472 -0.3012
22707W        W42241  13.451   4.138  13.927 -0.0611  0.1012  0.0812
22708W        W42242  16.504   4.616   4.191  0.0760  0.1220  0.0597
22709W        W42243   9.684  13.275   0.094 -0.0944  0.1743  0.1618
22710W        W42244  11.792   0.150   2.528 -0.1886  0.0308  0.0357
22711W        W42245  13.723   3.936  15.038  0.1192  0.1274 -0.3421
22712W        W42246   5.688   6.064  15.338 -0.0950  0.1313  0.1135
22713W        W42247   6.829  17.263  16.356  0.2212  0.0352 -0.1813
22714W        W42248   1.127   3.337   2.145  0.1944  0.3173 -0.2873
22715W        W42249  14.085  14.289   3.976  0.2698 -0.0957  0.0560
22716W        W42250   0.645  12.567  12.045 -0.0966  0.1619 -0.2435
22717W        W42251  12.904  16.014   3.443  0.1028 -0.0608  0.0747
22718W        W42252   5.709  12.578   0.497 -0.1395  0.2575 -0.2554
22719W        W42253   8.635   9.582  16.586  0.1448 -0.4335  0.1243
22720W        W42254   3.520   8.072   0.465  0.2458 -0.1528 -0.2266
22721W        W42255  12.286  11.337   1.864 -0.1918 -0.1573 -0.3241
22722W        W42256   7.390   0.383  13.820 -0.2033  0.0643 -0.1125
22723W        W42257   6.319   1.011   0.534 -0.1314  0.1912  0.1720
22724W        W42258   2.712   4.515  15.466 -0.1127 -0.2252  0.2022
22725W        W42259  11.785   3.729  16.032 -0.4051 -0.1235 -0.1625
22726W        W42260  13.205   9.972  12.799 -0.2827  0.2838 -0.0954
22727W        W42261  11.986  17.598  13.499 -0.2412 -0.0801 -0.2900
22728W        W42262  16.328  12.016  11.830 -0.0529  0.0059  0.2449
22729W        W42263   4.620  12.066  12.387  0.3861 -0.0599  0.0135
22730W        W42264   6.215  15.790  14.231 -0.1137 -0.3611 -0.0180
22731W        W42265   6.781   7.285   1.147 -0.0700 -0.2633  0.1587
22732W        W42266  17.812  17.345   0.687 -0.1126  0.3094  0.0845
22733W        W42267   2.918  16.273  14.154  0.0926 -0.1441  0.1111
22734W        W42268   2.525   9.670   3.157  0.2293 -0.1373  0.3313
22735W        W42269   8.622   2.277   1.803  0.0610  0.1119  0.1224
22736W        W42270  10.015   6.428   3.540 -0.0626 -0.0534  0.0009
22737W        W42271  13.450   0.440  16.329  0.1732 -0.1742  0.1914
22738W        W42272   8.778   7.253  13.119 -0.1074  0.0755  0.1623
22739W        W42273   0.140  17.103   2.991 -0.0231  0.0384  0.4934
22740W        W42274   5.169   9.349  16.663 -0.3850  0.2973  0.1671
22741W        W42275  15.504   4.592   1.154  0.0917  0.1052  0.1641
22742W        W42276   2.056  11.185   2.147 -0.3356 -0.0209 -0.0111
22743W        W42277   7.939  16.006  15.688 -0.0391  0.2729  0.1091
22744W        W42278   0.034   9.857  15.101  0.0344 -0.0112 -0.0067
22745W        W42279   6.600  10.062  14.001 -0.0759  0.2433  0.0128
22746W        W42280  10.806   3.738   4.487 -0.2171  0.3280 -0.2998
22747W        W42281  16.546   6.785   1.021 -0.0593 -0.0471  0.0878
22748W        W42282   4.442   4.866   1.065  0.1329 -0.1526 -0.3140
22749W        W42283   7.028   3.856   1.701 -0.1171  0.2652  0.1516
22750W        W42284   1.801  11.840   3.779  0.1670 -0.1582 -0.0917
22751W        W42285   8.387   0.483   1.439  0.1642 -0.2810  0.2415
22752W        W42286  16.456  10.698  12.992 -0.0326 -0.0930 -0.2396
22753W        W42287  15.152   2.548  12.161  0.0205  0.1675 -0.1057
22754W        W42288   1.715   2.590   4.953 -0.2610  0.1599 -0.0054
22755W        W42289  10.851  16.569   4.219 -0.0836  0.0374  0.3445
22756W        W42290   7.622   0.670  15.125 -0.1389  0.1367 -0.2340
22757W        W42291  14.452  13.547   1.590  0.1997  0.2926  0.0998
22758W        W42292   0.264   9.848   3.019 -0.1600  0.0620 -0.2265
22759W        W42293  13.889   8.479   1.856 -0.2035  0.1803  0.1869
22760W        W42294  12.981   2.837  15.955 -0.0704  0.3064  0.4127
22761W        W42295   9.654   5.711  13.625  0.0369  0.0514  0.1976
22762W        W42296   7.371  12.274  15.470 -0.2248 -0.1469  0.0361
22763W        W42297  11.898   4.206  12.108  0.0334  0.4746 -0.0316
22764W        W42298  13.235  16.444   0.941  0.2956 -0.1273 -0.0080
22765W        W42299  15.422  10.514   4.222 -0.1928  0.1552 -0.2946
22766W        W42300  13.401  11.414   0.282  0.0195  0.1347  0.1868
22767W        W42301   7.667  14.100  15.330 -0.2911  0.0683 -0.0184
22768W        W42302   8.262   9.073  16.496  0.1526  0.2616 -0.1278
22769W        W42303   9.370  11.142  16.367 -0.1582 -0.1005 -0.3065
22770W        W42304  16.377   1.055   0.593  0.0963  0.0747  0.1711
22771W        W42305   5.200   8.158   1.150 -0.1037  0.1614 -0.2501
22772W        W42306   8.303  14.814  16.582  0.0432 -0.2447  0.1516
22773W        W42307  13.243   7.476   0.432 -0.0213 -0.1025  0.1491
22774W        W42308   4.283   0.029  13.712  0.0363 -0.1009 -0.0485
22775W        W42309  15.167   8.656   2.902  0.1070  0.1941  0.0109
22776W        W42310   2.588   2.452  15.432  0.1085  0.0980 -0.0222
22777W        W42311  14.984  13.527  12.864 -0.4651 -0.4752  0.0337
22778W        W42312  11.370   2.067  16.141 -0.2846  0.1564 -0.1695
22779W        W42313  13.137   9.619   4.608 -0.2908  0.0431 -0.1419
22780W        W42314   3.844  13.673  14.560  0.0145  0.3393 -0.1868
22781W        W42315   0.171  11.454   1.828  0.2343 -0.0702 -0.0218
22782W        W42316  14.693   8.348  15.652 -0.1430  0.0574 -0.0591
22783W        W42317  17.090  12.449   0.604  0.2893 -0.3934 -0.1647
22784W        W42318   4.534   4.276   2.907  0.0796 -0.0759  0.0310
22785W        W42319  10.112  17.751  16.171 -0.0450 -0.3233  0.0814
22786W        W42320  16.591   3.825  13.385 -0.0858 -0.1268 -0.2575
22787W        W42321  11.447   4.499  12.707 -0.1764 -0.1233  0.2660
22788W        W42322   3.673  15.465   3.693 -0.0137  0.2970 -0.0370
22789W        W42323  15.511   1.710   4.394  0.3139 -0.0427  0.1661
22790W        W42324  14.121  13.703  12.674  0.4291  0.1468  0.4132
22791W        W42325   9.544  13.457   0.912  0.1170 -0.1520 -0.1562
22792W        W42326   3.502   8.454  15.197  0.4983  0.0188  0.1039
22793W        W42327   5.726  16.292   3.140 -0.0753 -0.1795 -0.0703
22794W        W42328   8.544  13.301  14.044 -0.3838 -0.0794 -0.0281
22795W        W42329  16.341  14.759   0.964 -0.0275 -0.2468 -0.0076
22796W        W42330  11.006   4.891   5.355 -0.4264  0.3327  0.2703
22797W        W42331   8.595   9.025   4.892  0.2609  0.2059  0.1352
22798W        W42332   9.265  11.981  14.339  0.1017  0.2120  0.2884
22799W        W42333  13.196   1.220   3.394 -0.0389  0.2700  0.2287
22800W        W42334   7.812   5.020  11.437 -0.1190  0.1321 -0.1361
22801W        W42335  10.417   7.067  14.622  0.1263  0.0045  0.2019
22802W        W42336   2.515  11.540   3.333 -0.1325  0.0236 -0.0682
22803W        W42337   8.030   7.587  12.640 -0.1103  0.0591 -0.4387
22804W        W42338   6.466  12.887  14.613  0.2635 -0.0952  0.1403
22805W        W42339   7.230  13.984   1.157 -0.2134 -0.0108 -0.0360
22806W        W42340   2.054  13.356  15.198  0.0688  0.2470  0.0792
22807W        W42341  14.712   0.220   3.514 -0.2563 -0.0554  0.0114
22808W        W42342  11.814   5.668   3.066 -0.1537 -0.2105 -0.1007
22809W        W42343   4.456  16.005   0.017 -0.0743  0.1551  0.1093
22810W        W42344   7.873   6.505   1.014  0.1492 -0.0667 -0.1301
22811W        W42345   1.958   3.759   1.305 -0.1130  0.0883  0.3007
22812W        W42346   2.857   4.756  15.947  0.1218 -0.1292  0.0619
22813W        W42347  12.320   0.879  12.960  0.1667 -0.1236 -0.1459
22814W        W42348   9.674   5.535  12.768 -0.2264 -0.3576 -0.1067
22815W        W42349   9.610  16.928   1.440 -0.1190  0.2863 -0.0531
22816W        W42350  16.153   2.017   1.595 -0.0812 -0.3649  0.0134
22817W        W42351   7.102   5.786  14.193 -0.0763 -0.0310  0.0712
22818W        W42352  10.932  13.708   4.708 -0.3111 -0.1085  0.0102
22819W        W42353   0.171  17.703   2.945  0.3630  0.1616  0.2054
22820W        W42354  13.520  12.072   2.214  0.2755 -0.0737 -0.2083
22821W        W42355   4.230  16.886  16.676 -0.0525 -0.1480  0.3065
22822W        W42356  17.751  13.309   2.179 -0.3565 -0.1064 -0.1184
22823W        W42357  16.134   4.395   2.530 -0.0468 -0.0047  0.0675
22824W        W42358   4.671  12.112   0.012  0.1820 -0.0927 -0.2572
22825W        W42359  16.364   8.358   0.280  0.1381 -0.0558  0.1167
22826W        W42360  14.906  11.804   4.583  0.0537  0.1174  0.1612
22827W        W42361   8.370  17.589   1.352  0.1863 -0.0482 -0.2154
22828W        W42362   4.457   4.886   4.156  0.2972 -0.1427 -0.0926
22829W        W42363   2.334   7.266  13.738  0.0162  0.1953 -0.1595
22830W        W42364  11.071  10.769  12.802 -0.1637 -0.3055 -0.2862
22831W        W42365   8.216  12.661  13.860 -0.2061  0.2171  0.1979
22832W        W42366  10.271  12.343   2.729 -0.2760  0.0581 -0.0467
22833W        W42367   4.223   3.890   2.437  0.0824 -0.0646  0.2902
22834W        W42368   9.449  14.729   1.271 -0.0429  0.0660 -0.1002
22835W        W42369   1.774  12.840  12.907  0.0779 -0.0624 -0.1521
22836W        W42370   3.362   9.997  14.291  0.0054 -0.2329  0.2760
22837W        W42371   8.591   5.470  15.360 -0.1972 -0.2883  0.0135
22838W        W42372   9.592  16.162  12.864  0.0093  0.1148  0.0113
22839W        W42373  15.134   5.244  13.949 -0.1249 -0.2408 -0.0271
22840W        W42374   4.397   3.418   2.176 -0.3242  0.4672  0.1082
22841W        W42375   6.769   7.976   1.565  0.2913  0.1881  0.2717
22842W        W42376   7.844  14.589   0.583  0.0749  0.0756 -0.0214
22843W        W42377  10.588  13.943   0.019  0.1085 -0.1261  0.2029
22844W        W42378  10.548   5.625  11.522 -0.0231 -0.2251 -0.2777
22845W        W42379  11.693  15.650   1.156  0.2388  0.0856  0.2846
22846W        W42380   7.114   1.659   3.591  0.0873  0.0193  0.0726
22847W        W42381  15.921  12.064  14.948  0.0118 -0.0941  0.1290
22848W        W42382   8.378   1.392  14.106  0.1298 -0.1931 -0.1169
22849W        W42383  17.216   9.204   3.352 -0.5384  0.0593  0.4542
22850W        W42384   3.215   6.159   2.117 -0.3732  0.1385 -0.0964
22851W        W42385   6.007   1.022   1.392 -0.3804  0.0848  0.0007
22852W        W42386  11.179   2.301  15.611  0.3054  0.2063 -0.0412
22853W        W42387   2.745  13.754   2.858 -0.1152 -0.1245 -0.1679
22854W        W42388   1.933  15.399   4.098 -0.0650  0.0273 -0.3660
22855W        W42389  10.000   3.558  13.615 -0.3378 -0.0786  0.1520
22856W        W42390   7.003  16.716  12.195 -0.0666  0.0566 -0.0286
22857W        W42391  12.272  14.017   4.220  0.0816  0.0096 -0.2256
22858W        W42392   6.024   3.364   5.158  0.5833 -0.2469 -0.1994
22859W        W42393  16.411  17.611  12.908  0.1625  0.0621  0.1687
22860W        W42394   5.036   4.678   3.520  0.1112  0.1823  0.0438
22861W        W42395   5.653  12.547  16.440 -0.1856  0.0173  0.2105
22862W        W42396  10.486   5.698   4.698  0.0652 -0.0430  0.1850
22863W        W42397   1.881   5.058   3.936  0.0551  0.0030  0.2312
22864W        W42398  17.049   4.426   4.365 -0.1166  0.0073 -0.1631
22865W        W42399  16.404   8.602  13.832 -0.0490  0.0798  0.0280
22866W        W42400  10.769  15.724   2.792  0.1259 -0.2478  0.1509
22867W        W42401  11.538   3.072  13.568 -0.0984 -0.2599 -0.1576
22868W        W42402   1.500  13.136   0.120  0.0369  0.0806  0.2550
22869W        W42403  11.653   6.547   3.755 -0.0496 -0.3046  0.0332
22870W        W42404   2.355  17.180   3.634 -0.1839 -0.1551 -0.1490
22871W        W42405  14.742   8.888   4.635 -0.1300 -0.2812  0.0386
22872W        W42406   7.323   0.549  15.591 -0.0523 -0.1208  0.0938
22873W        W42407   2.915  14.368  15.149 -0.3668 -0.0852 -0.2017
22874W        W42408  10.084  16.720  13.356 -0.1535  0.1670  0.2389
22875W        W42409  14.456  13.100  13.598 -0.1375 -0.0759  0.0937
22876W        W42410  10.093   0.600  16.318 -0.1596 -0.2978 -0.1225
22877W        W42411   0.535   4.269  15.454  0.2396  0.0217 -0.2420
22878W        W42412   3.804   1.248   5.628 -0.1264 -0.1267  0.0961
22879W        W42413  11.969  10.868  12.851 -0.2220 -0.1020  0.0614
22880W        W42414   5.425   0.846   3.351  0.4036  0.1135 -0.2391
22881W        W42415   3.317  17.255  14.530  0.1276 -0.2568 -0.1265
22882W        W42416  11.712   4.988   3.788  0.1705  0.1802  0.1369
22883W        W42417  11.308  17.723   1.605 -0.2553  0.2989  0.0636
22884W        W42418  12.969   7.419  16.149  0.1978 -0.0873 -0.1552
22885W        W42419   4.289  14.546   4.807 -0.0274  0.0839 -0.0802
22886W        W42420   8.627   8.738   3.692 -0.2960  0.1941  0.0359
22887W        W42421   5.347   7.435   3.768  0.2740  0.0635 -0.2252
22888W        W42422  11.201   4.253  16.732 -0.3521 -0.2018 -0.0949
22889W        W42423  12.769  12.335   1.645 -0.1695  0.0608 -0.3071
22890W        W42424   0.278   4.868  12.448  0.3540 -0.1138 -0.0831
22891W        W42425   2.169   0.467   0.399  0.0305  0.1077  0.0207
22892W        W42426   3.223   5.624  10.500  0.0665 -0.2019  0.1381
22893W        W42427  11.038  14.872  16.726 -0.0441  0.1023 -0.3026
22894W        W42428   6.952  14.535   2.253  0.0652 -0.1845  0.1302
22895W        W42429   1.276   0.517   2.024 -0.0057  0.0025  0.0735
22896W        W42430  10.992   5.372   1.108 -0.1451  0.1006  0.2421
22897W        W42431  13.795  10.929   2.995  0.1880  0.0158 -0.1492
22898W        W42432   7.533  13.410  14.084  0.1141  0.0574 -0.2156
22899W        W42433  11.821  15.425  13.310 -0.4179  0.1081  0.1432
22900W        W42434  10.025  10.992   1.780  0.1098  0.0557 -0.0835
22901W        W42435  10.743   0.384   0.050 -0.1247 -0.0641 -0.0055
22902W        W42436   5.742   2.803   3.514 -0.1070 -0.2812 -0.2415
22903W        W42437   9.547   2.544   0.687  0.0141  0.0408 -0.0515
22904W        W42438  16.502  10.989  15.575 -0.2990 -0.2642  0.1443
22905W        W42439  14.846   4.905  12.778  0.0334  0.0090  0.1775
22906W        W42440  17.579   9.476  16.145 -0.0635  0.0018 -0.0887
22907W        W42441   3.971   4.856   3.831 -0.2722  0.2220 -0.0555
22908W        W42442  14.567  16.721   3.596  0.2885 -0.2145  0.0601
22909W        W42443   3.986  10.403   0.348 -0.1365  0.1522 -0.2194
22910W        W42444   9.747  10.877  14.262  0.2301 -0.0689  0.2692
22911W        W42445  16.712  17.535   3.073  0.4486 -0.3402  0.2907
22912W        W42446  15.677   1.595  16.122  0.0492 -0.0262  0.2168
22913W        W42447   3.494   8.643   1.750  0.1136  0.1070  0.5422
22914W        W42448   8.715  12.858  15.292 -0.2054  0.0230 -0.1391
22915W        W42449   1.014  15.872  13.898  0.3385 -0.0781  0.0693
22916W        W42450   4.740   4.467   1.135 -0.3045  0.3849  0.4567
22917W        W42451   3.252  12.863  14.112  0.2316 -0.1784  0.4493
22918W        W42452   9.736   8.145  10.809 -0.0918  0.0612 -0.1168
22919W        W42453  12.864   5.773  14.939  0.0711 -0.2071  0.0619
22920W        W42454  13.119   6.631   1.108  0.0695  0.0401 -0.0009
22921W        W42455  17.345   7.014   4.391 -0.0126  0.1593  0.2062
22922W        W42456  14.442   8.528   4.453  0.2164 -0.0740 -0.1141
22923W        W42457   4.608   3.225   1.348 -0.0355  0.0912  0.3334
22924W        W42458   6.642  12.679   3.101 -0.0115 -0.2881 -0.0878
22925W        W42459   6.293  16.728   2.594  0.0003 -0.2647 -0.1398
22926W        W42460  14.006  17.835  15.200 -0.3277  0.0320 -0.1626
22927W        W42461   3.466  13.204   4.104  0.0388 -0.1102 -0.0589
22928W        W42462  12.285   6.130  12.963 -0.1535  0.0334 -0.3723
22929W        W42463  15.244   3.721   2.216  0.0844 -0.0719 -0.1707
22930W        W42464   2.045   1.478  14.825 -0.2177 -0.1055  0.1282
22931W        W42465  11.590   1.358  15.573  0.2487 -0.0562 -0.1126
22932W        W42466   6.910  14.906   0.661  0.0241  0.0837 -0.1847
22933W        W42467   0.160   0.294   2.790 -0.0192  0.0578 -0.2543
22934W        W42468  13.085   4.412  12.884 -0.1144  0.0086  0.0689
22935W        W42469  10.979   7.131  13.436 -0.0365 -0.0836 -0.2135
22936W        W42470  17.184  15.675   1.357  0.1567  0.1154 -0.0346
22937W        W42471  10.529  14.643  13.429 -0.2266  0.0386 -0.4019
22938W        W42472  14.006   4.453   1.538  0.0994 -0.2231  0.0935
22939W        W42473   0.616  17.347  14.873  0.1554  0.0400 -0.0838
22940W        W42474   6.084  15.756   0.962  0.3429  0.1264 -0.0739
22941W        W42475  17.266   3.622   2.475 -0.0021 -0.0537 -0.0154
22942W        W42476   5.409  11.515  14.059 -0.0458 -0.2866 -0.1987
22943W        W42477   5.011  13.029   2.934 -0.1709 -0.0832 -0.1091
22944W        W42478  13.544  10.594   4.236 -0.0906  0.2032  0.2092
22945W        W42479  15.010   2.790  16.556  0.1887 -0.2451 -0.0056
22946W        W42480  11.433   1.406  14.750 -0.0496 -0.1148 -0.1544
22947W        W42481  17.424  11.097   1.218  0.4459  0.2063  0.1362
22948W        W42482  13.078   6.026   0.504  0.0963  0.3494 -0.3213
22949W        W42483   0.795   0.992  14.561 -0.1553  0.1191  0.0143
22950W        W42484   4.719  15.277   1.333  0.1698  0.0291 -0.1437
22951W        W42485  12.867   8.171  14.695 -0.1138 -0.0143  0.0965
22952W        W42486  11.316  11.313  16.129 -0.1703 -0.0105  0.1161
22953W        W42487   3.726  13.548   1.269  0.3420  0.0593 -0.0350
22954W        W42488   1.803  17.317   3.182 -0.3758 -0.2222  0.0664
22955W        W42489  17.752   5.309  15.859 -0.2775  0.0132  0.0416
22956W        W42490  11.135  14.965  15.833  0.0793  0.0847  0.2418
22957W        W42491   9.107   1.787   3.453 -0.0957 -0.1359  0.1656
22958W        W42492  13.474   2.906  15.230  0.1877 -0.1500  0.1532
22959W        W42493  14.675  13.363  13.246 -0.1508 -0.4220 -0.0389
22960W        W42494  17.274   2.828  15.960  0.1907 -0.1192  0.0319
22961W        W42495   1.299  14.494   1.072  0.1800 -0.0291 -0.0091
22962W        W42496  12.274   2.494   0.662 -0.2497  0.1480  0.1889
22963W        W42497   5.468  15.097  12.054  0.3401 -0.1727 -0.2628
22964W        W42498  12.876  13.101   3.468  0.2105 -0.2779  0.0579
22965W        W42499   9.416   0.668   1.316 -0.0127 -0.0096 -0.0887
22966W        W42500   6.684   9.483  13.397 -0.1366  0.2641 -0.0373
22967W        W42501   4.550  16.042   2.140  0.3780  0.2140  0.0498
22968W        W42502   5.803  15.890  15.914  0.1220 -0.1101  0.2070
22969W        W42503   8.447   5.534   0.550 -0.2703  0.4219  0.0590
22970W        W42504  13.709   4.980  15.464 -0.0008 -0.1946 -0.1602
22971W        W42505   5.399   4.359   0.746 -0.1817  0.2307 -0.0603
22972W        W42506  15.841  17.385   4.357  0.1747  0.0143 -0.3073
22973W        W42507  10.647   4.452  11.735 -0.0455  0.0092  0.0716
22974W        W42508   7.685   5.613   2.299 -0.4562  0.1327  0.1702
22975W        W42509  12.333   4.792  16.749  0.0621 -0.1966  0.1152
22976W        W42510   1.872  16.545   1.358  0.0073  0.0954  0.1207
22977W        W42511   6.887   1.343   4.829  0.1327  0.0382  0.0544
22978W        W42512  15.224   7.355   3.556 -0.2266  0.4393 -0.0799
22979W        W42513   2.728   1.796   0.168 -0.1369 -0.0831 -0.1068
22980W        W42514   0.983   4.336  16.284  0.1525  0.3118  0.0228
22981W        W42515   6.736   9.312  14.236  0.0975 -0.0094  0.0675
22982W        W42516   3.059  14.600   3.854 -0.0185  0.1572 -0.0725
22983W        W42517  15.973   4.180  14.570 -0.0254 -0.0595 -0.2802
22984W        W42518  17.187  10.262  13.357  0.1481 -0.0393 -0.2160
22985W        W42519  15.486  15.277   1.633 -0.0551  0.2326 -0.0109
22986W        W42520   1.930   5.882  14.222 -0.1521 -0.0582 -0.1022
22987W        W42521  10.179   6.235  16.354  0.3736  0.1006 -0.0816
22988W        W42522   3.658  11.520   0.968 -0.1673  0.1736  0.2806
22989W        W42523  12.770   3.449   1.004  0.0477  0.0677 -0.1095
22990W        W42524  17.701  15.711  16.023  0.1437 -0.3752  0.1593
22991W        W42525   7.409   0.579   1.372 -0.0534  0.0995  0.1573
22992W        W42526   8.340  10.023   0.397  0.6013 -0.0921  0.0201
22993W        W42527  16.778  12.491   1.519  0.1650 -0.1515 -0.0029
22994W        W42528  15.276  14.708   2.555  0.1055 -0.1161  0.3176
22995W        W42529   5.368   7.063  16.619  0.0425 -0.0887  0.1077
22996W        W42530   1.508   8.791  13.945  0.3397  0.0160  0.1067
22997W        W42531  16.043  11.723  15.832  0.0691 -0.0250  0.1716
22998W        W42532   0.342   4.487   1.575  0.3240 -0.0356  0.0421
22999W        W42533   5.644   8.420   1.386 -0.3225  0.1855 -0.1374
23000W        W42534   9.137   5.542   3.015  0.2016  0.3633 -0.1384
23001W        W42535   3.822  11.589   4.270 -0.3772  0.0445 -0.5063
23002W        W42536   5.890   1.583  14.531 -0.0618  0.0504 -0.0879
23003W        W42537   4.031   4.388  13.385  0.2498  0.0904  0.2621
23004W        W42538  11.100  12.611  13.396 -0.3598 -0.2949 -0.0413
23005W        W42539   6.314   6.891  14.582 -0.0314 -0.0192 -0.0307
23006W        W42540  12.624   5.070  16.189 -0.0021 -0.0580  0.0020
23007W        W42541  16.935   3.370  13.774  0.1157 -0.0577 -0.1783
23008W        W42542  15.654  13.241   4.637  0.0181 -0.0282  0.2678
23009W        W42543  10.608   5.207   1.440 -0.0397  0.2945  0.6369
23010W        W42544  13.958  12.731  12.363 -0.1075 -0.0900 -0.1991
23011W        W42545   0.591   8.655   2.364 -0.0951  0.0585  0.0522
23012W        W42546  13.465  11.581   2.359 -0.3453 -0.2100  0.2622
23013W        W42547   0.731   8.816   3.172 -0.1344 -0.0326 -0.4694
23014W        W42548  12.822  15.082   1.942 -0.0073  0.0423 -0.1240
23015W        W42549   6.490   6.535  16.084 -0.5501 -0.1053  0.0633
23016W        W42550   4.123   2.090   3.841 -0.3504 -0.0359 -0.3236
23017W        W42551   9.942  12.486  12.653  0.0293 -0.3639  0.1785
23018W        W42552   5.809  16.880   5.025 -0.3033 -0.1425 -0.0547
23019W        W42553   3.278   3.695  13.555 -0.0191 -0.0921  0.2112
23020W        W42554  12.146   8.347   2.866 -0.0633  0.1513  0.2053
23021W        W42555   0.666   2.244   0.602 -0.0786 -0.2017 -0.1545
23022W        W42556   4.400   5.048  13.970  0.1423  0.0435  0.2307
23023W        W42557   3.216  11.257  16.301  0.0196 -0.0170  0.0983
23024W        W42558  16.409   6.358   2.613  0.0589  0.1424  0.2018
23025W        W42559  16.959   4.775   3.795  0.0507 -0.1258  0.1338
23026W        W42560   2.653   7.821   0.937 -0.0639 -0.4030 -0.1451
23027W        W42561  10.246   9.496   3.095 -0.1706  0.2635 -0.1461
23028W        W42562   6.451   4.263  14.705  0.2551 -0.0697  0.0620
23029W        W42563   5.359   7.619   1.695  0.0371  0.1186 -0.0363
23030W        W42564   3.678  16.338   3.380  0.2846  0.0514  0.0518
23031W        W42565  11.506  10.200   3.956 -0.1205 -0.1578 -0.4243
23032W        W42566   0.547  14.519   3.281  0.2687 -0.2053 -0.0371
23033W        W42567  14.521  10.258   0.558 -0.0579  0.2291 -0.1356
23034W        W42568   5.475  15.288   5.848  0.0290 -0.0557 -0.0205
23035W        W42569   7.334  11.162  15.242 -0.0285 -0.2307  0.1668
23036W        W42570  11.112   1.837   1.023 -0.0473 -0.5817 -0.0604
23037W        W42571   9.293  14.278   4.821  0.0077  0.1739 -0.1103
23038W        W42572  14.193   1.279  16.486  0.1331  0.0612 -0.0251
23039W        W42573   2.853  15.795  13.488  0.0005 -0.0208 -0.5102
23040W        W42574  17.153   2.924  14.861  0.1440 -0.1436 -0.1130
23041W        W42575   5.738  11.021  15.634 -0.1401 -0.1333  0.1965
23042W        W42576   4.024   5.442   1.114 -0.0191  0.2636 -0.1296
23043W        W42577   4.322   3.623   1.557 -0.2895 -0.0357  0.0199
23044W        W42578   4.951  14.812  12.264  0.1598 -0.1409 -0.2907
23045W        W42579   6.500  12.804  13.745 -0.2739 -0.0287  0.0794
23046W        W42580  10.723  16.509   0.573  0.0052 -0.1386  0.0489
23047W        W42581  10.927  16.910   2.135 -0.0751 -0.2259 -0.0877
23048W        W42582   0.254  10.443   3.680 -0.1322 -0.1939 -0.0536
23049W        W42583   1.273  14.617  16.318  0.1220  0.2964  0.1141
23050W        W42584  15.789  17.490   2.158 -0.0037  0.1418 -0.1766
23051W        W42585  17.834   2.906   1.322  0.3296  0.0798 -0.1716
23052W        W42586  12.718   2.783   4.392  0.2720  0.0646  0.0012
23053W        W42587   1.348  15.327   0.283  0.0384  0.1077  0.0485
23054W        W42588   6.916   8.919   4.737 -0.1297  0.0922  0.1036
23055W        W42589  14.699   9.668   2.085 -0.0227 -0.4243  0.2234
23056W        W42590   0.479  13.117  14.416 -0.1153  0.2070 -0.1716
23057W        W42591  15.532   0.416   1.178 -0.2545  0.1130 -0.0411
23058W        W42592  10.908   6.762  12.350 -0.1407  0.3415 -0.2948
23059W        W42593   2.925  12.201  14.653  0.1666 -0.4010 -0.0004
23060W        W42594  12.263  14.280   2.662 -0.0737  0.2752 -0.2656
23061W        W42595   5.555   6.962   3.865  0.0651 -0.2994  0.0854
23062W        W42596  11.314  11.569  13.503  0.0114  0.2493  0.0484
23063W        W42597   0.220   0.428  12.318  0.2631 -0.0299  0.2008
23064W        W42598  16.475  10.949  14.057  0.4120  0.3120  0.0402
23065W        W42599   4.507   3.664   4.139 -0.3049  0.2855 -0.1189
23066W        W42600  14.199   9.100  16.206  0.1110 -0.2330 -0.0840
23067W        W42601  13.327  15.625   3.368  0.1357 -0.1097  0.1040
23068W        W42602   2.394  13.407  15.602  0.0880 -0.1383  0.0308
23069W        W42603   1.131   1.990  16.584  0.2287  0.1012  0.3479
23070W        W42604  10.699   4.330  13.238 -0.3479  0.0704 -0.1312
23071W        W42605   6.517  12.662  16.646 -0.2791 -0.2030  0.1489
23072W        W42606   2.696   7.886  13.810 -0.0819  0.1175  0.0629
23073W        W42607  14.783   2.981  14.327 -0.1137  0.0484 -0.0608
23074W        W42608   2.152   9.166   0.705  0.1468  0.1113 -0.1490
23075W        W42609   0.654   0.975  16.461  0.1225 -0.0990 -0.0870
23076W        W42610  10.747  13.446   4.297  0.0209 -0.0390  0.0799
23077W        W42611   8.174  15.068  16.168 -0.2368  0.1982 -0.3328
23078W        W42612   8.207  11.400  16.308  0.0634 -0.1496  0.0377
23079W        W42613   3.437  11.597  16.688  0.0616 -0.0009  0.0643
23080W        W42614   2.749  11.135   2.877  0.1102 -0.2174  0.0113
23081W        W42615   2.185  17.294   1.366 -0.1203  0.1226  0.1685
23082W        W42616   0.613   5.896  11.956 -0.3128  0.1851  0.0375
23083W        W42617  12.286   3.030   0.527  0.1098 -0.2331 -0.1011
23084W        W42618  11.760   4.832  13.393  0.0047 -0.1988 -0.0681
23085W        W42619  16.504  13.994   0.461  0.3047 -0.0167  0.0303
23086W        W42620   1.247   2.532   1.852  0.1006  0.0199 -0.0665
23087W        W42621   3.822   5.273   2.233  0.3685  0.3283 -0.2290
23088W        W42622  15.009  12.151   0.513 -0.0840  0.1240 -0.2157
23089W        W42623  14.601  13.835  12.984 -0.0356  0.1566 -0.0588
23090W        W42624  13.383   3.991  15.399  0.1784 -0.0021  0.2220
23091W        W42625  17.286   6.076  13.563  0.1611 -0.0325 -0.0883
23092W        W42626   3.975  13.503  13.221  0.5659 -0.0592  0.0493
23093W        W42627  11.525   9.388   2.442 -0.0205  0.1587 -0.0956
23094W        W42628   9.748  10.706   3.359  0.1270  0.1695  0.1932
23095W        W42629   0.719  16.257  13.386  0.1193  0.0487 -0.1417
23096W        W42630   0.044  11.668   3.258  0.0172  0.0801 -0.0589
23097W        W42631   6.932   0.764   4.780  0.1326  0.1503  0.2029
23098W        W42632  15.059   2.147   3.288 -0.1858  0.0120  0.0514
23099W        W42633   6.895   3.765  13.144  0.0227  0.1069  0.0643
23100W        W42634   1.907   0.844   0.700  0.1053  0.0729  0.0271
23101W        W42635   8.883  14.551   2.024 -0.2280 -0.1016  0.2739
23102W        W42636   2.606  13.434   3.194 -0.1705 -0.0032 -0.1341
23103W        W42637   6.000  14.310  13.204 -0.2981 -0.0962 -0.0952
23104W        W42638   8.310  14.617   1.943 -0.2784 -0.0106 -0.4732
23105W        W42639   3.041  13.912  12.986 -0.0513 -0.0604  0.0133
23106W        W42640   0.092   6.226   2.398  0.0572 -0.2630  0.0036
23107W        W42641   6.561  10.453  11.792 -0.1212 -0.0881 -0.1894
23108W        W42642   4.082   1.626  15.803 -0.1947  0.5198 -0.0839
23109W        W42643   9.650  11.293   4.481  0.0779  0.0109 -0.2028
23110W        W42644   4.491   9.353   3.382 -0.1296 -0.2470 -0.0300
23111W        W42645   6.862   2.334   5.625  0.0069 -0.0301 -0.0731
23112W        W42646   4.513  13.588  14.540  0.1387 -0.2041 -0.1397
23113W        W42647  12.322   7.192   2.206  0.4812  0.1713 -0.2271
23114W        W42648  15.112   5.669   1.889 -0.2682  0.1484 -0.0908
23115W        W42649  13.487  17.103   4.924  0.1440  0.0808  0.2279
23116W        W42650   8.953   4.473   2.549 -0.2540  0.0888 -0.2127
23117W        W42651   2.318   8.357   1.898  0.1613  0.1136  0.2724
23118W        W42652   9.938   3.367  15.689  0.0964  0.1576 -0.1289
23119W        W42653   6.925   8.915   1.830  0.0445  0.1269 -0.0959
23120W        W42654   2.710  13.912  15.405 -0.2035 -0.0424 -0.3688
23121W        W42655   0.014   8.265  12.459 -0.0089 -0.0268  0.2465
23122W        W42656  16.467  11.080  15.045 -0.0081  0.3761  0.2153
23123W        W42657  14.471   0.533  14.031 -0.0639  0.3769 -0.0619
23124W        W42658   6.786   5.500  13.229  0.2631  0.1341  0.4200
23125W        W42659   3.944  13.242  15.305  0.0516 -0.0086  0.1658
23126W        W42660   8.746  13.502  14.503  0.3044 -0.2315 -0.1061
23127W        W42661  10.412  13.299   3.446  0.1922 -0.1367  0.0443
23128W        W42662   9.191  16.710  15.390  0.0457 -0.0199 -0.3079
23129W        W42663  13.946   0.983   0.770  0.1484  0.0140  0.1019
23130W        W42664   0.520   8.176  14.557  0.2431  0.0504  0.3857
23131W        W42665   2.986   9.282  13.920 -0.0735  0.0583 -0.1010
23132W        W42666   9.662  10.237  11.920 -0.1471  0.1574  0.2634
23133W        W42667  12.525  10.663  16.658 -0.0632  0.0234  0.1159
23134W        W42668   6.420   4.732   5.477  0.0827  0.2265 -0.2367
23135W        W42669   4.001   5.275   2.867 -0.1302 -0.0387  0.3446
23136W        W42670   7.106  15.489   2.512  0.1486  0.2292  0.0559
23137W        W42671  13.181  16.235   0.381 -0.0578 -0.0987 -0.2653
23138W        W42672  12.207  17.428  14.641 -0.1550  0.2625  0.0053
23139W        W42673   6.635  15.655   2.878  0.0734  0.0105 -0.0528
23140W        W42674   2.569   2.857   0.512  0.0603  0.2124 -0.0598
23141W        W42675   0.520  12.329   0.399  0.3423 -0.0409  0.1669
23142W        W42676  16.105  12.909   5.394 -0.0115 -0.0318  0.0016
23143W        W42677   7.253  16.672  15.449 -0.3377  0.0159 -0.0185
23144W        W42678   0.736  11.719  15.199  0.0894  0.1162  0.1179
23145W        W42679   3.051  14.820   4.854  0.0843 -0.0031 -0.0346
23146W        W42680  11.888  11.017  12.340 -0.3856  0.0783 -0.5671
23147W        W42681   2.342   2.417   4.041  0.1482  0.0653 -0.3287
23148W        W42682   5.947  13.271   4.336 -0.0533 -0.1813 -0.0549
23149W        W42683  14.032  13.763   2.849  0.2913  0.1887 -0.2268
23150W        W42684   4.922   8.446   3.231  0.2197  0.1097 -0.0818
23151W        W42685  17.727  16.501  13.563  0.0586 -0.0498  0.0974
23152W        W42686   7.458   8.647  14.392  0.0400  0.3728  0.0214
23153W        W42687   7.282   6.255   2.128  0.1389 -0.2968 -0.0932
23154W        W42688   9.205  17.760  14.636 -0.1370 -0.1355 -0.0236
23155W        W42689  17.434   4.019   3.300  0.3152 -0.0731 -0.1054
23156W        W42690  15.056  13.063  13.383  0.0643 -0.0753 -0.3047
23157W        W42691   1.432   0.186  12.481  0.1805  0.0762 -0.0160
23158W        W42692  13.591   6.052   0.475  0.1180  0.1537  0.0406
23159W        W42693   3.569   1.121   1.570 -0.3604  0.3058 -0.1055
23160W        W42694   9.043  14.151   2.697 -0.0066 -0.1371 -0.0906
23161W        W42695   0.351   8.503  12.177  0.3598  0.0415  0.1998
23162W        W42696  15.661   5.084   3.986 -0.0937  0.2091  0.0562
23163W        W42697  14.857   6.017   3.292 -0.1045  0.0306 -0.0868
23164W        W42698  10.604   1.607  15.706 -0.2591  0.2709 -0.1224
23165W        W42699  11.843  13.240  13.015 -0.2075  0.2574 -0.0815
23166W        W42700   6.923   8.299   4.409  0.2385  0.3419 -0.1257
23167W        W42701  10.759   0.413  12.978 -0.1230 -0.0431  0.1172
23168W        W42702   2.147  12.153   1.259  0.1048 -0.0369 -0.1652
23169W        W42703   7.251  10.053  12.152 -0.1771  0.1106  0.0399
23170W        W42704   9.303  14.452  13.202  0.1204 -0.1455  0.1142
23171W        W42705   4.858  17.277   0.766 -0.0997  0.0214 -0.1456
23172W        W42706   8.015   8.154   4.625  0.0417  0.1737  0.0456
23173W        W42707   8.811  14.539  15.354 -0.1389 -0.1601  0.2809
23174W        W42708   7.268   7.728   3.939  0.2629 -0.0760 -0.2812
23175W        W42709  12.442   2.743   2.284 -0.2902 -0.1578 -0.0588
23176W        W42710   6.339  12.927   3.421  0.1066  0.1807 -0.0702
23177W        W42711   4.879   1.041   3.368 -0.0203 -0.0860 -0.2275
23178W        W42712  13.909   5.527  14.204 -0.2382  0.1027 -0.2171
23179W        W42713  13.325   7.156  14.167 -0.1374 -0.1500  0.2352
23180W        W42714  15.434  11.007   2.538 -0.3551 -0.0381  0.0090
23181W        W42715   3.155  12.454   2.933  0.1020  0.2268  0.0755
23182W        W42716   7.191   2.712   3.416 -0.0709  0.1141 -0.1938
23183W        W42717   7.868   6.503   5.027  0.0102 -0.2408  0.1606
23184W        W42718   7.295  13.332  15.828 -0.0197  0.0180 -0.1162
23185W        W42719  15.738   1.580   3.534  0.0518 -0.1323 -0.2013
23186W        W42720  15.392  15.541  12.592 -0.2265  0.3726 -0.2263
23187W        W42721  10.750   2.209  14.460  0.1272  0.0306 -0.0215
23188W        W42722  11.877   3.940   3.228 -0.1202 -0.0403  0.0367
23189W        W42723   1.780   0.927   2.686 -0.1002 -0.1227 -0.3652
23190W        W42724   7.755   5.061   0.310  0.0792  0.3292 -0.1232
23191W        W42725   6.990   5.995  13.285  0.2369  0.1335  0.1944
23192W        W42726  11.401   3.876   4.360  0.2151 -0.3108  0.0236
23193W        W42727   4.794   5.954   3.406 -0.1416  0.1737  0.1640
23194W        W42728   8.085   6.783   0.564 -0.1559  0.1257  0.2722
23195W        W42729  11.594  14.356   1.176 -0.0953  0.1798 -0.0279
23196W        W42730   4.074   2.718  13.380 -0.1748  0.0872 -0.1922
23197W        W42731   1.968  10.932   3.708 -0.1134 -0.2066 -0.0807
23198W        W42732   3.778   5.044  15.672  0.0228  0.1973  0.1735
23199W        W42733  12.998  11.455  12.029  0.2574 -0.2163  0.1868
23200W        W42734   2.973   8.552  15.114 -0.0160  0.0201 -0.3287
23201W        W42735   4.184   0.533   2.809 -0.0227 -0.2893 -0.0806
23202W        W42736  15.916  10.969   3.701  0.0241  0.0358 -0.2181
23203W        W42737  13.980   9.381   2.164  0.4759  0.0525  0.3632
23204W        W42738  10.747  15.719   4.547 -0.2460  0.2363  0.0033
23205W        W42739  12.454   0.767  16.734 -0.3862 -0.1145 -0.2421
23206W        W42740   1.042   2.799  14.485 -0.2440 -0.2101  0.0598
23207W        W42741   3.275   2.411  11.952  0.0983  0.0538  0.2190
23208W        W42742  11.178  13.649   0.615 -0.2151  0.1208  0.0332
23209W        W42743  12.775   2.634   3.150  0.0527  0.1255  0.0396
23210W        W42744  12.306   7.125  15.686 -0.2391  0.0936 -0.2151
23211W        W42745   7.150  13.152   0.880 -0.0115  0.0675  0.2935
23212W        W42746  16.074   5.061  16.600 -0.1646  0.0627  0.1891
23213W        W42747   9.872  17.060   3.366 -0.1213  0.0397 -0.3512
23214W        W42748  10.212   9.625  16.249 -0.1086  0.0483  0.2154
23215W        W42749  17.606  13.802  15.397  0.1627  0.0735  0.1773
23216W        W42750   9.661  11.541  16.329  0.0471 -0.2024  0.0080
23217W        W42751   1.614   9.233  13.802 -0.2986 -0.2809  0.0429
23218W        W42752   6.635  14.074  15.361 -0.3715 -0.4296 -0.2942
23219W        W42753   3.395   1.385  13.264  0.2551 -0.1562  0.0444
23220W        W42754   4.782   7.112  15.982 -0.0229  0.0237 -0.0529
23221W        W42755  17.679  13.852  16.443  0.1155  0.2845  0.2449
23222W        W42756  11.182  11.212  16.598  0.0096  0.2648 -0.1541
23223W        W42757   6.837  17.683  14.259  0.0726  0.0869  0.0122
23224W        W42758  10.926   6.988  15.356 -0.0188  0.0211  0.1955
23225W        W42759  13.875   5.835   1.717 -0.1797  0.4194 -0.2256
23226W        W42760   7.715   3.791   4.115 -0.0529  0.0582  0.0496
23227W        W42761   0.970  10.827   3.382  0.3258  0.2725  0.2373
23228W        W42762   0.413  10.607  12.985 -0.1728  0.2608 -0.1677
23229W        W42763   1.413  10.027   1.860 -0.2132  0.3737 -0.0708
23230W        W42764  11.251   4.995  13.493  0.0495  0.1814  0.0450
23231W        W42765  11.215   1.933   0.169 -0.1195  0.1409 -0.0531
23232W        W42766  10.730  10.423   1.734 -0.2708  0.0494  0.0950
23233W        W42767  16.129   1.286  13.874 -0.1420  0.1506 -0.2078
23234W        W42768   9.934   6.220  14.360 -0.2333 -0.2664  0.0455
23235W        W42769  16.738  17.119  12.101  0.1120  0.0987 -0.1538
23236W        W42770   6.975  12.465   3.483 -0.1471  0.3215 -0.3333
23237W        W42771  10.744  12.466   2.904 -0.0858 -0.0499 -0.1059
23238W        W42772   2.055   0.861  15.511 -0.0353  0.1192 -0.2913
23239W        W42773   2.235   5.923  12.000  0.4031 -0.0532 -0.0125
23240W        W42774  15.029  16.798   3.349 -0.0357  0.1994  0.1196
23241W        W42775   5.041  12.461  14.215  0.1290 -0.0701  0.0459
23242W        W42776   1.159   5.421  12.843 -0.1454  0.2701 -0.0921
23243W        W42777   5.882   1.923   2.821  0.1271 -0.3732  0.1718
23244W        W42778  11.344  10.998  12.198  0.0248 -0.0500  0.0388
23245W        W42779  12.616   7.902  13.869 -0.0468 -0.2779  0.0077
23246W        W42780   5.321   3.830   3.227 -0.0220  0.1228 -0.0930
23247W        W42781  13.995  12.515   3.573 -0.1753 -0.2314 -0.1626
23248W        W42782   2.624  15.151   4.800 -0.1944 -0.2780  0.0834
23249W        W42783   3.562   0.570   1.643 -0.0911  0.0788  0.1901
23250W        W42784  14.094  15.279  13.590 -0.2855  0.0105  0.1272
23251W        W42785   2.293   7.947   4.469 -0.1145  0.1467 -0.1083
23252W        W42786  14.816  12.449   2.809 -0.1972 -0.0110 -0.1277
23253W        W42787   4.500   7.346  16.294 -0.0653 -0.1270 -0.0228
23254W        W42788   0.555  10.266   3.283 -0.2707 -0.1621 -0.2405
23255W        W42789  14.305   0.606   2.516 -0.0468  0.0872  0.2778
23256W        W42790  12.446  13.381   3.591  0.0275  0.0857  0.1636
23257W        W42791  14.969  15.325  14.080  0.0424  0.0936 -0.2922
23258W        W42792  17.239  10.919  15.699 -0.0054 -0.0137 -0.2799
23259W        W42793  13.793   4.869  12.732  0.3367  0.3416 -0.0044
23260W        W42794  15.234  10.598   3.336  0.0387  0.3028 -0.1389
23261W        W42795  12.241  11.508  15.080 -0.1698  0.3257 -0.0788
23262W        W42796   5.642   4.823   4.620  0.0871  0.0434 -0.0137
23263W        W42797   6.049   5.350   2.601 -0.1668 -0.1557  0.0687
23264W        W42798   3.478   2.286   1.379  0.0794 -0.1796  0.2911
23265W        W42799   7.454   7.315  13.294 -0.0228  0.1688  0.0592
23266W        W42800  15.403  12.830  13.623  0.1459 -0.0029 -0.0946
23267W        W42801  17.552  11.092  15.190  0.0122  0.0165 -0.0165
23268W        W42802  15.176   7.089  16.752  0.2574  0.3954 -0.0568
23269W        W42803  15.160   7.598  15.784 -0.2848 -0.1698  0.0794
23270W        W42804   2.162  16.772  12.404 -0.1872  0.0846  0.2477
23271W        W42805   1.100   1.483  16.421 -0.0409 -0.3611 -0.0813
23272W        W42806   1.227   6.555  13.755  0.2478 -0.0539  0.1772
23273W        W42807   3.387   3.512   2.502 -0.1765  0.4539  0.0363
23274W        W42808   9.348  13.928   0.845  0.0240 -0.0773 -0.1123
23275W        W42809  14.717   5.707   3.830  0.2756  0.1649 -0.0773
23276W        W42810   6.513  16.026   3.220  0.1357 -0.0457  0.1948
23277W        W42811   9.318   7.208  11.461 -0.2472 -0.0918  0.0484
23278W        W42812   1.550  16.197  13.624 -0.0339 -0.1349  0.0721
23279W        W42813   5.661   4.669  14.165  0.0457  0.1170  0.0780
23280W        W42814  16.637   9.808   3.757 -0.1217  0.0562 -0.0559
23281W        W42815  11.622  15.628   3.990  0.0322  0.1113  0.0469
23282W        W42816   6.604   8.670  14.869  0.2298  0.1557 -0.3194
23283W        W42817   8.925   1.325  13.545  0.1637  0.1609 -0.2522
23284W        W42818   1.346   8.823  12.603  0.0774 -0.0645 -0.0287
23285W        W42819   2.533   7.349   1.055  0.1329  0.0289  0.0743
23286W        W42820  17.081  17.325  16.492 -0.2745 -0.0062 -0.1166
23287W        W42821   6.401  13.867   3.471 -0.0241 -0.1236  0.0044
23288W        W42822   8.893   6.762   1.997  0.1930 -0.2323 -0.2324
23289W        W42823   5.884   6.167  16.576 -0.0685  0.1865  0.0225
23290W        W42824   3.299   3.149   1.495 -0.2334  0.1801  0.1395
23291W        W42825   3.214   3.434   4.825 -0.2557 -0.0984 -0.3413
23292W        W42826  13.436   6.947   4.979 -0.3386  0.0831 -0.0574
23293W        W42827  12.687  10.803  12.034 -0.1315 -0.0943  0.1344
23294W        W42828   0.880   9.492  15.122 -0.2137  0.0634  0.3199
23295W        W42829  14.453  16.697  15.828 -0.1877  0.0017 -0.0935
23296W        W42830  12.593   2.342  16.136 -0.0864 -0.0399 -0.0484
23297W        W42831   5.248   7.281  13.559  0.0027  0.1230  0.1912
23298W        W42832   8.414  12.430   0.785  0.1856  0.0850  0.0564
23299W        W42833   6.664   2.397   2.692 -0.0962 -0.2706  0.2429
23300W        W42834   5.607   3.300   5.471 -0.1730 -0.0883 -0.2982
23301W        W42835  15.649   6.244  15.568  0.1987  0.0875 -0.1271
23302W        W42836  10.424   2.973  14.515 -0.3805  0.0132  0.1322
23303W        W42837   4.353  14.496  14.605  0.2590  0.1941 -0.2352
23304W        W42838   2.971   1.028  16.592  0.3964  0.0066  0.0929
23305W        W42839   6.807  11.449  12.886  0.0029 -0.2666  0.0947
23306W        W42840  11.716   8.998  16.342 -0.0569  0.2293  0.2121
23307W        W42841   5.587   2.650  15.101 -0.0792 -0.1964  0.0353
23308W        W42842  14.879   9.255  13.290  0.0923  0.0011  0.1315
23309W        W42843  11.612   2.069  14.711  0.0197  0.0935  0.0053
23310W        W42844   5.207  15.917  13.939  0.0586 -0.0371 -0.1605
23311W        W42845  14.985  14.638   2.090 -0.0437 -0.2676  0.1479
23312W        W42846   0.524  10.174  12.216  0.1259  0.0293 -0.2003
23313W        W42847   6.276   1.244   4.575 -0.0097 -0.3055  0.1938
23314W        W42848   5.522  10.074  14.655 -0.0406  0.1551 -0.1287
23315W        W42849   2.809  16.740   5.068  0.0176 -0.2930 -0.2560
23316W        W42850  13.580   7.481  13.822 -0.1762 -0.1699  0.1086
23317W        W42851   3.237  15.048   2.336 -0.2012 -0.0123 -0.2237
23318W        W42852  15.013   0.787   2.192 -0.1174 -0.0269 -0.0622
23319W        W42853   2.561   7.820  14.786  0.0346 -0.0030 -0.1937
23320W        W42854   3.018  13.054   1.022  0.0551 -0.1654  0.1451
23321W        W42855   4.083   9.628  13.256  0.4020 -0.2800  0.1075
23322W        W42856  11.104   6.361  13.630  0.1959 -0.1780  0.2760
23323W        W42857   5.732   6.401   3.882  0.1818 -0.0651 -0.5562
23324W        W42858   4.409   9.716   0.273  0.0714  0.0937  0.0129
23325W        W42859   2.655   8.769  16.444  0.1360  0.0027  0.2887
23326W        W42860  16.244   7.470  14.835 -0.1283 -0.1858 -0.0070
23327W        W42861   3.505   0.856  16.409 -0.1832  0.2509 -0.0733
23328W        W42862  13.490   1.852  14.721  0.0989  0.0235 -0.1894
23329W        W42863   9.789   1.111   2.361  0.0164  0.1603  0.0079
23330W        W42864  17.377   2.257   3.422 -0.0278  0.1688 -0.1572
23331W        W42865  13.757  10.138  14.810 -0.4656 -0.0093 -0.1024
23332W        W42866   5.138  11.209  13.661  0.0631  0.0811  0.0094
23333W        W42867   5.639  10.704   0.671 -0.1765  0.2218  0.2748
23334W        W42868  14.621  11.306  13.081 -0.0606  0.2786 -0.1522
23335W        W42869   0.113   2.835   5.013  0.1571  0.0657  0.0291
23336W        W42870  16.805   8.141  15.187 -0.2675  0.1841  0.1136
23337W        W42871   5.229  15.035   3.835  0.0711 -0.2969 -0.3301
23338W        W42872   9.218   7.824   1.703 -0.0222  0.0422 -0.0498
23339W        W42873  13.542   5.318   1.367  0.1255 -0.4026  0.1710
23340W        W42874  16.244   3.780  12.784  0.0422 -0.3087 -0.0154
23341W        W42875   6.645   9.133   5.218  0.0420 -0.1864 -0.0447
23342W        W42876  13.314  17.713  14.528  0.4654 -0.0001 -0.0646
23343W        W42877  16.543   0.985   1.953  0.1549 -0.1781 -0.2838
23344W        W42878  15.147  12.908  12.414 -0.1043  0.0960 -0.1940
23345W        W42879  15.701  11.382   2.826 -0.2092  0.2250  0.1245
23346W        W42880   4.710  10.042   0.856  0.1086 -0.3127 -0.0523
23347W        W42881   3.991   1.279   1.264 -0.0043  0.0171 -0.0162
23348W        W42882   1.569  16.862  15.323 -0.0277 -0.1689  0.0195
23349W        W42883   5.443   0.253  16.292  0.0984 -0.1242  0.2088
23350W        W42884   4.317   7.914   1.216  0.1048 -0.1788 -0.0767
23351W        W42885   0.247   6.627   4.479 -0.1035  0.1269  0.1214
23352W        W42886   2.952   7.626   2.367 -0.0662 -0.2103 -0.0942
23353W        W42887   0.333   5.326   4.700 -0.1524 -0.1220 -0.0373
23354W        W42888  13.484   7.726  12.412 -0.1880  0.3451  0.0250
23355W        W42889  15.235  17.059  15.015  0.0340  0.2354 -0.2011
23356W        W42890   1.826  15.479   2.350  0.1977  0.2160  0.1590
23357W        W42891   1.648   2.179  12.555 -0.1809  0.1462 -0.0629
23358W        W42892  11.831   7.547  14.511 -0.0022  0.0973  0.3617
23359W        W42893   7.283  11.151   3.333 -0.0613  0.0075 -0.1102
23360W        W42894  12.081   4.581  15.406  0.0943 -0.0497 -0.1888
23361W        W42895   1.746  16.659   2.610  0.2812 -0.3163 -0.2063
23362W        W42896   2.927  12.381  15.346 -0.0749 -0.0127 -0.2539
23363W        W42897   1.503  15.659  13.219  0.0722 -0.0123  0.1519
23364W        W42898   5.278  16.473  15.374 -0.0750 -0.1357  0.0440
23365W        W42899  12.240   7.523   1.654  0.0155  0.3662  0.2466
23366W        W42900   1.800   1.072  15.855  0.3454 -0.2700  0.2490
23367W        W42901  13.796   0.821  15.762  0.0519  0.1678  0.1596
23368W        W42902  15.097  10.183  12.740 -0.2408 -0.1043  0.0523
23369W        W42903  10.259   3.800   4.158  0.1422  0.1277  0.2725
23370W        W42904  15.655   2.834   3.740 -0.1220 -0.2602  0.2101
23371W        W42905   9.029   8.093   0.857  0.1027 -0.1282  0.2450
23372W        W42906   7.390   4.395   1.685  0.1267  0.2371  0.1315
23373W        W42907  12.498  16.119   1.352 -0.1617 -0.0765 -0.0450
23374W        W42908  10.759   7.033   4.555  0.2063 -0.0391 -0.0422
23375W        W42909   5.866  17.354  12.382  0.0472 -0.1444 -0.3125
23376W        W42910   4.835   8.051   3.528  0.1947 -0.0357  0.0136
23377W        W42911  14.472  16.302  16.513 -0.3688 -0.1904  0.1235
23378W        W42912   0.338   2.363   4.438  0.2703  0.1079 -0.3655
23379W        W42913   6.704  14.595  15.477  0.3602  0.0053 -0.0576
23380W        W42914   7.311   0.107   1.528 -0.0603 -0.0123 -0.2945
23381W        W42915  15.780  15.130  15.942  0.2115 -0.2161  0.0142
23382W        W42916  11.931   6.189   2.682 -0.1652 -0.0603 -0.3337
23383W        W42917   9.440   8.093   2.972 -0.2959 -0.1500  0.0526
23384W        W42918  12.654  11.247  13.771 -0.0447 -0.2920  0.1426
23385W        W42919  10.901  15.416   1.421 -0.0126 -0.4750  0.4316
23386W        W42920  17.403  12.104  12.628  0.0713  0.0484  0.1100
23387W        W42921  17.831   2.320   3.132  0.1437  0.1524  0.0049
23388W        W42922  14.062   1.590   3.311 -0.2617 -0.0716 -0.3001
23389W        W42923   4.470   2.702   6.884  0.0062 -0.2421  0.0130
23390W        W42924  12.799  15.541  13.172  0.3598  0.2690 -0.0375
23391W        W42925  14.561  13.562  11.964  0.1671 -0.4909  0.1026
23392W        W42926   3.288  13.749   2.843 -0.0641 -0.2909 -0.0724
23393W        W42927  14.308   2.695  14.132 -0.1500  0.2236  0.1283
23394W        W42928  17.784  15.628   2.746 -0.0286  0.0429  0.0755
23395W        W42929   1.099   7.627  12.302 -0.0718 -0.0938  0.1577
23396W        W42930  16.529   9.555   4.278  0.1995 -0.5185 -0.0743
23397W        W42931  12.462  15.365   3.736 -0.6076  0.1649  0.3110
23398W        W42932  14.289  10.032   2.060 -0.2167  0.0499  0.2855
23399W        W42933   4.221  17.806   1.385 -0.1308  0.6359 -0.0883
23400W        W42934   9.817   7.522  15.652 -0.3062  0.0335  0.0429
23401W        W42935   0.018   9.984  13.030  0.0807 -0.0845 -0.2043
23402W        W42936   8.719  14.636   4.301  0.0646  0.1154 -0.3130
23403W        W42937  16.691   0.797  12.443  0.1383  0.0090  0.3217
23404W        W42938   0.899   3.579   3.306  0.1199 -0.0670 -0.3845
23405W        W42939  17.820   7.692  11.416 -0.0987 -0.1670  0.1965
23406W        W42940   2.057  11.761   0.949 -0.2169  0.2074  0.4103
23407W        W42941   8.206   0.189  13.476  0.2909  0.0971 -0.0688
23408W        W42942   2.401  12.136  14.573 -0.4162 -0.3919  0.0921
23409W        W42943   3.360  14.592  14.639  0.0666 -0.1096 -0.0118
23410W        W42944  10.560   8.844   1.879  0.4059  0.3229 -0.0408
23411W        W42945   4.763  11.457   0.475 -0.0632 -0.2344 -0.0373
23412W        W42946   5.260   6.654   4.089 -0.0665 -0.1130  0.0706
23413W        W42947  11.029   5.003  13.947 -0.1816 -0.2877  0.0028
23414W        W42948   2.317   5.551   1.812  0.2337  0.2311  0.1168
23415W        W42949  15.060  12.139  12.892  0.2257 -0.2833 -0.3038
23416W        W42950   7.724   2.573   3.878  0.2144 -0.0294 -0.1204
23417W        W42951  11.307  15.720   0.475  0.4752 -0.0590  0.0722
23418W        W42952  14.774  12.337   0.048  0.0585 -0.1234  0.0894
23419W        W42953   7.865  15.844   3.490 -0.3828  0.1471 -0.0717
23420W        W42954  11.692  13.303  16.225  0.0258  0.0703 -0.3219
23421W        W42955   6.774   0.971  16.063  0.1496  0.1158 -0.0841
23422W        W42956   2.944   1.864  13.376  0.1916  0.3258  0.2995
23423W        W42957  10.004  10.432   1.026  0.0527 -0.0217  0.1575
23424W        W42958   7.370  15.252  15.764 -0.2585  0.0810  0.1376
23425W        W42959  17.694   7.201  15.223 -0.1186 -0.0917  0.2360
23426W        W42960   4.805   6.463   3.286 -0.2184  0.0156  0.1860
23427W        W42961   8.668   3.799   4.648  0.0040  0.1492 -0.3413
23428W        W42962  15.586  17.321  15.844  0.0411 -0.1282  0.2273
23429W        W42963  11.510   9.796  13.440  0.1243 -0.0148  0.0864
23430W        W42964   2.391   4.774  15.015  0.3539  0.1157 -0.0513
23431W        W42965  16.816  13.212  14.173 -0.0046 -0.4603 -0.1185
23432W        W42966   1.005   2.118  14.187 -0.0661  0.1519 -0.0726
23433W        W42967  17.642  17.029  14.430  0.3930 -0.1754  0.0200
23434W        W42968  17.256   3.277  12.034 -0.0660  0.2101  0.0877
23435W        W42969   0.705   5.376   3.054 -0.2987  0.1521  0.1576
23436W        W42970   5.985   5.251  14.963  0.3045 -0.3706 -0.1048
23437W        W42971   2.895  13.153   1.911 -0.0475 -0.0392  0.2067
23438W        W42972   0.894  17.218  16.614 -0.0465  0.1912 -0.1448
23439W        W42973   1.142   5.333   3.330 -0.2052  0.0603 -0.0782
23440W        W42974   4.759   9.693   2.593  0.2395 -0.2172  0.2003
23441W        W42975  13.245  10.684   2.738  0.1883  0.3372  0.1121
23442W        W42976   7.015   9.645  13.954  0.2748 -0.0794 -0.1725
23443W        W42977  17.814   9.531  15.400 -0.2269 -0.0933  0.1245
23444W        W42978   3.572   2.140   1.836  0.1629  0.1005  0.1745
23445W        W42979  11.259   9.173   3.951 -0.1690  0.1018 -0.2629
23446W        W42980  11.795   2.039   4.763 -0.3151  0.0377 -0.3340
23447W        W42981  12.620   3.096   3.959 -0.0438  0.0994  0.2757
23448W        W42982   1.857   2.386   1.923  0.2412  0.0356 -0.0245
23449W        W42983   7.260  17.697   4.562  0.0222  0.0099 -0.0339
23450W        W42984  10.948   2.954  10.651 -0.2330 -0.1308  0.1885
23451W        W42985  13.231   5.211  15.392 -0.0179  0.1488 -0.1484
23452W        W42986  12.925  11.198  15.345  0.0027  0.1105  0.0452
23453W        W42987  12.457  13.515  15.693  0.1067  0.1337 -0.3324
23454W        W42988  10.099   4.015   4.630 -0.1226 -0.1394  0.0453
23455W        W42989  14.563  15.903   3.189  0.1982 -0.1094  0.1286
23456W        W42990   7.773   0.784  16.034  0.3058  0.1544 -0.2279
23457W        W42991   1.509  16.741   4.309 -0.0963  0.0248 -0.2006
23458W        W42992  16.509   6.367  15.412  0.0378 -0.1287  0.0355
23459W        W42993  13.895  15.455   3.838  0.0097  0.1512  0.2408
23460W        W42994   2.594  15.049   1.626 -0.2530  0.2936  0.0746
23461W        W42995  17.333  17.281  15.312 -0.1664  0.1714  0.0182
23462W        W42996   0.485   9.629  15.516  0.0902 -0.1481 -0.2833
23463W        W42997   0.726  10.917   2.314 -0.0094  0.1678  0.1199
23464W        W42998   0.714   9.636   0.545 -0.3045 -0.1587 -0.1551
23465W        W42999  13.156  14.013   4.645 -0.0521  0.1301 -0.0323
23466W        W43000   0.393  17.307  15.819  0.2334 -0.4792  0.1962
23467W        W43001   7.325  13.864  13.253 -0.1741  0.2432 -0.0637
23468W        W43002   3.236  10.886   1.402 -0.2186  0.0718  0.1416
23469W        W43003  10.678   3.675  14.308 -0.0613 -0.1280  0.1525
23470W        W43004   9.133  14.384   3.194 -0.2118 -0.2210 -0.1190
23471W        W43005   3.944   4.981  14.684 -0.0922 -0.0153 -0.0719
23472W        W43006   6.480  17.452   3.877  0.1509 -0.1626 -0.0538
23473W        W43007   5.049  16.908  16.149 -0.1510  0.1056  0.3077
23474W        W43008  10.734  10.189  16.718 -0.3162  0.2736  0.0670
23475W        W43009   6.315   1.649   2.415 -0.0108  0.2956  0.0763
23476W        W43010   4.702   9.124  14.999  0.1163 -0.2828  0.5188
23477W        W43011  11.904  17.795   2.989  0.1083 -0.0778 -0.0646
23478W        W43012   1.417  14.071   1.929 -0.0593  0.2506  0.3718
23479W        W43013   8.483   9.211   2.301  0.1216  0.0100 -0.1298
23480W        W43014  12.610  14.792  12.258 -0.1923 -0.2747  0.0991
23481W        W43015   2.788  13.704   4.552 -0.0928  0.4006 -0.0025
23482W        W43016   7.079  12.687   0.610 -0.0453  0.0156 -0.2577
23483W        W43017   1.150  14.390   0.027 -0.1619  0.1674  0.0161
23484W        W43018  13.888   4.679   0.297  0.0639  0.3093  0.0321
23485W        W43019   6.090   0.746   5.564  0.2497  0.2385 -0.0931
23486W        W43020   0.222  12.958  16.536 -0.1170  0.2955  0.0072
23487W        W43021  11.643  15.743  14.141 -0.3117  0.2286  0.0779
23488W        W43022   8.916   7.126  13.569 -0.0443  0.1212 -0.0301
23489W        W43023   1.785   9.399  15.271  0.1826  0.4839  0.0049
23490W        W43024   3.684   8.248  13.282 -0.2283  0.3702  0.2094
23491W        W43025   1.716  11.812  12.544 -0.3509 -0.0440 -0.0835
23492W        W43026  14.635  16.386  12.995  0.3826 -0.0899 -0.3092
23493W        W43027   3.904   7.640  14.325  0.1206  0.1108 -0.0846
23494W        W43028  11.946   5.037  16.550  0.1968 -0.3277  0.2398
23495W        W43029   1.680  14.258  12.164 -0.0127 -0.3281  0.0789
23496W        W43030   6.079  10.470   0.915  0.3333 -0.0962  0.1620
23497W        W43031   0.463   9.713   0.064  0.0769 -0.0109  0.3800
23498W        W43032   4.402  17.502   0.803 -0.3536 -0.0310  0.1775
23499W        W43033  12.395   8.241  14.891  0.0903 -0.2779 -0.0321
23500W        W43034   4.619   3.819   3.080  0.1511 -0.0459  0.0096
23501W        W43035  11.131   8.710  15.203 -0.0504 -0.0134 -0.0355
23502W        W43036  16.879   4.312  13.912  0.0559 -0.0975  0.2883
23503W        W43037  11.497  16.683  15.506  0.0037 -0.2492  0.1082
23504W        W43038   8.541   9.532  15.032 -0.0693  0.0205  0.0891
23505W        W43039   4.027   5.703  13.754  0.0909 -0.0465  0.2978
23506W        W43040  13.570  12.297  14.136  0.2314 -0.1645 -0.2141
23507W        W43041  15.743   5.516  16.482  0.1079  0.2513  0.0761
23508W        W43042   0.486  11.938   2.577 -0.2559  0.0831  0.0108
23509W        W43043  14.212  13.253  15.789  0.0207  0.1338  0.1236
23510W        W43044   4.892   5.946  15.717  0.2992 -0.1122  0.0400
23511W        W43045  12.376  14.713   3.309  0.0296  0.1159 -0.1081
23512W        W43046   0.861  15.492   0.175  0.3609  0.2688  0.1371
23513W        W43047   3.935  12.014  12.238  0.1908 -0.1961  0.0298
23514W        W43048   9.523   7.447   0.955 -0.0136 -0.0567 -0.4526
23515W        W43049   5.766   4.135   3.130  0.0399  0.1375 -0.1666
23516W        W43050   8.101  13.727   4.347  0.1024 -0.0478 -0.2108
23517W        W43051  10.362  15.542  15.387 -0.1044 -0.0968  0.0968
23518W        W43052  16.764  13.734   4.077  0.0873 -0.0257  0.0733
23519W        W43053   2.384  16.614   1.045  0.0441 -0.0109 -0.0430
23520W        W43054   2.732  14.772  15.403  0.1366  0.3672 -0.1838
23521W        W43055   9.967   7.944  12.167 -0.1383  0.1121  0.4406
23522W        W43056   9.967  15.794  15.824  0.0169  0.1134 -0.0491
23523W        W43057   8.703   2.822  14.974  0.0511  0.3086  0.3610
23524W        W43058  12.028  14.877  15.658  0.0078 -0.0589 -0.2182
23525W        W43059   8.677   7.053  15.497 -0.1333 -0.0897  0.0351
23526W        W43060   4.043   3.199   2.838  0.0670  0.1689 -0.0516
23527W        W43061  16.639   0.675   0.454  0.2770 -0.2541  0.0681
23528W        W43062   3.911  10.610   4.665  0.1351  0.2841 -0.0827
23529W        W43063   4.358  16.067  12.757  0.0846  0.0659  0.2675
23530W        W43064   8.192   6.890  16.267  0.2353  0.1121 -0.0438
23531W        W43065   7.571  12.516   2.707  0.1909  0.0615 -0.0240
23532W        W43066   6.099   2.110  13.559 -0.4610 -0.1325  0.0159
23533W        W43067   4.424   0.429   4.583 -0.0742 -0.0282 -0.0154
23534W        W43068   5.331  17.372   0.638 -0.2405 -0.2452  0.2059
23535W        W43069   1.239   4.760   1.815 -0.0661  0.2831  0.2739
23536W        W43070  10.367   6.577   1.709 -0.1431  0.3051 -0.2250
23537W        W43071   3.469   5.029   0.232 -0.0087  0.2630  0.1740
23538W        W43072   5.166   2.495  12.090  0.1693 -0.1717 -0.1474
23539W        W43073   9.587   9.372  12.310  0.2445  0.0786 -0.2819
23540W        W43074   1.087   6.047   2.588 -0.2764 -0.0279  0.1397
23541W        W43075   0.782   3.379   3.885 -0.2328  0.1951 -0.2593
23542W        W43076   2.399  15.771  16.722 -0.1567 -0.3461  0.2163
23543W        W43077  12.814   7.596  12.094  0.0988 -0.0689  0.1258
23544W        W43078   1.834  14.913  13.255  0.1886  0.3336  0.1244
23545W        W43079  17.731  14.637   0.306 -0.3325  0.2580 -0.0234
23546W        W43080  15.470  11.370  12.797 -0.1547  0.3053  0.1012
23547W        W43081   8.539   7.241   5.314  0.0900  0.1530  0.0032
23548W        W43082   1.594  15.950   2.634  0.2034  0.5338 -0.2446
23549W        W43083   7.584  14.518  15.571 -0.2926 -0.0971  0.0839
23550W        W43084  16.758  15.765   2.754  0.2343  0.2567  0.1849
23551W        W43085  17.082   3.932  13.653  0.0263  0.2787 -0.1946
23552W        W43086  17.362   9.165   2.275 -0.0372  0.3065  0.1021
23553W        W43087   0.734  17.435   0.372 -0.2989  0.0081  0.0806
23554W        W43088  12.853   4.870  15.478 -0.0162 -0.2347  0.2022
23555W        W43089  14.056   8.214  13.777 -0.2158 -0.0136  0.2064
23556W        W43090  14.181   0.287   3.901 -0.0894  0.1098 -0.0774
23557W        W43091  13.688  13.487  12.467 -0.5327  0.0871 -0.0416
23558W        W43092  10.036  17.827   1.669  0.5587  0.0899  0.1781
23559W        W43093  10.433   1.456  13.224 -0.0548  0.3057 -0.1797
23560W        W43094  17.128  17.656   0.110  0.0015  0.3491  0.0610
23561W        W43095   4.779   4.721   4.807 -0.0487 -0.2202 -0.0539
23562W        W43096  15.635  15.672   3.937  0.2101 -0.3063  0.5239
23563W        W43097  17.153   6.040  15.010  0.0498 -0.1213  0.0384
23564W        W43098   3.873   3.191  14.999  0.3731  0.1956 -0.2872
23565W        W43099   6.751  17.853  15.110 -0.0973 -0.2202  0.1544
23566W        W43100   1.422  17.689  15.082 -0.1463  0.2083  0.0665
23567W        W43101   4.929  17.062  15.195 -0.1468 -0.1957 -0.0483
23568W        W43102   1.452  12.243  16.747  0.4347  0.0094  0.0934
23569W        W43103  12.287   5.066   3.577 -0.0324  0.2584  0.1734
23570W        W43104  14.293  11.140  12.411 -0.3808 -0.0500 -0.1103
23571W        W43105  14.492   2.974   2.296  0.0177  0.1828  0.1314
23572W        W43106  12.244   6.982   0.913 -0.1663  0.0764 -0.0204
23573W        W43107   2.266  14.567  13.288 -0.0930 -0.1039  0.1591
23574W        W43108  12.739   7.074  15.393  0.1006  0.0654 -0.0406
23575W        W43109  15.990   3.511  15.365 -0.1735 -0.0993 -0.3677
23576W        W43110  11.930   0.788   0.128  0.3992 -0.1486 -0.2340
23577W        W43111  13.942   6.261  12.340 -0.2492  0.1086 -0.1143
23578W        W43112  16.686   5.239   0.602  0.2122 -0.1692 -0.3006
23579W        W43113   1.535   1.947  16.238 -0.2476 -0.0979 -0.2202
23580W        W43114  10.273   8.358   4.442  0.1325 -0.1065 -0.2702
23581W        W43115  14.740   2.827  15.215  0.0456 -0.4459  0.1614
23582W        W43116   8.087   6.511   1.897 -0.0975 -0.1496 -0.1538
23583W        W43117  17.751  14.011   3.566  0.3309  0.0658 -0.0760
23584W        W43118  10.888  10.445  14.151 -0.2069 -0.1486  0.0320
23585W        W43119   1.862  12.415   3.287  0.1394 -0.2494  0.0578
23586W        W43120  13.789   4.939   3.157  0.1750 -0.1573 -0.0701
23587W        W43121   1.251  10.376   4.285 -0.1588  0.1138 -0.0740
23588W        W43122   2.822   2.237  15.873  0.1925  0.3117 -0.1838
23589W        W43123   6.535   6.642   0.171  0.0064  0.1142 -0.2185
23590W        W43124   4.514  16.651   3.524 -0.0410  0.1218 -0.0273
23591W        W43125  13.629  15.902  14.225 -0.1625  0.0223  0.0975
23592W        W43126   5.431   5.500   4.081 -0.2742 -0.0001  0.1051
23593W        W43127   6.682   6.307  15.477  0.1595 -0.1496  0.1331
23594W        W43128  11.265  13.749  14.992 -0.3146 -0.0250  0.1488
23595W        W43129   2.035  17.168   4.620 -0.3691 -0.4221  0.2924
23596W        W43130  10.780   8.932  16.548 -0.2099 -0.2993  0.0124
23597W        W43131  12.094  17.191  11.069  0.0482  0.0863  0.1440
23598W        W43132  17.405   7.525  14.920 -0.0027 -0.0443  0.2666
23599W        W43133   5.400  16.965  13.036 -0.0373  0.0449 -0.3464
23600W        W43134   1.784   8.016  13.169  0.1381  0.1119 -0.0488
23601W        W43135   2.663   4.547   4.623 -0.0664  0.0282 -0.0580
23602W        W43136  15.238  14.769  14.003 -0.2690 -0.1746 -0.2432
23603W        W43137  16.319   0.216  12.820 -0.1124  0.1536  0.1036
23604W        W43138   3.403   9.851   4.574  0.2841 -0.2266  0.1687
23605W        W43139   3.683  11.286  16.339  0.0602  0.1710 -0.2221
23606W        W43140  14.271   5.972   0.852 -0.1632 -0.3161 -0.0423
23607W        W43141   0.940  11.875   2.355  0.0771 -0.3516  0.1589
23608W        W43142  17.071  16.376   3.018 -0.2867  0.1965  0.0867
23609W        W43143  16.682   4.090  15.935  0.0946 -0.2037 -0.1274
23610W        W43144   8.922  17.713  16.565  0.2968  0.1732 -0.1943
23611W        W43145   5.047  14.094   3.720  0.1384 -0.0407 -0.0907
23612W        W43146   3.554   7.820  12.455  0.2292  0.0185  0.1958
23613W        W43147   3.682   1.992  13.721 -0.0873  0.0017  0.2293
23614W        W43148   5.580  11.789  14.958 -0.0755  0.3667  0.0856
23615W        W43149   1.231  13.555   2.193  0.0891  0.2734 -0.1723
23616W        W43150   2.357   2.095  13.250 -0.0919 -0.1933  0.1995
23617W        W43151   7.046   3.504  14.135 -0.0123  0.0081 -0.1565
23618W        W43152  15.776  12.586  16.103  0.0116  0.0917  0.1561
23619W        W43153  12.332   0.050  15.442  0.0483 -0.2147 -0.0504
23620W        W43154  14.178   2.226  12.502  0.0675  0.1516  0.2300
23621W        W43155  11.730  16.806  12.633  0.1488  0.0161  0.1055
23622W        W43156   2.013  17.682  12.791 -0.0503 -0.1903  0.2829
23623W        W43157   3.518  15.198   1.847 -0.0864  0.0383  0.1082
23624W        W43158   0.968   4.614   4.546 -0.2400  0.1111 -0.1398
23625W        W43159  10.031   4.962  14.488  0.1226 -0.0094  0.1136
23626W        W43160   8.394   5.147  15.659  0.1148 -0.2310  0.0036
23627W        W43161   1.126  14.932  16.744 -0.4403  0.0235 -0.3396
23628W        W43162  15.934   8.173   0.524  0.1482  0.0965 -0.1010
23629W        W43163   9.561   7.766  14.510 -0.0557  0.2215  0.4033
23630W        W43164   1.302   4.686   2.319  0.0081 -0.0678 -0.1275
23631W        W43165   4.185   6.182  15.456 -0.0213  0.0929  0.0667
23632W        W43166  15.433  12.107  11.968  0.0844  0.0325  0.0081
23633W        W43167  17.273  15.817  15.343  0.1189 -0.0347  0.2872
23634W        W43168  16.722   2.886  12.922 -0.1030  0.1759 -0.1519
23635W        W43169   7.704  10.797  14.303 -0.2962  0.3014  0.0882
23636W        W43170   0.350   9.128   2.370  0.1869 -0.1305 -0.0154
23637W        W43171   3.261  15.221  15.769  0.0708  0.1976  0.1356
23638W        W43172  13.993  16.643  12.893 -0.0715 -0.2558 -0.1541
23639W        W43173  15.952  10.413  12.376 -0.2292 -0.0035 -0.0277
23640W        W43174  10.092  12.169  15.116  0.0769 -0.1096  0.2050
23641W        W43175  11.407  12.297   0.392  0.0649 -0.3313 -0.0419
23642W        W43176   7.782   5.009   3.706 -0.0292 -0.3518  0.0924
23643W        W43177  14.372   8.804   3.663 -0.0557 -0.2432  0.0639
23644W        W43178   7.875  15.842  13.545  0.2642  0.0171  0.1918
23645W        W43179   7.781   0.967   1.314  0.1081 -0.0629  0.3314
23646W        W43180   2.964  17.717   0.273 -0.1035 -0.4733  0.1313
23647W        W43181  15.862   7.231  15.210 -0.1358 -0.1334 -0.1966
23648W        W43182  14.819   9.742  12.501 -0.2675 -0.2292 -0.2954
23649W        W43183   5.831  10.095   2.447  0.1349 -0.0655  0.1658
23650W        W43184   9.001   0.169   0.898  0.2124 -0.0283 -0.0171
23651W        W43185   4.018   3.262  15.719 -0.2683 -0.0010  0.1040
23652W        W43186   2.041   1.769  15.414  0.0740 -0.1169 -0.0840
23653W        W43187  12.943  10.879   1.239 -0.2779  0.0152 -0.4966
23654W        W43188  12.930   7.660  14.566  0.0003 -0.1351 -0.0939
23655W        W43189   1.509  17.399   1.072  0.2260  0.1026  0.1789
23656W        W43190  15.706  10.956  12.483  0.2514 -0.2212 -0.1871
23657W        W43191   8.013  17.614   3.758 -0.3778  0.1077 -0.0718
23658W        W43192   6.692  17.062   0.785  0.2665 -0.0259 -0.1612
23659W        W43193  15.215  17.249   2.001 -0.0394  0.0481 -0.1278
23660W        W43194   2.815  15.697  12.976 -0.1138  0.2724 -0.0403
23661W        W43195   9.777   3.730  12.343 -0.1552 -0.2685 -0.0015
23662W        W43196   1.645   9.719  13.605 -0.1263  0.0811  0.4293
23663W        W43197  10.032   4.847   0.081  0.5401 -0.4386 -0.2237
23664W        W43198  17.841  14.614  16.042  0.1339 -0.0799  0.3107
23665W        W43199   8.854  11.018   1.649 -0.0750  0.0759 -0.1914
23666W        W43200   0.712  11.425   0.496 -0.3561 -0.1465  0.2343
23667W        W43201  16.150  15.819   0.916 -0.0526 -0.1578  0.0080
23668W        W43202  16.553  17.079  12.894 -0.3077  0.4009  0.2482
23669W        W43203  13.810  11.578  13.392 -0.0738 -0.0585 -0.0520
23670W        W43204  12.091   2.876  12.314 -0.2762  0.1929  0.0703
23671W        W43205  15.986   9.750   2.672  0.0471  0.0237  0.1427
23672W        W43206  13.367   1.252  15.724 -0.1371  0.0952 -0.0024
23673W        W43207  12.108  16.912  14.712 -0.2588 -0.0180  0.0502
23674W        W43208   0.604  15.746  13.705 -0.1879  0.3697 -0.2241
23675W        W43209   3.226  15.334  13.219 -0.2035  0.1672  0.1137
23676W        W43210  11.679   3.679  14.093  0.0325  0.1920 -0.0498
23677W        W43211  15.506  17.892  14.900  0.0248 -0.2269 -0.0430
23678W        W43212  12.387   8.745  14.970 -0.0310 -0.0012  0.1412
23679W        W43213   4.358   1.611  12.756  0.2956 -0.0033  0.0553
23680W        W43214  16.660  17.772   0.269  0.3710  0.1209 -0.0372
23681W        W43215  11.765  13.847  15.994  0.0051 -0.0630  0.0035
23682W        W43216  14.574  16.121   1.242 -0.3372 -0.2268  0.1048
23683W        W43217  10.193   4.342  14.169  0.1106 -0.0005 -0.1111
23684W        W43218   5.719  12.618  14.763  0.1195 -0.0921 -0.2783
23685W        W43219   5.440   5.546   0.699 -0.0725  0.4873 -0.0160
23686W        W43220   8.629  13.208  11.173 -0.1115  0.1487  0.0404
23687W        W43221   5.492  14.088   1.470  0.2580 -0.0251  0.0165
23688W        W43222  15.986  16.269  13.784  0.0705 -0.0797  0.0909
23689W        W43223   5.457   1.892  12.528 -0.2631  0.1427  0.1878
23690W        W43224  11.182  11.229  12.635  0.0091  0.1913 -0.2064
23691W        W43225  13.366   8.293   3.546  0.2801  0.1835  0.0088
23692W        W43226  11.305   1.600  12.606  0.0896  0.0628  0.1392
23693W        W43227   2.234   2.360  13.662  0.0093  0.4160  0.2059
23694W        W43228  15.140   4.435  15.998  0.2105  0.2084 -0.0565
23695W        W43229   6.492   5.836  13.502 -0.1460  0.0004 -0.0118
23696W        W43230   0.647   1.744   3.778  0.2365 -0.1879 -0.2023
23697W        W43231  11.862   0.425   4.300 -0.1177 -0.0483 -0.0340
23698W        W43232  16.544  13.262  15.358 -0.1959 -0.3731  0.2780
23699W        W43233   0.455   8.910  11.860  0.3344  0.0031  0.2648
23700W        W43234   9.139   4.592  16.544  0.0955  0.0876 -0.1912
23701W        W43235   6.922   8.613  16.449 -0.0322 -0.0932 -0.3976
23702W        W43236  15.243  11.789   3.460  0.4669 -0.0987  0.1266
23703W        W43237   2.747   0.872  13.422 -0.0277 -0.0550 -0.1788
23704W        W43238   7.430   1.511   1.724  0.0063  0.1441 -0.2737
23705W        W43239   6.919   1.682  15.025 -0.0095 -0.0948  0.1709
23706W        W43240   5.631  17.136   1.018 -0.1487  0.1895  0.1214
23707W        W43241   3.676  16.507   0.437 -0.1032 -0.3485  0.2619
23708W        W43242   1.795   9.456   1.325  0.0454 -0.0231 -0.0063
23709W        W43243   4.306   3.108   5.594 -0.1378 -0.0933  0.2174
23710W        W43244   7.921   9.685  12.658 -0.1603 -0.2815  0.1244
23711W        W43245  15.969  14.779  16.526 -0.1423  0.1823  0.0226
23712W        W43246   6.274  16.594   0.055 -0.1990 -0.1596 -0.0911
23713W        W43247  17.831   1.307  14.532  0.0400 -0.3981 -0.3530
23714W        W43248   5.764   1.476  12.453 -0.3089 -0.0554 -0.0987
23715W        W43249   9.306   7.582   3.697 -0.1038 -0.1723  0.3843
23716W        W43250  12.354  14.068  12.961  0.0113 -0.0062  0.0051
23717W        W43251  10.970  14.878   2.665 -0.3364 -0.0639 -0.1166
23718W        W43252  10.124   3.874  14.387  0.2268  0.2416  0.1197
23719W        W43253  15.996  12.448  16.619  0.1645 -0.0688  0.2427
23720W        W43254  13.800  14.407  15.667  0.0017  0.0345  0.1851
23721W        W43255  17.503  12.518  12.949 -0.3111 -0.0109 -0.0984
23722W        W43256   0.854   4.907  16.601  0.0580 -0.2352  0.2207
23723W        W43257  17.499  16.980  13.533  0.1952  0.0272 -0.0544
23724W        W43258   3.142  16.482  12.169  0.0244 -0.0518  0.0016
23725W        W43259  13.969  13.502   1.776 -0.2647 -0.3303  0.3065
23726W        W43260   8.356   3.481   1.457 -0.0789  0.1986  0.0376
23727W        W43261   4.670   4.829  12.920  0.0625 -0.1115  0.1344
23728W        W43262   4.709   7.075   2.698  0.0667 -0.1372  0.5624
23729W        W43263  11.709  13.622   0.339  0.1459 -0.2132 -0.0713
23730W        W43264   9.210   5.392  10.532 -0.2311 -0.1717  0.1965
23731W        W43265  16.403   7.793  12.357 -0.1884 -0.1445 -0.1885
23732W        W43266  14.810  12.523  12.679 -0.3522 -0.2003 -0.2842
23733W        W43267  16.868   8.110   0.430  0.0736  0.2680  0.3525
23734W        W43268  11.117   7.139  12.173  0.0168 -0.0006  0.0539
23735W        W43269  17.143   7.636  14.480 -0.0411 -0.2342  0.1457
23736W        W43270   9.380   9.737   2.268  0.1375 -0.2863 -0.0805
23737W        W43271  15.260  10.668   2.870  0.0637 -0.0119 -0.3311
23738W        W43272   2.721  12.622  14.949 -0.2000 -0.0840  0.0232
23739W        W43273   1.688   8.918   3.642  0.1006  0.1964 -0.1238
23740W        W43274  10.427   2.990   3.531 -0.0222  0.0186 -0.0652
23741W        W43275   1.666   9.703  12.386 -0.0967  0.0648  0.2636
23742W        W43276   9.526   2.960  16.340  0.2571 -0.0624  0.2575
23743W        W43277  12.821   9.918  15.632 -0.1688  0.1373  0.1546
23744W        W43278   3.733   1.774  14.875 -0.0757  0.1021 -0.3644
23745W        W43279  17.368  17.695   2.805 -0.0095  0.0251  0.0278
23746W        W43280   7.823   2.847  12.360 -0.1398  0.0253 -0.2462
23747W        W43281  16.265   5.317   2.897  0.1067  0.0477  0.0041
23748W        W43282   1.081  11.327  15.664 -0.0412  0.0529 -0.0306
23749W        W43283  15.411  14.318  14.927  0.0413 -0.2530  0.0323
23750W        W43284  15.880  17.402   5.727 -0.0952 -0.2005 -0.0346
23751W        W43285  15.951  12.243   3.762  0.1077 -0.0329 -0.3287
23752W        W43286   6.483  12.847   4.772 -0.1844 -0.2153  0.4605
23753W        W43287  11.793   1.239  11.976  0.0286  0.1678  0.1056
23754W        W43288   3.618   4.393   1.836  0.1228 -0.1299  0.4668
23755W        W43289   0.385   7.405  14.373 -0.1087  0.1240 -0.0597
23756W        W43290   4.074  12.394   2.333  0.0038 -0.0322 -0.4407
23757W        W43291  12.739  14.862   4.128 -0.2586  0.3627  0.1548
23758W        W43292   3.808   4.360   2.382 -0.0659 -0.0125  0.1203
23759W        W43293   4.713   0.268  16.015 -0.1025  0.0941 -0.2396
23760W        W43294   2.381   3.212   5.329 -0.3918  0.2962  0.1773
23761W        W43295  14.476  17.323   2.309  0.0113 -0.0477 -0.0408
23762W        W43296   4.986  12.114  14.921  0.0547  0.1976 -0.2486
23763W        W43297   5.336  10.972  14.045  0.0116  0.0294  0.1164
23764W        W43298  13.613   9.777  11.935 -0.0201 -0.2257  0.0010
23765W        W43299  15.386  13.359   1.111 -0.2110  0.0463 -0.3921
23766W        W43300   6.131  14.881   1.669 -0.2343  0.0011  0.1276
23767W        W43301   8.338  10.806  13.865  0.2371 -0.0984  0.2223
23768W        W43302   2.032   9.170   4.320 -0.0236  0.2450  0.1215
23769W        W43303  16.538  16.376  12.787  0.2212 -0.0146 -0.0337
23770W        W43304  10.803   4.972  13.284 -0.1489  0.0257  0.1692
23771W        W43305   7.488  13.563  16.388  0.2333  0.1064  0.1478
23772W        W43306   4.191  13.045   1.567  0.0086  0.1272  0.1727
23773W        W43307   9.839  16.542  12.490 -0.1479  0.1988 -0.0412
23774W        W43308  10.228   9.176   1.671 -0.0808 -0.1773  0.0948
23775W        W43309  12.131   8.822  15.388  0.2550  0.2639  0.1683
23776W        W43310  12.489   1.228   5.824  0.0688 -0.1175 -0.1314
23777W        W43311  14.187   4.753   4.791 -0.2410  0.1282 -0.1957
23778W        W43312  12.955   0.322  16.135 -0.0847 -0.0434 -0.1416
23779W        W43313   9.581   6.659  13.069 -0.0990  0.1797  0.2354
23780W        W43314  10.694  14.436  13.950 -0.0275 -0.3386 -0.0614
23781W        W43315  17.519   4.579  16.541  0.2840  0.3063  0.2444
23782W        W43316   8.817   2.062   0.375 -0.2981  0.1210  0.0340
23783W        W43317   5.699   4.892  16.359  0.0703  0.0720 -0.0195
23784W        W43318  13.532   0.625   3.555 -0.4596 -0.0975 -0.1060
23785W        W43319  17.001  11.038   0.934  0.0648 -0.2303 -0.0494
23786W        W43320   5.014  17.765   2.762  0.5671  0.1176  0.1478
23787W        W43321   1.638  17.393  14.161 -0.2304 -0.5383  0.1525
23788W        W43322   1.582   8.928  15.004  0.1992 -0.2105  0.1926
23789W        W43323   4.065  15.185   0.055 -0.0766  0.0336 -0.2373
23790W        W43324   7.087   9.151   4.308 -0.1732  0.0643  0.0849
23791W        W43325  13.746   0.197  14.858  0.1159  0.1930 -0.1888
23792W        W43326  10.751   3.950  12.446 -0.1913  0.0255  0.1498
23793W        W43327   4.823  11.669   4.964  0.0798  0.2011  0.0358
23794W        W43328  17.319   7.754  16.277  0.1728  0.0459 -0.0011
23795W        W43329  12.003   8.563   0.577 -0.0827  0.1258  0.0258
23796W        W43330  15.681  12.793   2.036  0.4776  0.0657  0.0308
23797W        W43331   6.264   3.195  12.772  0.3246 -0.0986  0.0131
23798W        W43332  10.137   1.762  15.169 -0.0659  0.0887 -0.0929
23799W        W43333   7.647  14.142   0.935  0.2350 -0.0572  0.2351
23800W        W43334   8.998   3.551   2.867 -0.1036  0.1034  0.3121
23801W        W43335   9.511   8.426  15.890  0.0172  0.0032 -0.0206
23802W        W43336   3.824   2.129   5.532 -0.1528  0.1578  0.0236
23803W        W43337   0.587  13.471   4.127 -0.3264  0.0304 -0.1271
23804W        W43338  16.475   2.094  12.441  0.2177  0.0376 -0.1869
23805W        W43339  12.030  11.480   3.291  0.1399  0.0353 -0.0950
23806W        W43340   7.713   6.531   3.952  0.1113 -0.0037 -0.1611
23807W        W43341  17.637  11.976  14.223 -0.0349  0.1725 -0.0844
23808W        W43342   0.322   0.803   2.759  0.0178 -0.1546 -0.0320
23809W        W43343   1.183  10.335  15.209 -0.1352  0.0767  0.5186
23810W        W43344   2.922  11.109  13.126  0.3574 -0.0046 -0.1063
23811W        W43345   8.753   7.401   0.069 -0.2799 -0.1431  0.0452
23812W        W43346  14.688   3.467  14.115 -0.0599  0.0681 -0.0080
23813W        W43347  13.786  11.372  15.021  0.0152 -0.3912  0.0884
23814W        W43348   4.283   5.602   2.193 -0.0323  0.1967  0.1084
23815W        W43349   2.436  13.226  12.945 -0.0754  0.1827 -0.0081
23816W        W43350   0.486   9.749   1.640  0.0665 -0.2061  0.2312
23817W        W43351   5.098   6.251   4.589 -0.1191  0.0636 -0.1047
23818W        W43352   9.197  16.042  15.388 -0.2159 -0.0547  0.1012
23819W        W43353   2.837  11.424  16.088 -0.1957  0.2857  0.0718
23820W        W43354  15.220  12.698  11.952 -0.2440  0.1781  0.3031
23821W        W43355   8.546   3.912  16.128 -0.0566 -0.1556  0.1489
23822W        W43356  14.229  12.588   0.192 -0.1459 -0.1574  0.3040
23823W        W43357   4.451   7.440   4.732  0.2259 -0.1812 -0.3310
23824W        W43358   2.942   5.890   2.465  0.1306 -0.2019 -0.2385
23825W        W43359  12.782   9.204   3.203 -0.0042  0.1779  0.3091
23826W        W43360  12.107  11.388  12.624  0.2117 -0.3861 -0.3326
23827W        W43361  14.237   0.813  14.410  0.0337 -0.3704  0.3163
23828W        W43362  16.992   4.037   4.713 -0.0248  0.3183  0.1726
23829W        W43363   2.792  13.098  13.807  0.0715  0.1677 -0.0758
23830W        W43364  10.588  17.398  14.435 -0.2182  0.3962  0.1952
23831W        W43365  15.438   1.120  15.381 -0.0950  0.2900  0.1017
23832W        W43366  11.721   2.541  14.678 -0.0151  0.1615 -0.1334
23833W        W43367  10.330   8.771   3.822  0.1818 -0.2195  0.0861
23834W        W43368  15.838   7.856  14.647  0.2278  0.0590  0.1167
23835W        W43369   7.382   2.324   2.011 -0.3228  0.0018  0.1042
23836W        W43370  16.232   0.032  16.116  0.1835 -0.2241  0.0765
23837W        W43371   6.933   2.356  14.556  0.1686 -0.0083  0.1925
23838W        W43372  12.794   6.620   2.901 -0.2474  0.4599  0.1473
23839W        W43373   6.828  13.577  12.803 -0.2032 -0.1678 -0.1855
23840W        W43374  14.505  11.546  14.038 -0.2175  0.2654  0.1290
23841W        W43375  11.927   3.439   3.442 -0.0553 -0.2480 -0.5523
23842W        W43376   9.458   0.467  13.334 -0.0766  0.0102  0.2539
23843W        W43377  11.665  13.650   3.987  0.1073  0.0308  0.0792
23844W        W43378   9.579   9.377  15.668  0.1593  0.1018 -0.1988
23845W        W43379  16.331   4.813  14.543 -0.1076 -0.0278  0.1917
23846W        W43380   6.897  10.967  15.489 -0.0327  0.0678  0.1791
23847W        W43381   6.188   1.153  14.673  0.0164  0.3194 -0.0068
23848W        W43382   6.658  15.150  14.158  0.0806 -0.0124 -0.0237
23849W        W43383  11.185  13.235  12.647  0.2501  0.0081 -0.0191
23850W        W43384   5.089   1.838   3.751 -0.1714  0.0511 -0.1728
23851W        W43385   2.718   8.097   2.656  0.2181 -0.1818 -0.1752
23852W        W43386  13.161  10.814   3.788 -0.0099  0.0910 -0.2621
23853W        W43387  13.819  17.132  13.108  0.0984  0.3907 -0.1660
23854W        W43388  14.033  13.191  12.787  0.6341  0.0489 -0.0196
23855W        W43389   5.829  14.900   3.487 -0.3390  0.0819 -0.1005
23856W        W43390  11.756   9.256  11.200 -0.0097 -0.1326 -0.1117
23857W        W43391  15.076   7.950   1.571 -0.4900  0.1228 -0.0456
23858W        W43392  13.993   8.225   1.390  0.0599 -0.1317 -0.0934
23859W        W43393   3.278   7.706  16.240  0.0764  0.1141  0.0651
23860W        W43394   5.912   8.036   5.405  0.0793  0.2534  0.2075
23861W        W43395  15.194  17.350  13.064 -0.1645 -0.0525 -0.0408
23862W        W43396  17.245   1.865   0.061 -0.2737 -0.2648  0.1927
23863W        W43397   9.473   4.383   1.400  0.2069  0.3157 -0.1072
23864W        W43398  13.502   8.611   3.911  0.4307  0.1540 -0.1614
23865W        W43399   3.686  16.513   2.911  0.1831  0.0874  0.1719
23866W        W43400  11.090  15.728  14.608  0.0145 -0.0165  0.1544
23867W        W43401   6.060   8.484   4.950  0.4062  0.2690 -0.3629
23868W        W43402  13.528   6.616   0.717  0.2427  0.2153  0.0626
23869W        W43403   2.684  12.764   4.239  0.3076 -0.3472 -0.0923
23870W        W43404  13.792   5.545  13.290 -0.0693 -0.5562 -0.1765
23871W        W43405   4.857   2.367   0.813  0.0209  0.1032  0.1490
23872W        W43406   9.019  15.921   2.468  0.1168  0.1361  0.1430
23873W        W43407  16.266   0.814   2.747 -0.1045 -0.1886 -0.0118
23874W        W43408   3.198   9.908   2.331 -0.3036  0.3210 -0.0657
23875W        W43409  11.106   5.855  12.472  0.2123  0.0376 -0.4120
23876W        W43410  10.762  12.345  16.353 -0.1797 -0.2086  0.1303
23877W        W43411   0.114  17.575   0.220 -0.2458  0.0216 -0.0733
23878W        W43412   8.564   0.912  15.545 -0.2460  0.1199  0.0896
23879W        W43413   0.057  13.147  14.773  0.2576  0.0813  0.1562
23880W        W43414   1.558   9.484   4.395 -0.0006 -0.0833  0.2351
23881W        W43415   4.277  11.676  13.024 -0.2916 -0.4912 -0.3625
23882W        W43416   6.994  15.205  16.116 -0.0284  0.0800 -0.0821
23883W        W43417   9.118   4.585  15.652  0.0522 -0.0353  0.1818
23884W        W43418  10.555  12.980   2.336  0.1613  0.0523 -0.2101
23885W        W43419  13.175  12.220  15.216 -0.3116  0.2090  0.1308
23886W        W43420   3.552   3.687  16.316  0.1445  0.1994 -0.2009
23887W        W43421  16.889   0.705  14.801 -0.0795  0.0286  0.0712
23888W        W43422   6.426  15.438  12.067  0.3311 -0.1332  0.0239
23889W        W43423   1.546   0.424   4.463 -0.0796 -0.4036 -0.1814
23890W        W43424   0.982   8.781   3.625  0.1020 -0.4922  0.1308
23891W        W43425  12.772  12.507   3.697  0.2660 -0.3010 -0.0370
23892W        W43426   8.289  12.956   1.113  0.0173 -0.1132  0.1190
23893W        W43427  10.866   4.258   3.121  0.0625  0.0222  0.2789
23894W        W43428  12.492   9.800   0.562  0.0281  0.0193  0.0779
23895W        W43429   9.866  10.906  15.627 -0.0161 -0.0688 -0.3181
23896W        W43430  12.590  13.200  16.083 -0.2565 -0.0396  0.1255
23897W        W43431  17.812  13.648  14.624 -0.1594  0.0531 -0.1246
23898W        W43432  13.959  16.025  14.960  0.1852  0.0334  0.1788
23899W        W43433   9.690   6.180  14.853 -0.3477 -0.1767  0.0410
23900W        W43434  16.608   0.746   0.927 -0.1233 -0.0633  0.1873
23901W        W43435  12.790   1.363  14.336  0.0432  0.0984  0.3383
23902W        W43436  10.089   8.291   1.766 -0.3601  0.4597 -0.2740
23903W        W43437   8.433  17.731   2.632 -0.1465 -0.1771 -0.2045
23904W        W43438   8.019  16.235   3.124  0.1811 -0.3506 -0.1701
23905W        W43439  17.371   4.510   3.960  0.1614 -0.0737 -0.1054
23906W        W43440   3.178  15.146   4.385 -0.1147 -0.0564  0.0982
23907W        W43441  16.208   4.267   3.795 -0.0398  0.0649  0.0527
23908W        W43442  16.305  10.161   3.874 -0.0521  0.0665 -0.0760
23909W        W43443  12.976  10.973   0.270  0.0136  0.0762 -0.0061
23910W        W43444   1.794   3.521  15.641 -0.3688  0.1613 -0.1936
23911W        W43445  17.072  16.649   4.485  0.2600 -0.0376  0.1903
23912W        W43446   5.657   0.972   2.435 -0.1853  0.1517  0.1971
23913W        W43447   5.425   5.937  15.784  0.0967  0.1824 -0.1286
23914W        W43448  15.083   3.580  11.965 -0.1115  0.2207  0.0084
23915W        W43449   2.437   9.469  14.060 -0.0270  0.2405 -0.0136
23916W        W43450  16.328   9.773  15.925  0.1083  0.0524 -0.0724
23917W        W43451   8.154  17.888   3.336 -0.0773 -0.0178 -0.1471
23918W        W43452   7.337   3.612  14.594  0.1069  0.1160 -0.0555
23919W        W43453   5.049  10.596   1.294 -0.2777  0.1879 -0.3057
23920W        W43454  13.621   0.814  12.224  0.2752 -0.1812  0.0305
23921W        W43455   1.285  15.929   3.665 -0.0209 -0.2686 -0.0755
23922W        W43456   3.478  14.565  12.690 -0.0551 -0.1587  0.1853
23923W        W43457  15.072  16.003  15.725 -0.0462 -0.1979  0.0041
23924W        W43458  16.675   2.504  13.232 -0.2003 -0.3674 -0.0471
23925W        W43459  15.630   4.562   3.933  0.1636  0.1126  0.3121
23926W        W43460  16.559   1.669  14.745 -0.0480  0.0142 -0.0672
23927W        W43461   4.507  16.545   2.953 -0.0422  0.1350  0.2822
23928W        W43462   2.249  11.509  14.482 -0.0178 -0.0412  0.0634
23929W        W43463   4.809   5.069   4.400 -0.1411 -0.0744 -0.0264
23930W        W43464   2.625   8.501  15.496  0.1005  0.1559 -0.0077
23931W        W43465   8.230   6.204   1.422  0.3363  0.1688 -0.0696
23932W        W43466  15.797   6.145  13.652 -0.2443 -0.1040 -0.2061
23933W        W43467  15.843   9.319  14.726  0.3506 -0.1032 -0.1449
23934W        W43468   9.821   1.385  15.438  0.2426  0.0051 -0.3277
23935W        W43469   7.805   8.643  13.474 -0.2067  0.3867 -0.1322
23936W        W43470   9.217  11.425  15.989  0.0599 -0.3124  0.0347
23937W        W43471   3.123   0.658   4.231 -0.4399  0.0828  0.1551
23938W        W43472  13.731   9.842  13.887  0.0796  0.1310 -0.3645
23939W        W43473  15.180   0.054   3.934  0.3370  0.2836 -0.0480
23940W        W43474   5.802  15.279   3.088  0.1374  0.1786  0.4277
23941W        W43475   8.018  10.504   0.589 -0.1848 -0.2653 -0.0931
23942W        W43476   9.582   8.860   0.567  0.1714  0.3933  0.0253
23943W        W43477  16.737   2.475  15.166 -0.1484  0.2342  0.1441
23944W        W43478  13.190  12.241  12.514  0.0125 -0.0263  0.1701
23945W        W43479   5.544   8.571  16.082 -0.2599  0.1065  0.0157
23946W        W43480   6.987   7.384  12.650 -0.0317  0.1860  0.0662
23947W        W43481  12.930  14.510  12.592  0.1958  0.2728 -0.0150
23948W        W43482   5.661   2.768   4.614  0.0707 -0.1016  0.3007
23949W        W43483   2.270   9.851  13.608 -0.0281  0.2700 -0.0099
23950W        W43484   1.789  17.831   3.336 -0.0420  0.0886 -0.2503
23951W        W43485  12.483  12.275   0.777  0.0476  0.0766  0.1490
23952W        W43486   8.052  16.358   4.546  0.1544  0.1468 -0.1553
23953W        W43487  10.364  16.462   4.231  0.2181 -0.2083  0.0726
23954W        W43488  15.900  14.296  12.431 -0.0397 -0.0170 -0.3111
23955W        W43489  13.172  14.442   2.393 -0.2014 -0.0717 -0.0391
23956W        W43490   2.570   8.883   1.302 -0.2512  0.0269  0.2530
23957W        W43491   2.820   4.750   3.067  0.2457  0.1208  0.1121
23958W        W43492  13.318   8.016  16.463 -0.0602  0.0553 -0.0144
23959W        W43493   2.090   5.300   2.557  0.2523 -0.2516 -0.1577
23960W        W43494  17.361  11.263  11.917  0.0427  0.1422 -0.0785
23961W        W43495   9.549  14.066   2.009 -0.0559  0.0621  0.1328
23962W        W43496   6.159   7.336   1.114  0.0106  0.2775 -0.1488
23963W        W43497   9.487   1.434   0.081  0.2693  0.0111  0.3034
23964W        W43498  16.366   2.878   1.761 -0.0683  0.0499 -0.1975
23965W        W43499  13.268   8.798  15.127 -0.1800 -0.1804  0.2709
23966W        W43500   7.817   0.481   0.997  0.0511  0.1850 -0.4949
23967W        W43501  13.270  17.196   3.422  0.2069  0.0397  0.1396
23968W        W43502  13.420  15.085  13.892  0.0856 -0.2098 -0.5752
23969W        W43503   0.727   4.119  12.401  0.0700  0.1280 -0.2842
23970W        W43504   5.009  11.046  16.719 -0.0351 -0.0286 -0.0650
23971W        W43505  15.328  12.809   4.347  0.0818 -0.1287  0.0781
23972W        W43506  14.025   7.051   2.675  0.2304  0.1441  0.0908
23973W        W43507  10.153   5.891   1.172  0.0790 -0.0159  0.1723
23974W        W43508  17.316  10.249   1.088 -0.0577 -0.1741 -0.1159
23975W        W43509  16.067   8.551  15.882 -0.1591 -0.0923  0.3701
23976W        W43510  15.730  12.008   1.910 -0.0113 -0.4920  0.1556
23977W        W43511   5.318  14.595  15.406  0.3151 -0.0774 -0.2218
23978W        W43512   1.870   0.418  12.607  0.2480  0.1612  0.1026
23979W        W43513  17.078   9.865  12.662  0.0872  0.0681  0.2185
23980W        W43514   8.351  13.691  16.075 -0.1513  0.0560  0.1389
23981W        W43515   8.189  13.498  12.137 -0.3828  0.2893  0.0256
23982W        W43516   9.504  17.658  12.790 -0.1791 -0.0587  0.3780
23983W        W43517   8.497   7.958   3.902  0.2001 -0.1223  0.0930
23984W        W43518  14.691   5.333  15.283  0.2824  0.0286 -0.0189
23985W        W43519  15.767   7.774   2.481  0.0926  0.4762  0.0489
23986W        W43520  10.171   0.284   4.864  0.2430 -0.0524 -0.3788
23987W        W43521  16.973  17.635   5.031  0.1868  0.1767  0.1823
23988W        W43522   9.182   7.488  12.361  0.2217  0.1374  0.2172
23989W        W43523   8.746   0.090   4.568  0.0921  0.0875  0.1689
23990W        W43524  16.945   3.754  11.917  0.0473  0.0938  0.1903
23991W        W43525   3.525   5.483  15.508 -0.0627 -0.0968 -0.0331
23992W        W43526   9.768   3.315  16.596  0.2862 -0.0842  0.0564
23993W        W43527  14.137   6.662  12.588 -0.1348 -0.0432 -0.2088
23994W        W43528   9.561   7.421   4.082  0.2199 -0.3411 -0.3711
23995W        W43529   8.963   9.020   2.179 -0.0461 -0.2088 -0.0328
23996W        W43530  14.195  11.559  15.752  0.0651  0.1272 -0.0862
23997W        W43531   1.044  16.812  12.748 -0.3954  0.0082 -0.0561
23998W        W43532   8.445  10.469   4.443 -0.0476  0.3330  0.1341
23999W        W43533  13.156   5.182  16.229 -0.0756 -0.0015 -0.0264
24000W        W43534  14.874   7.677  12.860  0.1674 -0.0487  0.1394
24001W        W43535   0.453   6.054   3.329  0.4376 -0.0315  0.1921
24002W        W43536   4.300   9.411  14.111  0.0711  0.0303 -0.2716
24003W        W43537  10.170  16.745  13.828  0.1654  0.1675  0.0104
24004W        W43538  12.380   2.304  15.637  0.1064  0.2048  0.1515
24005W        W43539   1.899   7.118  10.742 -0.1098  0.1029 -0.3811
24006W        W43540  17.810  15.108   4.555  0.2189 -0.0892  0.1613
24007W        W43541  12.066  11.415   1.197  0.2799  0.1804 -0.1191
24008W        W43542  12.492  15.567  15.637 -0.3105  0.0071 -0.0960
24009W        W43543   0.482  15.108   2.300 -0.0607  0.1829 -0.6308
24010W        W43544  15.886   9.482   0.128  0.3718 -0.1672  0.1009
24011W        W43545   2.033  13.499   1.472  0.2131  0.0932  0.1748
24012W        W43546   2.582  12.659  16.346  0.0025  0.0386  0.2530
24013W        W43547   8.965  14.762  16.259 -0.1127 -0.1208  0.0914
24014W        W43548  15.259   1.032   3.698 -0.4010 -0.0473  0.0415
24015W        W43549  14.920  13.796  16.550 -0.0324  0.0070 -0.1262
24016W        W43550  16.820  14.366  12.413  0.0501  0.0647  0.0401
24017W        W43551   1.538  11.452   3.579  0.0916 -0.1638  0.1525
24018W        W43552  15.092   2.114   1.657 -0.1391  0.2035  0.4427
24019W        W43553   7.661   4.274   2.200 -0.0731  0.1267  0.1862
24020W        W43554  14.229  14.177   2.573 -0.1571 -0.1967  0.0667
24021W        W43555  17.818   8.362  13.789  0.1843 -0.2105 -0.1585
24022W        W43556  13.565   8.531  16.459  0.2026 -0.1298 -0.2021
24023W        W43557  13.970   1.519   0.511  0.1270 -0.0447  0.1541
24024W        W43558  12.160  12.992  15.770  0.1715  0.4131 -0.1538
24025W        W43559   4.463   8.377   3.482  0.2327 -0.0264  0.0934
24026W        W43560   4.957   9.094   2.047  0.2097  0.1793  0.3235
24027W        W43561  13.765  12.522  11.938 -0.0544  0.2720  0.1499
24028W        W43562  11.476   0.574  12.963 -0.2953 -0.1418 -0.4223
24029W        W43563  10.888  16.089   0.199  0.2297  0.0440 -0.0416
24030W        W43564   8.992  12.711   2.169 -0.2349  0.3542  0.0909
24031W        W43565   5.988  11.105  16.227 -0.0490  0.2219  0.1832
24032W        W43566   9.276  10.099  11.549  0.0515 -0.2437  0.0154
24033W        W43567   5.549   7.297   3.314 -0.1584 -0.2145 -0.0159
24034W        W43568   5.564   3.434  13.667  0.1820  0.2303 -0.3593
24035W        W43569  17.260  10.081  16.266 -0.3824 -0.1346 -0.1126
24036W        W43570   6.666   1.421   4.352  0.0258 -0.0943  0.0138
24037W        W43571   9.653  17.410  13.819  0.2145  0.1268  0.1890
24038W        W43572  10.809   5.949   3.430  0.2675 -0.0113  0.2463
24039W        W43573  14.752   4.772   3.641  0.0091  0.2275  0.1683
24040W        W43574   5.323   2.766   2.556 -0.1238  0.3711 -0.0267
24041W        W43575  14.231  11.123   3.932  0.0654  0.0093 -0.2324
24042W        W43576  10.556   5.819  12.502  0.3102  0.1751  0.2615
24043W        W43577   9.062   9.236  13.770 -0.0147  0.0363  0.1065
24044W        W43578  17.071   3.280  14.469 -0.1167 -0.1810  0.0356
24045W        W43579   3.000   0.979   1.591 -0.1482 -0.1945 -0.1957
24046W        W43580   2.941   5.820   4.644 -0.2949 -0.1125  0.0272
24047W        W43581  17.264   1.413  11.859  0.1166 -0.1463  0.3092
24048W        W43582   7.142  17.165   0.761 -0.1945  0.1330 -0.3254
24049W        W43583  15.676   9.889  15.135 -0.1983 -0.3122 -0.2233
24050W        W43584   8.839  17.636   1.624 -0.0220  0.2646 -0.0860
24051W        W43585   9.400  14.890   2.373 -0.0737  0.0243  0.0088
24052W        W43586   8.526   5.343   0.997 -0.0328  0.2621  0.4175
24053W        W43587   1.766  15.940  14.548 -0.3807  0.1649 -0.0614
24054W        W43588   5.758   8.265   5.814  0.1032 -0.1296 -0.1442
24055W        W43589  10.125   6.309   3.057 -0.1019 -0.1252 -0.0053
24056W        W43590   5.326   8.461   6.025 -0.1233  0.0950 -0.0754
24057W        W43591  15.763   2.045   4.697  0.0259 -0.1545  0.0013
24058W        W43592   4.480   0.726  15.880  0.0144 -0.0613 -0.1146
24059W        W43593   3.211   0.671  13.460 -0.1785  0.1104 -0.0858
24060W        W43594   4.265   5.117  11.254  0.0478 -0.0506  0.0759
24061W        W43595  13.904  15.194  14.134 -0.0134 -0.2346 -0.1209
24062W        W43596   9.019   8.639   1.846 -0.0192 -0.0910 -0.0748
24063W        W43597  11.085  17.569  13.570  0.0642  0.4687  0.2028
24064W        W43598  12.143  14.306  12.540 -0.0250 -0.3491 -0.1730
24065W        W43599   4.747   7.666  16.653 -0.0421 -0.0937  0.1906
24066W        W43600   1.797   0.421   1.727 -0.2467 -0.1269 -0.4327
24067W        W43601   2.787  16.719   0.055  0.0911  0.1160 -0.1044
24068W        W43602   7.014   1.013   0.945  0.2401 -0.1359  0.3179
24069W        W43603   9.743   7.570  13.291 -0.2511  0.0408 -0.2108
24070W        W43604   3.184  13.528   1.176 -0.1491 -0.1520  0.1759
24071W        W43605  13.716   3.586  12.963 -0.2673  0.0283 -0.1249
24072W        W43606   6.166  12.201   1.393 -0.1675 -0.1146 -0.1108
24073W        W43607  15.706  13.208   2.772  0.1860 -0.0880 -0.0866
24074W        W43608   7.920   1.314   1.666 -0.0141 -0.0899  0.0798
24075W        W43609   4.012  12.222  14.437 -0.1495 -0.0656  0.0650
24076W        W43610   4.457  11.171  14.243 -0.0824 -0.1455 -0.0928
24077W        W43611   9.394  10.695  12.837  0.1844 -0.1701 -0.2127
24078W        W43612   1.932   7.592  13.387  0.0001  0.1624  0.1593
24079W        W43613  15.744   0.944   3.686  0.2276 -0.0812  0.1990
24080W        W43614   8.087   3.849   1.795  0.1828 -0.6479 -0.1754
24081W        W43615  10.764  16.919   3.818 -0.0310  0.2299  0.1049
24082W        W43616  16.423   7.781   4.427 -0.0446  0.1344  0.1599
24083W        W43617   6.635   5.704   3.960 -0.1838 -0.1379 -0.0940
24084W        W43618   4.968  11.154   2.949 -0.0893  0.4263 -0.1493
24085W        W43619  12.184   8.351   2.018 -0.0809 -0.0804 -0.1343
24086W        W43620  14.811  10.524   4.347 -0.2006 -0.2002 -0.0713
24087W        W43621   1.902  15.818   4.626  0.1341  0.1801 -0.0025
24088W        W43622   6.466   4.318   5.793  0.4544 -0.1191  0.0180
24089W        W43623  12.947   1.081   4.094 -0.1039 -0.0456  0.0876
24090W        W43624   4.805   8.916   5.067  0.3676  0.2312 -0.3705
24091W        W43625  15.930   6.177  15.112  0.2709  0.0912 -0.2411
24092W        W43626   7.183   9.643   2.097  0.2452 -0.2591 -0.2319
24093W        W43627  14.340   6.904   0.449  0.0555  0.1671  0.1233
24094W        W43628   2.707   7.299   4.000  0.0214 -0.0754  0.1148
24095W        W43629   6.585  14.894  13.293 -0.1691 -0.0016  0.1794
24096W        W43630   9.898  15.848  14.736 -0.1476  0.0806 -0.1737
24097W        W43631   5.559   6.681  15.828  0.2035  0.2088 -0.1807
24098W        W43632   9.038   1.133   0.110 -0.1155  0.0304  0.2569
24099W        W43633  16.215   2.366  13.364 -0.0168 -0.0169 -0.2363
24100W        W43634   0.073   3.657  15.070  0.1213  0.0684  0.1767
24101W        W43635   4.439  14.849   1.288  0.0812  0.1955 -0.0040
24102W        W43636  16.716  12.218  14.277 -0.0464 -0.2549  0.7051
24103W        W43637   6.784  10.187  12.270 -0.0812 -0.3255  0.2035
24104W        W43638   6.347   1.487   1.961 -0.0954 -0.1197 -0.4110
24105W        W43639  15.299   3.502  14.957 -0.4435 -0.1545 -0.0021
24106W        W43640  11.669   6.649  16.628  0.1823  0.1740  0.1786
24107W        W43641   9.419  10.176  14.005  0.0285 -0.0836  0.1875
24108W        W43642  14.540   0.594   0.551  0.1910 -0.0871 -0.0419
24109W        W43643   8.886   1.100   2.064  0.0366 -0.1008 -0.0587
24110W        W43644   9.246   9.428   1.895  0.1302  0.0501  0.2208
24111W        W43645  10.923   7.484  15.429 -0.0736  0.0494  0.1529
24112W        W43646  13.649  10.740  12.226 -0.1604 -0.0301  0.0001
24113W        W43647   2.768  14.764   2.079  0.1481  0.1309  0.0794
24114W        W43648   5.578   6.361  11.790 -0.2070  0.0564 -0.2517
24115W        W43649   9.653   7.203  12.914 -0.2567 -0.0272  0.1177
24116W        W43650  16.040   5.651  12.605  0.1920  0.0764 -0.4002
24117W        W43651  15.022   5.765   0.975  0.2864  0.3109  0.0707
24118W        W43652  15.307   4.801  13.626 -0.1881 -0.2199  0.0030
24119W        W43653   3.837   8.698  14.128 -0.5614  0.2772  0.2372
24120W        W43654  11.004  16.943   4.689  0.0667 -0.2829 -0.0655
24121W        W43655   5.935  11.240  16.721 -0.1131 -0.1271 -0.0246
24122W        W43656  17.285  10.427  12.509 -0.0666 -0.0471 -0.1993
24123W        W43657  12.761  12.273   2.619  0.5126  0.0954 -0.0612
24124W        W43658  10.700  10.480  12.013  0.1415  0.0154  0.0949
24125W        W43659   1.333   0.958   2.236 -0.2891  0.1303 -0.1242
24126W        W43660  10.068   5.620  15.209  0.1649  0.2324 -0.3724
24127W        W43661   3.854   3.631   0.152 -0.0714  0.2788  0.0570
24128W        W43662   6.669   4.918  11.683 -0.1904 -0.0009  0.2509
24129W        W43663   3.284  14.639   5.747  0.0508  0.0756  0.1482
24130W        W43664  15.798   9.473  10.479  0.0391  0.1594  0.0493
24131W        W43665   9.029  11.851   2.251 -0.1075 -0.0110 -0.0033
24132W        W43666   2.652  12.340   3.935  0.2219  0.1106  0.1244
24133W        W43667   2.318  10.876   0.816  0.1066 -0.1043  0.0449
24134W        W43668  16.831   1.158  16.418  0.3202  0.2948  0.2036
24135W        W43669   8.272   0.042  11.999 -0.0594  0.0113 -0.1065
24136W        W43670  13.176  12.914   0.016  0.1208  0.0109  0.0887
24137W        W43671   2.142  13.388   2.492 -0.3657  0.2525  0.0107
24138W        W43672   2.140  17.484  15.588  0.0540 -0.0801  0.1922
24139W        W43673   9.821  11.232   3.975 -0.0550  0.0496 -0.0311
24140W        W43674   6.718   4.008   4.240  0.0892 -0.1017 -0.1780
24141W        W43675   8.150   3.329   2.388 -0.1771  0.1220 -0.0515
24142W        W43676   2.229  12.609   1.627  0.1668 -0.2191 -0.1752
24143W        W43677  12.429   2.762   3.540 -0.0378  0.3173  0.2418
24144W        W43678   4.013  15.905  13.162  0.1617  0.0505  0.0469
24145W        W43679   9.434  10.609  15.056  0.3259 -0.0825 -0.2431
24146W        W43680   8.876   5.324   0.651 -0.1323  0.0053  0.1946
24147W        W43681  15.102   2.362  15.129 -0.1622 -0.2156  0.0285
24148W        W43682   6.476   7.943   0.026  0.1796 -0.2123  0.3641
24149W        W43683   5.425   3.235   3.504  0.1978 -0.0601  0.0976
24150W        W43684  15.672  13.838   1.198  0.1067 -0.1536 -0.2431
24151W        W43685  11.918  10.412   2.237 -0.0311 -0.4952  0.0011
24152W        W43686   5.348  17.538  15.549 -0.1737  0.0635  0.1146
24153W        W43687   5.801  12.831  12.997  0.1091 -0.2097  0.2786
24154W        W43688   7.626   1.610   0.716  0.0368  0.1497 -0.0919
24155W        W43689   7.293  10.334   0.158  0.1084 -0.1045 -0.1193
24156W        W43690   3.612   7.290  13.254  0.0399 -0.0630  0.0691
24157W        W43691   5.680   1.089  14.706 -0.2012  0.1092 -0.0222
24158W        W43692   1.063  11.662  16.031 -0.2024  0.1724 -0.1303
24159W        W43693   7.419  15.846   2.528 -0.1607 -0.2535 -0.0731
24160W        W43694   0.697  12.761   5.189 -0.3560  0.0006 -0.0444
24161W        W43695   5.814   8.255   3.202 -0.1063  0.4422 -0.3391
24162W        W43696  12.352  13.629   1.046 -0.1338  0.3618  0.2390
24163W        W43697  15.494  17.788   1.346  0.0010  0.0517  0.0661
24164W        W43698  15.652  16.675   3.136  0.1229 -0.2789 -0.0457
24165W        W43699   4.194  11.801   0.097 -0.0958  0.1369 -0.2078
24166W        W43700  16.172  15.223  16.388  0.1193  0.0077 -0.2355
24167W        W43701   5.012  11.887   0.720  0.0203  0.1387 -0.1297
24168W        W43702  13.539   9.135  15.472  0.3372 -0.2012  0.2028
24169W        W43703  10.420  13.096  14.887 -0.0251  0.3733  0.1338
24170W        W43704  10.575  16.449   3.724 -0.1944 -0.0696 -0.5698
24171W        W43705   9.983  14.669   1.137  0.2073 -0.2268  0.2062
24172W        W43706   7.088   2.161   0.781  0.2937  0.4635  0.1769
24173W        W43707   3.987  14.772  13.474  0.0391 -0.2697  0.1109
24174W        W43708   1.536   7.656  16.048 -0.1042  0.2362  0.0388
24175W        W43709   5.803  11.117   1.531 -0.0695 -0.1514  0.0533
24176W        W43710   0.920   1.703  12.285 -0.2912  0.1356  0.0255
24177W        W43711   9.239  15.985   3.786 -0.2535  0.2974  0.2522
24178W        W43712   2.024   5.716   4.664 -0.0852  0.0899  0.1302
24179W        W43713   8.509   8.762   0.117 -0.0418 -0.0799 -0.0435
24180W        W43714  11.405   5.763   1.961 -0.1054  0.1695  0.1840
24181W        W43715  12.591  12.393  14.997  0.0754  0.3463 -0.3330
24182W        W43716  13.615  14.676  14.843  0.0744  0.0466  0.2601
24183W        W43717   9.312   7.541  16.523  0.0793 -0.1405  0.1376
24184W        W43718  15.843   8.798   2.107 -0.2889 -0.0880 -0.3351
24185W        W43719  10.033  11.558  16.009 -0.0217 -0.0581 -0.1435
24186W        W43720   5.330   9.939   0.538 -0.0039 -0.0130 -0.0975
24187W        W43721   8.618   8.065   2.298 -0.1941  0.2175 -0.1547
24188W        W43722  13.645   3.989   5.238 -0.0266  0.1867 -0.3325
24189W        W43723   8.861   0.596   1.322  0.0369  0.1155 -0.0852
24190W        W43724   3.337   0.102   0.173 -0.2936 -0.0270 -0.0538
24191W        W43725   4.132   6.650  13.980  0.2299 -0.1669 -0.3160
24192W        W43726  11.547   9.029   0.959  0.1577  0.1676  0.2428
24193W        W43727  16.128  14.913  14.661  0.1501  0.1479 -0.2305
24194W        W43728   0.473  15.263  13.847 -0.1033  0.1891  0.0628
24195W        W43729  13.945   8.083   3.301 -0.2227  0.0804 -0.1112
24196W        W43730  13.574  14.117   4.268 -0.4083 -0.1273 -0.4376
24197W        W43731  17.016  10.697   3.145  0.2606 -0.2017 -0.2659
24198W        W43732   7.677  11.388   0.761 -0.3670  0.2641  0.2519
24199W        W43733  11.775  13.443   2.734  0.1738 -0.3007 -0.4563
24200W        W43734  16.124   7.115  14.375 -0.2545  0.1112  0.0263
24201W        W43735   8.573   7.912   0.931  0.2126  0.0748 -0.1039
24202W        W43736  16.407   2.211  14.824 -0.0054  0.0708 -0.1961
24203W        W43737   2.044  16.936   0.468  0.1070 -0.0117 -0.2898
24204W        W43738  14.690   6.047   0.531 -0.0852 -0.1692 -0.2228
24205W        W43739   8.653  10.358  12.620  0.2758 -0.3766  0.2444
24206W        W43740   8.329   7.667   1.730 -0.0011  0.2645  0.0097
24207W        W43741  10.261  10.127   2.286 -0.0538  0.2625 -0.1328
24208W        W43742   1.481  16.323  15.071  0.2639 -0.5313  0.2256
24209W        W43743  11.052   8.934   4.362 -0.0362  0.0267 -0.2196
24210W        W43744   8.195   6.394   3.638 -0.2444 -0.0258  0.2798
24211W        W43745   8.958  12.502   4.369  0.3733  0.1499  0.0071
24212W        W43746  15.354   9.695   3.141 -0.0438  0.0427 -0.2899
24213W        W43747  15.717   3.262   0.145  0.2623 -0.2761 -0.2761
24214W        W43748   8.190   2.434  12.222 -0.1521  0.1083  0.0412
24215W        W43749   0.228  15.745   3.110 -0.0388 -0.2285  0.2635
24216W        W43750  16.107   9.288  13.181 -0.0043 -0.0340 -0.1942
24217W        W43751  15.007  17.424  15.956 -0.0160  0.0506  0.0765
24218W        W43752  17.455  14.399   3.939 -0.1591 -0.2242  0.1352
24219W        W43753   0.456  10.840   0.795  0.1125  0.3913 -0.1849
24220W        W43754  12.412   4.498   1.234 -0.2495 -0.1698  0.3086
24221W        W43755   8.870   4.745  11.402  0.1956  0.3812  0.1744
24222W        W43756  16.785   9.409  16.430 -0.2889  0.0339 -0.1970
24223W        W43757   8.111   4.188  12.894 -0.0685 -0.0884  0.0655
24224W        W43758   8.051  13.396  14.996  0.4067  0.1762 -0.2622
24225W        W43759  11.712  13.828  13.644 -0.0779  0.1245 -0.0849
24226W        W43760  17.228   9.105  11.291 -0.1955 -0.0497 -0.1410
24227W        W43761   7.506   6.223  13.316  0.0355 -0.1723 -0.0442
24228W        W43762   2.593   4.993   4.539 -0.4487 -0.0068 -0.2102
24229W        W43763  14.009  12.894   1.070  0.1692 -0.3902 -0.2466
24230W        W43764   0.998  12.264  15.949 -0.1937 -0.1139  0.2062
24231W        W43765   8.988   7.598  15.808 -0.0848 -0.0618  0.0484
24232W        W43766   4.991   1.038   4.954 -0.1265  0.1823 -0.3947
24233W        W43767   4.028   5.385   3.743 -0.0617  0.0065 -0.1788
24234W        W43768   5.870   4.239   5.706 -0.0131  0.1118  0.2258
24235W        W43769  17.366  17.744   1.420  0.1189 -0.0060 -0.3695
24236W        W43770  14.583  17.468  14.869 -0.2051  0.2160  0.3803
24237W        W43771   3.765  14.244   2.202 -0.0046 -0.1763  0.1067
24238W        W43772  10.885   0.863   1.918  0.1880  0.0866  0.2903
24239W        W43773   0.938  13.928   1.982  0.1984  0.5760  0.1120
24240W        W43774  11.082   8.701   0.226  0.0881 -0.0524 -0.2733
24241W        W43775   5.981  17.687   2.917 -0.1516  0.1721 -0.2344
24242W        W43776  17.546   4.882   2.654  0.1623  0.0796 -0.0705
24243W        W43777  15.691  11.847   2.399  0.0094 -0.1744 -0.0300
24244W        W43778   8.791   2.226  11.800 -0.0809 -0.1065  0.3924
24245W        W43779   7.207   8.078  16.222 -0.2505 -0.3835 -0.1466
24246W        W43780  13.779  12.348  16.451  0.0315 -0.1351  0.3387
24247W        W43781   3.080  12.199  13.389 -0.0907 -0.0738 -0.0779
24248W        W43782  16.341  14.114  12.476  0.1688 -0.3174  0.0821
24249W        W43783   7.244   7.348  13.740  0.0240  0.2828 -0.0075
24250W        W43784  17.767   0.573  15.660 -0.1520 -0.1243  0.0715
24251W        W43785   8.528   1.670  14.959 -0.0285  0.1315  0.1241
24252W        W43786   7.954  10.514   1.447  0.1103 -0.3207  0.2022
24253W        W43787   8.879   0.327  14.421  0.0885 -0.3332  0.2114
24254W        W43788  10.311   7.335   4.505  0.0913 -0.0175 -0.2817
24255W        W43789   4.638   3.719   4.618 -0.1598  0.0979  0.0500
24256W        W43790   7.667  10.915   0.507  0.0726 -0.1911  0.3098
24257W        W43791   2.859  15.729  15.252 -0.1223  0.1395  0.0981
24258W        W43792   9.119   1.970  11.251 -0.4448 -0.0863 -0.0176
24259W        W43793  16.436  10.442   1.706  0.0916 -0.1507  0.3491
24260W        W43794  13.706   8.351  14.087  0.2669  0.0260  0.2499
24261W        W43795   9.591  13.843   3.128  0.2115 -0.1370 -0.1878
24262W        W43796  10.568  13.987   2.374 -0.2068 -0.1145  0.2566
24263W        W43797  14.812   1.449  13.415  0.2993  0.1226 -0.1218
24264W        W43798   5.170   3.990  12.947 -0.0979  0.0838  0.2586
24265W        W43799   1.566  16.437   1.754 -0.0698  0.3795  0.0453
24266W        W43800   4.921   1.932   2.005  0.0337 -0.0459  0.2417
24267W        W43801   0.704   8.227   0.687  0.0016  0.0857 -0.4755
24268W        W43802  10.848   2.259   0.867 -0.1540  0.0057  0.1896
24269W        W43803   2.729  11.438   4.212 -0.2611  0.1439  0.1796
24270W        W43804   0.799  14.586  16.463 -0.1107  0.1554 -0.2124
24271W        W43805  17.043  14.073   0.745  0.1955  0.0903 -0.0984
24272W        W43806   0.107   6.359  13.584  0.0642  0.2685  0.3383
24273W        W43807   3.299   5.013  12.645 -0.0830 -0.1066  0.0354
24274W        W43808  13.391  11.878   0.129  0.0362  0.1279 -0.0139
24275W        W43809  14.426   1.041  13.845  0.1007 -0.3876  0.3592
24276W        W43810   3.461  13.701  12.530 -0.0123 -0.1335  0.4585
24277W        W43811   4.116   2.458  12.807 -0.3156 -0.0987  0.1635
24278W        W43812   9.015  12.031   4.699  0.0335  0.2014  0.0476
24279W        W43813  17.531   1.541  13.667  0.0438 -0.2091  0.0647
24280W        W43814  11.705   1.137  16.476 -0.0649 -0.1890  0.2530
24281W        W43815  14.060   1.956  13.705  0.3577 -0.0323  0.0238
24282W        W43816   5.292  12.559  13.343  0.3144  0.2323  0.1247
24283W        W43817   1.258   8.121  13.135  0.2734 -0.1127  0.0886
24284W        W43818   5.091  10.176   2.799  0.1178 -0.0521 -0.3792
24285W        W43819  16.583  16.562  11.139 -0.0031 -0.2061 -0.1135
24286W        W43820  12.729  10.693  13.229  0.0199 -0.3505 -0.0093
24287W        W43821   6.545   6.710   2.803  0.0394  0.0989  0.0136
24288W        W43822  10.429  13.645  11.998 -0.3442 -0.3141 -0.1385
24289W        W43823   6.645  13.702   2.450 -0.0461 -0.3507  0.0988
24290W        W43824   4.116   6.201  11.590  0.0787  0.2358  0.1735
24291W        W43825   2.102   8.896  13.267 -0.0473 -0.1019  0.3654
24292W        W43826   8.573   9.521  13.641 -0.1457  0.1401  0.3569
24293W        W43827  13.726   7.241  11.836  0.0662  0.0476  0.3020
24294W        W43828   9.984  14.092  13.340 -0.0167  0.2404 -0.1918
24295W        W43829   0.379   6.493  15.464  0.1608 -0.1079 -0.1637
24296W        W43830   7.640   8.815  12.483  0.2350  0.0633 -0.0095
24297W        W43831  15.757  14.959   1.305  0.2203  0.0825  0.0797
24298W        W43832  12.159   8.614  14.564  0.1625  0.1637 -0.2352
24299W        W43833   4.282  14.192   0.740  0.1489  0.3143  0.0220
24300W        W43834   6.490  17.196   1.441 -0.2510  0.0281  0.2462
24301W        W43835  12.813   5.970  11.441 -0.0917 -0.0741 -0.3183
24302W        W43836  13.238  10.091  16.254 -0.1744 -0.0633  0.2101
24303W        W43837   7.509   5.436   4.782 -0.0987 -0.1201  0.0380
24304W        W43838   2.536   0.630   2.980  0.0710 -0.2420  0.1567
24305W        W43839  16.153  14.795   4.231  0.1434  0.0013 -0.0146
24306W        W43840   1.409  10.989  12.675  0.4370 -0.1375  0.0859
24307W        W43841   6.095   8.988   1.398 -0.1112 -0.2944  0.2002
24308W        W43842   7.273  17.536  12.637 -0.1129 -0.1035 -0.0067
24309W        W43843  15.157  11.386  11.977  0.2442  0.0965 -0.2260
24310W        W43844  14.418  17.622  12.861  0.1851  0.0669  0.0335
24311W        W43845  12.629  15.054  12.876 -0.0541  0.1618 -0.0245
24312W        W43846  12.220  11.573   4.271  0.0227  0.2910  0.1595
24313W        W43847  16.770  17.707   1.737 -0.0510  0.0496 -0.1611
24314W        W43848   8.828  14.248   4.643 -0.2137 -0.1396  0.3233
24315W        W43849   1.859  11.242  12.775 -0.0819  0.1414  0.1239
24316W        W43850   3.890  10.666  16.085 -0.0050  0.1092 -0.1834
24317W        W43851  13.857   6.195  16.706 -0.0866  0.1000  0.2191
24318W        W43852   1.184   6.911   4.379 -0.2492  0.0892 -0.0037
24319W        W43853   7.898   9.301  11.796  0.0175  0.2244  0.2122
24320W        W43854  14.962  11.157   1.608  0.1651  0.2084  0.1233
24321W        W43855  12.197  12.019  14.302 -0.1485  0.0363 -0.0341
24322W        W43856   6.484  13.731   4.575  0.1058  0.2179 -0.2203
24323W        W43857  14.641   0.308  14.798 -0.0643  0.3783 -0.2649
24324W        W43858  11.214   2.461   2.851 -0.1887 -0.0151 -0.1098
24325W        W43859  16.820  17.822  12.844  0.3515  0.1975 -0.0291
24326W        W43860   6.863   2.879   4.950 -0.2618  0.3412  0.1074
24327W        W43861  14.141   4.907  12.159 -0.0975 -0.0125  0.3308
24328W        W43862   4.903  13.548  15.930  0.2234 -0.2585  0.2807
24329W        W43863   4.323  10.709  14.054  0.3656  0.0506  0.1605
24330W        W43864   4.847   3.527  14.692  0.2011  0.0614  0.2557
24331W        W43865  15.004   0.328  14.103  0.0068  0.0610  0.0404
24332W        W43866  13.238   9.223  16.735  0.0104  0.0625  0.0144
24333W        W43867  12.072   0.584   0.830 -0.0371  0.0087  0.2611
24334W        W43868   9.565   7.548  16.055  0.3282  0.2792 -0.2002
24335W        W43869  16.374   6.951  12.750  0.1344  0.0452 -0.1789
24336W        W43870   4.335  15.449   4.785 -0.0660 -0.3640  0.0686
24337W        W43871  13.372  11.527  13.713 -0.0531  0.0952 -0.3895
24338W        W43872  17.625   8.846  13.326 -0.1702  0.0750 -0.3624
24339W        W43873   5.338   6.776  11.799 -0.0568  0.4132 -0.1150
24340W        W43874  12.569  12.238   2.152  0.3535  0.0146 -0.0582
24341W        W43875  10.423   3.528   3.728 -0.0240 -0.1894 -0.0900
24342W        W43876   4.202  11.763  12.561  0.2043  0.1295  0.1984
24343W        W43877  11.316   8.802  16.106 -0.0280  0.0922 -0.1691
24344W        W43878   3.046  17.185   2.479  0.0706 -0.0828 -0.0031
24345W        W43879  16.815   1.496   3.853 -0.0175  0.2883 -0.0135
24346W        W43880  12.456  10.131  14.934 -0.2569 -0.1340 -0.0496
24347W        W43881  13.235   1.801   1.712 -0.2537 -0.0368  0.2952
24348W        W43882  15.048   7.937   0.089  0.1484  0.1134  0.2552
24349W        W43883  15.929  16.704  13.036  0.0101 -0.3040 -0.0775
24350W        W43884  14.308   4.900  14.478 -0.0418  0.1706 -0.0722
24351W        W43885   1.581  11.931   1.597 -0.3394  0.1157 -0.0210
24352W        W43886  15.127   8.535   0.894  0.1397  0.1126  0.2110
24353W        W43887  14.649  12.664  15.427  0.0556  0.1026  0.2641
24354W        W43888   1.474  11.793   2.177 -0.0139  0.0395  0.3657
24355W        W43889  10.980   4.692   3.447  0.2641 -0.2609  0.0592
24356W        W43890  10.497  14.205  12.026  0.2430 -0.2795 -0.2819
24357W        W43891   7.984  16.922   0.515  0.1596 -0.1908  0.0475
24358W        W43892  17.171  17.425   3.280  0.0824  0.4272 -0.0759
24359W        W43893   4.526   3.508   2.641  0.0683  0.0763  0.2710
24360W        W43894   0.741   6.279  15.765  0.0103 -0.1288 -0.3687
24361W        W43895  15.429  14.322  15.407  0.1443  0.0995 -0.5719
24362W        W43896  14.835  10.772  15.940  0.1303  0.1088  0.2141
24363W        W43897  12.793   7.454   4.644  0.2246 -0.0416 -0.0893
24364W        W43898   9.955   4.046  11.994  0.0366  0.3654  0.1827
24365W        W43899  10.469   3.896  13.434  0.1243  0.3046 -0.0756
24366W        W43900  15.596   0.088   2.202 -0.0769 -0.2254  0.0607
24367W        W43901   0.437   8.691  14.523 -0.0727 -0.1506  0.1574
24368W        W43902   4.799   9.751  11.051 -0.2101 -0.0214 -0.2428
24369W        W43903  16.840   9.051  11.658 -0.5254  0.3738  0.1970
24370W        W43904   6.106  14.166  14.264  0.1660 -0.0568 -0.1159
24371W        W43905   6.266   3.604   2.434  0.2259 -0.1500 -0.0567
24372W        W43906   5.030  12.179  15.435 -0.0799  0.0413  0.1561
24373W        W43907   1.223   8.140  11.798 -0.2901  0.2184  0.0366
24374W        W43908   7.532   3.873   1.801 -0.2616  0.2506  0.1681
24375W        W43909  10.371  17.399  14.920  0.0970 -0.0189 -0.1022
24376W        W43910  14.940  13.583  13.656  0.0353  0.4971  0.0396
24377W        W43911   1.663   3.926   2.765  0.0066 -0.0687 -0.2984
24378W        W43912   9.669  11.066  13.699 -0.0875 -0.2022 -0.2197
24379W        W43913   5.343   3.303  13.161 -0.1808 -0.2728  0.0307
24380W        W43914   9.653  13.349  15.446 -0.1113  0.0676  0.4267
24381W        W43915   4.373  15.914   4.002  0.1632 -0.0834 -0.0433
24382W        W43916  10.519  15.688   1.455 -0.2199  0.2545 -0.3226
24383W        W43917   4.464   6.748   3.958 -0.0392  0.0201 -0.3261
24384W        W43918  10.992   6.782   0.621 -0.2300 -0.4909  0.1142
24385W        W43919  10.204   6.189   2.089 -0.0279  0.1165 -0.0389
24386W        W43920  12.312  16.475   1.026 -0.2669  0.1760 -0.2485
24387W        W43921  16.969   4.528   0.728 -0.1145 -0.0950  0.2520
24388W        W43922   6.510  14.045  13.858 -0.0452  0.1126  0.0610
24389W        W43923  15.796   3.026  13.122  0.0124 -0.0174  0.0260
24390W        W43924   3.591   6.938   3.268  0.0226 -0.3038 -0.0208
24391W        W43925   1.528   0.163  14.003  0.0123 -0.0825 -0.0628
24392W        W43926   3.078   5.086  11.211 -0.0372  0.2536 -0.0061
24393W        W43927  16.695  11.641   2.274  0.0447  0.0026 -0.0327
24394W        W43928  10.599   0.705  16.379  0.0589  0.0662  0.1056
24395W        W43929   7.087  13.893  16.512 -0.2359  0.3712 -0.2414
24396W        W43930  14.600   8.024   0.271 -0.0010  0.2924 -0.3290
24397W        W43931   7.298  16.656  12.656  0.3067  0.2994 -0.0802
24398W        W43932   3.113   6.573  14.087 -0.0655 -0.0188  0.0314
24399W        W43933   5.569   6.302  13.242 -0.0315 -0.2460  0.0726
24400W        W43934   3.138  13.112   2.839  0.0068 -0.3087 -0.2015
24401W        W43935  11.339  15.147   1.360  0.1247  0.0962 -0.2598
24402W        W43936   5.955  11.948  15.637 -0.3014  0.0786  0.1069
24403W        W43937  16.538   2.280  15.746  0.0947 -0.3938  0.1052
24404W        W43938  12.578  11.130  13.307  0.1642 -0.0225 -0.0591
24405W        W43939  10.834  11.748   3.353 -0.0457 -0.0681 -0.0629
24406W        W43940   2.733  15.593  12.371 -0.1591  0.0285  0.1556
24407W        W43941  14.327  17.509   2.764  0.0032  0.0820 -0.1331
24408W        W43942  17.119   9.788  15.262  0.0129  0.1150  0.3837
24409W        W43943  12.083  13.685   3.283 -0.2347  0.1237  0.0516
24410W        W43944  16.895   7.646   2.005  0.0094  0.1753  0.2829
24411W        W43945   1.804   3.914   3.520  0.0221 -0.0812 -0.1885
24412W        W43946   3.362   0.646  13.966 -0.1327 -0.2363  0.0130
24413W        W43947   6.438  10.890   2.635 -0.2410  0.0909 -0.2564
24414W        W43948  15.657  10.296  14.836  0.1499  0.1067  0.2405
24415W        W43949   3.874   0.196   3.542 -0.0300  0.1062  0.0463
24416W        W43950   8.186   0.915   2.186  0.0506 -0.3398 -0.1296
24417W        W43951   5.274   4.290   2.440  0.0356 -0.0078  0.0769
24418W        W43952   6.471  14.557  14.059 -0.1649  0.0916  0.1150
24419W        W43953  13.188  14.900   0.130 -0.0335 -0.0219 -0.2374
24420W        W43954   1.615  11.511  15.948  0.0306 -0.0958  0.0024
24421W        W43955   3.628   7.375   4.877  0.2528  0.1564 -0.0582
24422W        W43956   1.045  14.643  12.714  0.0946 -0.0859 -0.3793
24423W        W43957  14.287  13.195   2.496 -0.1327  0.1232 -0.1183
24424W        W43958  16.049  11.983  13.944  0.0477  0.2733 -0.0267
24425W        W43959  16.827  14.319   4.889 -0.1084 -0.2832  0.0469
24426W        W43960   0.416  17.532  13.134 -0.0398 -0.1422  0.1421
24427W        W43961  10.783   0.689  14.286  0.3927 -0.1410  0.0046
24428W        W43962  14.346  14.835  13.644  0.0004 -0.3402 -0.2237
24429W        W43963   5.494   4.370  13.280  0.0629 -0.2029 -0.0380
24430W        W43964   7.596  11.805   5.813  0.1750 -0.1769  0.1139
24431W        W43965  12.541  15.172   3.281  0.1823  0.0625  0.0330
24432W        W43966   8.811   4.507  15.248 -0.0144 -0.0355 -0.0866
24433W        W43967  17.896   9.447  13.078  0.1488 -0.0949  0.0721
24434W        W43968   6.390   6.619   5.991 -0.0025 -0.2124 -0.0056
24435W        W43969  10.210  10.668  15.404  0.0118 -0.1420 -0.0415
24436W        W43970   0.805  16.681   2.203 -0.1087 -0.1311 -0.0021
24437W        W43971  17.835   9.254   2.002 -0.1578 -0.2834 -0.0184
24438W        W43972   6.154  16.615  16.333 -0.0897 -0.0287 -0.0966
24439W        W43973  15.851  12.129   1.321  0.1128  0.2111  0.0527
24440W        W43974   3.572   3.931  14.002  0.1737 -0.1064 -0.0880
24441W        W43975  15.243  16.622   1.539 -0.1933  0.2138 -0.0822
24442W        W43976  14.967  17.676  12.111 -0.0891 -0.0711  0.2943
24443W        W43977  12.412  17.016   3.404 -0.1366  0.1470 -0.1788
24444W        W43978   8.803   3.777   1.311 -0.0718  0.1334  0.2795
24445W        W43979  14.172  13.432  14.833  0.3196 -0.2183  0.0890
24446W        W43980   6.004  12.795   4.545 -0.0012  0.1115 -0.1938
24447W        W43981   8.694  11.414  16.028 -0.0029  0.2495  0.1897
24448W        W43982   2.200  14.516   3.672 -0.2628  0.1266 -0.1099
24449W        W43983   9.759   5.278   1.719 -0.0255 -0.0007 -0.4375
24450W        W43984  12.671   6.781   1.090 -0.1075  0.1606  0.0858
24451W        W43985   1.938  12.075   2.350  0.2932  0.0235 -0.0915
24452W        W43986  15.641   3.714   1.097  0.0949  0.0020 -0.1984
24453W        W43987  14.785   5.722  14.880 -0.0728 -0.2042  0.2151
24454W        W43988   6.252   8.443   3.418 -0.2913 -0.0509 -0.1535
24455W        W43989  17.816  14.411   5.086 -0.1816  0.0881  0.2769
24456W        W43990  11.487  14.343  12.953  0.0405 -0.1900  0.0468
24457W        W43991   6.036  17.139  14.030  0.1418  0.1741  0.0211
24458W        W43992   8.969  16.769  14.941  0.0311  0.1385 -0.1296
24459W        W43993   5.064  10.940  13.139 -0.1079  0.2187 -0.0918
24460W        W43994   5.473   2.912  12.154 -0.0882  0.3348 -0.0514
24461W        W43995  11.307  17.592  14.108 -0.1083  0.1618 -0.1397
24462W        W43996   6.831   6.659  16.474  0.1122  0.0536  0.1384
24463W        W43997  10.105  17.183   4.648 -0.0863  0.2086 -0.0360
24464W        W43998  12.869  16.457  16.750 -0.2142 -0.1740  0.1848
24465W        W43999   0.778   3.182   4.390 -0.0436  0.4618  0.0243
24466W        W44000   9.072  17.225  16.578  0.5331 -0.0094 -0.4217
24467W        W44001   2.660   1.917   1.688 -0.0874  0.0796 -0.2624
24468W        W44002  12.379  14.546   4.497 -0.1744 -0.0553  0.0547
24469W        W44003  15.370   4.259  12.482  0.0471  0.3871  0.0957
24470W        W44004   7.835  12.154   2.909 -0.2299 -0.0038 -0.1864
24471W        W44005  11.017  13.171   0.273  0.1013  0.0885  0.0034
24472W        W44006  10.218  15.347   0.068  0.0040 -0.0423 -0.2741
24473W        W44007   5.431   8.540  14.228 -0.1310 -0.2424  0.3447
24474W        W44008   5.259  12.925  14.270  0.0861  0.0891  0.0568
24475W        W44009  10.698  16.996   0.690  0.0510  0.3525 -0.0392
24476W        W44010   1.659   8.812   1.483  0.1342  0.0691  0.0253
24477W        W44011  16.861   8.571   0.230  0.0471 -0.1929 -0.0031
24478W        W44012  12.418  17.050  14.265  0.3238 -0.0297 -0.1160
24479W        W44013  15.628   2.418  12.117  0.2098  0.0076 -0.1999
24480W        W44014  17.151  14.740   0.114 -0.1017  0.2278 -0.1566
24481W        W44015   0.083   4.051   3.106  0.0409  0.4094 -0.0247
24482W        W44016   7.280   0.455   3.261 -0.0843  0.2220 -0.0854
24483W        W44017  15.349   7.873   1.129  0.1642 -0.2970 -0.1167
24484W        W44018   9.949   1.963   0.578  0.3137  0.1760 -0.0551
24485W        W44019  14.177  14.217   3.100  0.1387  0.1002 -0.1402
24486W        W44020  11.407  16.416   4.245  0.0163  0.0174 -0.0309
24487W        W44021   3.964  15.293  12.689 -0.1915 -0.0438 -0.0425
24488W        W44022  10.321   3.687  15.782  0.1075  0.0564 -0.3440
24489W        W44023   2.376  12.860   3.247 -0.1694  0.0652 -0.0378
24490W        W44024  13.640  10.184  13.030  0.2547 -0.1428 -0.1633
24491W        W44025   5.874   4.783   5.524  0.1843 -0.0803 -0.0426
24492W        W44026   9.200   5.178  14.732 -0.0288  0.0022 -0.2917
24493W        W44027   4.421  16.112   2.675  0.0340  0.2708  0.0989
24494W        W44028   5.531  13.686   5.542  0.0615  0.1477  0.1406
24495W        W44029  12.222  10.867   2.038 -0.0410  0.1372  0.1980
24496W        W44030   9.651   6.119   2.218 -0.0709 -0.0006  0.1087
24497W        W44031   4.283   0.006   3.773  0.0480  0.5369 -0.1313
24498W        W44032   2.945   5.572  15.276 -0.1643  0.1147  0.1564
24499W        W44033   8.832   5.577  14.699  0.0571 -0.1176  0.1353
24500W        W44034   0.981   2.440  12.829 -0.0514 -0.0878 -0.1524
24501W        W44035  12.283   8.062   2.452 -0.1946 -0.1544 -0.0632
24502W        W44036   7.959   8.490  15.021  0.1304 -0.2151 -0.2483
24503W        W44037  14.271   9.726   1.208  0.0345  0.3176  0.1763
24504W        W44038   6.453   4.275  13.301 -0.0006 -0.1969  0.0981
24505W        W44039   6.375   3.034  13.987  0.0060 -0.0701  0.0338
24506W        W44040  10.867   4.830   1.201  0.2430 -0.0349  0.1558
24507W        W44041   1.668   5.652  13.029  0.2050 -0.2071  0.1224
24508W        W44042   3.231  13.015  12.741 -0.1261  0.0026  0.1218
24509W        W44043  16.348   5.531  16.435 -0.2788 -0.2060 -0.0711
24510W        W44044  11.257  12.194  12.012 -0.1806 -0.0092 -0.2481
24511W        W44045  15.892   8.579  12.540  0.1128  0.0372  0.2324
24512W        W44046   4.763   3.633   6.501 -0.0058  0.0017  0.1105
24513W        W44047  16.853   0.358  12.585  0.1076 -0.1826 -0.0248
24514W        W44048  14.436  10.734  15.152  0.0415  0.1245  0.2180
24515W        W44049   8.102   2.459   4.203  0.1559  0.0346 -0.0706
24516W        W44050  13.711   3.821   1.013  0.1080 -0.0942 -0.0011
24517W        W44051   6.198  13.443   3.391  0.0247  0.3111 -0.1257
24518W        W44052  15.001  10.102   0.726 -0.0061 -0.1014 -0.0716
24519W        W44053  14.108   4.868   5.411  0.1176 -0.0439 -0.0440
24520W        W44054  15.720  13.379  13.169  0.1417  0.3180  0.0810
24521W        W44055   3.016   9.230  15.306 -0.1390  0.1009 -0.0102
24522W        W44056   5.308   4.216  14.161  0.1561 -0.1425  0.0773
24523W        W44057   6.915  13.694   3.531 -0.2419 -0.2927  0.3257
24524W        W44058   8.897   7.287   3.315  0.2255  0.0566  0.3827
24525W        W44059   7.717   5.243  16.567 -0.0142 -0.2173 -0.3169
24526W        W44060   1.600   3.834   2.253 -0.1808  0.1121  0.1006
24527W        W44061   2.504  11.417   0.992  0.1295  0.0396  0.3069
24528W        W44062  10.113   3.863   1.011  0.1572  0.0776 -0.0801
24529W        W44063  10.248   7.019  16.007 -0.1332 -0.1960  0.2586
24530W        W44064   4.914   3.314  15.159  0.0383  0.1552 -0.0625
24531W        W44065   4.312   9.432  12.577  0.1495  0.2323 -0.0434
24532W        W44066  11.695   7.120  13.978  0.0810 -0.1536 -0.2657
24533W        W44067   8.099  12.300   4.321  0.0031 -0.1883 -0.0005
24534W        W44068  15.463  10.112  16.263  0.2954  0.1087 -0.0764
24535W        W44069   7.799  16.321   3.648 -0.0107  0.2920  0.0605
24536W        W44070   6.590   9.437   0.123  0.1380  0.3947 -0.1521
24537W        W44071  11.469   0.597  11.991 -0.0716 -0.2319  0.2055
24538W        W44072   4.104   3.727   2.926 -0.2046  0.1854 -0.0829
24539W        W44073  11.552  15.568  15.833  0.4062  0.3756  0.3227
24540W        W44074   4.483  16.444  15.826 -0.1963  0.1291 -0.1128
24541W        W44075   1.423  12.432  15.031  0.0590  0.0162  0.0152
24542W        W44076  16.179   7.601  14.122 -0.0224  0.4283  0.0307
24543W        W44077  11.680  17.110  15.924  0.1185 -0.2451 -0.2507
24544W        W44078   1.826   3.609  16.147  0.0996  0.1247  0.0511
24545W        W44079   3.224   3.990   2.967  0.1196  0.0253  0.2769
24546W        W44080  15.745   4.863  14.393 -0.0977  0.0759  0.3042
24547W        W44081   3.779  11.233   3.206  0.0319 -0.2316 -0.2106
24548W        W44082   6.114  12.576   3.657  0.2679  0.2186 -0.0831
24549W        W44083   0.294   2.134  14.933 -0.0627 -0.2529 -0.0570
24550W        W44084  10.546  13.282   0.642  0.0745  0.3451  0.2017
24551W        W44085  12.633  13.416   3.112  0.0741  0.3189  0.1389
24552W        W44086  13.994   7.389   0.218 -0.0199  0.0666  0.1697
24553W        W44087  10.675  11.843  15.075  0.1605  0.0429 -0.2360
24554W        W44088  11.145  13.035   2.228 -0.0459 -0.1864 -0.0071
24555W        W44089   7.378  16.785   4.089 -0.2591  0.3639 -0.1262
24556W        W44090   5.528   2.957   6.205 -0.0499 -0.1436 -0.0019
24557W        W44091   1.923   4.691  13.435  0.1390 -0.2485  0.1730
24558W        W44092   7.614   1.847  15.915 -0.0515  0.2607 -0.4171
24559W        W44093   1.021  10.887  15.422 -0.1138  0.3339 -0.0161
24560W        W44094  15.966   7.782  15.220 -0.0219  0.1149  0.1398
24561W        W44095  12.506  14.143  15.274  0.0686 -0.0469  0.0076
24562W        W44096  11.524  10.188   4.540 -0.0936 -0.1474 -0.1214
24563W        W44097  11.803  10.382  11.714 -0.2420  0.0494  0.3149
24564W        W44098  10.501  13.035  12.807  0.0808  0.0634  0.2333
24565W        W44099   3.292  17.869  15.453 -0.2930 -0.0268  0.2873
24566W        W44100  10.723  11.217   4.195  0.1168 -0.1219  0.1527
24567W        W44101  11.174  15.698  16.164  0.1413 -0.2422  0.1244
24568W        W44102   0.950   5.822   3.309 -0.0370  0.0511 -0.3292
24569W        W44103   0.297  15.851   0.934 -0.0969  0.0584 -0.1787
24570W        W44104  12.872   2.914  15.460  0.0603  0.1129 -0.0234
24571W        W44105   7.917  17.112  14.614 -0.1046  0.1557 -0.2731
24572W        W44106  12.124   5.908  12.026 -0.2489 -0.0822 -0.2415
24573W        W44107   5.013  13.762  12.282  0.0419  0.1612  0.1307
24574W        W44108   1.871  17.753  13.783  0.1853 -0.2245 -0.3295
24575W        W44109  15.708   9.137  15.951  0.1659 -0.0306 -0.0630
24576W        W44110  13.652   4.476  15.115 -0.0687  0.2784 -0.1340
24577W        W44111   9.637  10.284  16.363  0.0607 -0.2594 -0.1507
24578W        W44112   9.562  15.097  15.026  0.3116  0.2073  0.0283
24579W        W44113   8.199   3.702  14.195  0.0110 -0.1277 -0.1175
24580W        W44114   4.631  14.405   0.376  0.1445  0.0417  0.0800
24581W        W44115  16.212   3.594   2.944 -0.2049  0.0303  0.1356
24582W        W44116  14.473   4.185   5.834 -0.0694  0.0596  0.1266
24583W        W44117  13.086   3.133   1.920 -0.1754  0.0886 -0.0964
24584W        W44118   9.305  15.500   0.617 -0.1565  0.1139  0.3313
24585W        W44119   2.721  11.152   0.641 -0.0227 -0.2101  0.2256
24586W        W44120   6.484  13.509  13.236 -0.0517  0.2930 -0.1679
24587W        W44121  16.515  17.842   1.256 -0.0138 -0.0518 -0.1838
24588W        W44122   3.747  11.042   1.601 -0.2139 -0.1357  0.0859
24589W        W44123   5.218   7.197  15.038 -0.2647  0.2975  0.0021
24590W        W44124   6.622  15.548  15.488 -0.0788 -0.3746  0.0217
24591W        W44125  17.526   4.920   2.169  0.0188  0.0811  0.1223
24592W        W44126   9.442  15.521  16.517 -0.1980  0.2733 -0.0795
24593W        W44127   6.111  13.065   2.069 -0.1885 -0.1875  0.3473
24594W        W44128   0.174   3.977   4.191 -0.1111  0.3474  0.2067
24595W        W44129   0.084   4.854   3.662 -0.1672  0.0337  0.2229
24596W        W44130   0.778   8.241  13.244  0.0060  0.0097 -0.0098
24597W        W44131   5.405   8.679   3.715  0.0508 -0.2833  0.1855
24598W        W44132   0.460   5.473  12.417 -0.2534 -0.0426 -0.1378
24599W        W44133   0.368   1.093   3.329  0.0327 -0.0210  0.0512
24600W        W44134   4.846  12.317   1.072 -0.1190  0.3157 -0.1242
24601W        W44135   4.957   7.989  16.324  0.0890 -0.2474 -0.0658
24602W        W44136  11.957   8.313  15.533 -0.1253  0.0720 -0.1388
24603W        W44137  11.493   0.078  15.222  0.2206  0.0264  0.2877
24604W        W44138   1.412   9.047  16.408  0.2818  0.0007  0.1182
24605W        W44139  13.883  10.982   4.254 -0.0329  0.0004  0.0592
24606W        W44140  15.300  15.663  15.466 -0.3003 -0.0338  0.1209
24607W        W44141   1.712   3.400   1.534  0.1039  0.0495 -0.1265
24608W        W44142   5.334  16.424   1.703 -0.0340  0.1644  0.1501
24609W        W44143   8.661  14.920   1.750  0.1536  0.0307  0.0143
24610W        W44144   6.094   0.021   4.906 -0.0852 -0.1179  0.1507
24611W        W44145  17.251   4.646  13.798 -0.0414 -0.1597  0.2031
24612W        W44146  11.128   9.245   1.128  0.3919 -0.3152  0.0932
24613W        W44147   2.556   6.862  16.100 -0.3492 -0.2193 -0.0775
24614W        W44148   9.260   6.137  16.329  0.0885  0.0207  0.0429
24615W        W44149   4.255  12.330   3.911 -0.1800 -0.0536 -0.0869
24616W        W44150  15.659  12.447   4.530 -0.0416 -0.1300  0.4793
24617W        W44151   5.734   2.978   2.968 -0.3481 -0.0629  0.2281
24618W        W44152   9.801  14.610  14.384  0.2023 -0.1864  0.2481
24619W        W44153   9.958  17.138  14.995  0.2372 -0.2276  0.4598
24620W        W44154  14.769  12.185  15.209 -0.0342  0.2499  0.5346
24621W        W44155  10.068  10.287  13.665 -0.0385  0.2005  0.1454
24622W        W44156   5.455   9.025  15.657  0.0760 -0.0914  0.2236
24623W        W44157  12.148  14.618   0.410  0.2010 -0.0347  0.2668
24624W        W44158   0.114  17.566   2.046  0.0024  0.0360  0.1691
24625W        W44159   2.644   3.730   5.374 -0.2879 -0.0431 -0.0571
24626W        W44160   2.304   8.856  12.691 -0.0142 -0.0935  0.0465
24627W        W44161  10.061   7.083  16.569  0.3526 -0.1353 -0.1362
24628W        W44162   9.972   1.873   3.301  0.0302  0.0775  0.1428
24629W        W44163  11.476  16.174   3.813 -0.0169  0.0550  0.3709
24630W        W44164   3.387  12.542  15.507 -0.1962  0.1074  0.1616
24631W        W44165   7.785  17.301   4.093  0.1078 -0.0971 -0.2766
24632W        W44166  17.659  11.652  13.484  0.1301  0.3581  0.0778
24633W        W44167   5.332  12.157  14.542 -0.0820  0.3979  0.3523
24634W        W44168  17.187  17.459   1.808 -0.3014 -0.0180 -0.1102
24635W        W44169   9.991  13.554   0.347  0.0424  0.2636 -0.1040
24636W        W44170   0.664   2.934   4.932  0.0169 -0.2496  0.1118
24637W        W44171   3.372  16.637  15.919 -0.0512  0.1949  0.1506
24638W        W44172  13.794   0.511   3.120  0.0306  0.1848 -0.1522
24639W        W44173   3.433   8.569   4.292  0.0113 -0.4164 -0.0139
24640W        W44174  11.717   8.221   1.478  0.1753  0.5145 -0.3484
24641W        W44175   2.459  11.095  15.975 -0.0627  0.1481 -0.1466
24642W        W44176  13.048  11.977  13.931  0.0029  0.3926 -0.0319
24643W        W44177  10.236   1.121  13.908  0.1116 -0.3077 -0.1575
24644W        W44178   1.722  16.788   3.813  0.0562 -0.3355  0.1403
24645W        W44179  17.294  12.923  14.117 -0.4409  0.2775 -0.0459
24646W        W44180   9.024   6.966   1.488 -0.0751 -0.0176  0.1378
24647W        W44181  13.698   5.585  14.702  0.1591  0.0069 -0.0612
24648W        W44182  12.652  12.708   4.324 -0.2621  0.1005 -0.1148
24649W        W44183   3.166   0.319   3.824  0.0880  0.1213  0.1590
24650W        W44184   2.614   3.642   4.009 -0.1372 -0.0068 -0.0147
24651W        W44185   7.479   4.192   3.102  0.1797  0.1041  0.0753
24652W        W44186  17.338  13.011  15.483  0.1248 -0.0041 -0.0132
24653W        W44187  16.194  17.047   5.270  0.0724  0.2277  0.1273
24654W        W44188  13.142   2.587   0.492  0.1078  0.0017  0.0588
24655W        W44189  13.817   7.804   0.977 -0.0291 -0.1174  0.0146
24656W        W44190  15.462   0.257  13.344 -0.2948  0.2634 -0.0233
24657W        W44191   1.590   6.451  14.710 -0.2020  0.1103 -0.1118
24658W        W44192  17.266   3.229  13.450 -0.1305  0.0378 -0.2963
24659W        W44193   6.146  13.608   4.963 -0.2717  0.1882  0.3056
24660W        W44194   2.258   4.900  16.213  0.0369 -0.1334 -0.0122
24661W        W44195   6.236   9.527  16.554  0.1066 -0.3096  0.1283
24662W        W44196   0.840   6.135  16.254 -0.0354  0.1511  0.1446
24663W        W44197   1.410   5.802   2.092  0.2613 -0.1050 -0.1180
24664W        W44198  11.810   0.661   1.460  0.0073  0.4374 -0.5109
24665W        W44199  13.583   3.577   3.966  0.0345 -0.2640 -0.0771
24666W        W44200  10.392  15.777  14.901 -0.0996 -0.0319  0.0690
24667W        W44201   8.206  11.624  14.113  0.0295  0.0497 -0.0716
24668W        W44202   9.884   5.670   0.524 -0.2682  0.3033 -0.2020
24669W        W44203   2.573  13.049  14.644 -0.3336  0.1555  0.0691
24670W        W44204   5.800  10.555   5.089 -0.2731  0.2973 -0.1079
24671W        W44205  11.638  11.380   0.143  0.1172  0.0043  0.1697
24672W        W44206   8.919  11.894   4.209 -0.1417 -0.0186  0.2548
24673W        W44207  10.193   7.675   5.406  0.0267  0.2098  0.0898
24674W        W44208   7.554  17.851  16.186 -0.0896 -0.0448 -0.1723
24675W        W44209  10.629   4.686  14.021 -0.1582  0.0886  0.0261
24676W        W44210   9.093  13.120  14.212 -0.2536 -0.2112  0.2454
24677W        W44211  11.250   5.064  15.857 -0.0028  0.0578 -0.0697
24678W        W44212  16.500  14.472  11.240  0.0381 -0.1024  0.0460
24679W        W44213   2.296   6.911   1.167  0.0074 -0.0051 -0.1368
24680W        W44214  15.264   4.806  14.139  0.1453  0.1792  0.0887
24681W        W44215   5.865  11.265  14.208  0.0565 -0.0153  0.0976
24682W        W44216  14.102  13.101   1.538 -0.0467  0.3104 -0.1844
24683W        W44217  13.762  10.806  14.098 -0.0027  0.0035  0.4837
24684W        W44218  15.971   0.130  13.240  0.1489 -0.0915 -0.0237
24685W        W44219   5.196  16.085   3.172  0.2731 -0.0680 -0.0289
24686W        W44220   2.661  16.757  12.402  0.0531 -0.1156 -0.0040
24687W        W44221   4.667  12.486  12.133 -0.2029 -0.2676  0.1728
24688W        W44222  15.044   1.039  16.633 -0.2609  0.3882  0.2124
24689W        W44223   0.303   2.920   0.198 -0.2556 -0.0344 -0.2330
24690W        W44224   4.332   6.476   3.077 -0.2039 -0.1215  0.2456
24691W        W44225   1.460   3.310  13.231  0.0160 -0.3955  0.0278
24692W        W44226  16.654  17.359   2.050  0.1199 -0.1929 -0.0758
24693W        W44227   8.217   6.326  16.377  0.0284 -0.4137 -0.0839
24694W        W44228   7.408   9.891   0.459  0.1931 -0.1138  0.3130
24695W        W44229   6.593  17.033   1.887 -0.0054  0.1466  0.1295
24696W        W44230   5.201  10.413   0.413 -0.0371  0.2289  0.0428
24697W        W44231  12.849   7.136  12.043 -0.1784 -0.1938  0.1825
24698W        W44232   1.335   2.805   2.943  0.0619 -0.0172 -0.4303
24699W        W44233  11.126   5.688   3.782 -0.0297 -0.1938 -0.2193
24700W        W44234  14.300   9.565   4.417  0.0392  0.0045  0.2251
24701W        W44235   4.773   6.005  14.051 -0.0712 -0.2549  0.0387
24702W        W44236   4.462  15.616   3.474 -0.0538  0.1790 -0.1621
24703W        W44237   4.535   4.695   5.268  0.1083  0.2142 -0.0570
24704W        W44238   2.631   8.903  15.149  0.1780 -0.0796  0.2752
24705W        W44239  14.375   6.516  15.934 -0.0421 -0.0019  0.2671
24706W        W44240   1.952   3.628  12.077  0.1665  0.0132 -0.0012
24707W        W44241   6.465   5.032   2.404 -0.1543  0.2294 -0.0142
24708W        W44242  15.020  15.499   1.384 -0.0512  0.2509  0.2969
24709W        W44243  10.108  11.601  16.517 -0.1130  0.0800 -0.0902
24710W        W44244   1.857  15.303  15.071 -0.1845  0.1708 -0.0411
24711W        W44245   4.436   9.559   4.460 -0.3545 -0.1430  0.0823
24712W        W44246  10.196   7.492   0.397  0.4959 -0.4648 -0.1849
24713W        W44247   6.952  17.527   3.006  0.2854 -0.1392 -0.0165
24714W        W44248   9.402  10.618  16.640 -0.4292 -0.0364 -0.0444
24715W        W44249   6.417  13.757  14.244 -0.2121 -0.0731 -0.2057
24716W        W44250  13.087  17.882   1.870  0.0802  0.2685 -0.1836
24717W        W44251  16.737  17.451  14.165  0.1128 -0.3967  0.0862
24718W        W44252   2.384   0.100   0.778 -0.1774 -0.2305 -0.1420
24719W        W44253  10.716   4.547   0.785 -0.1841  0.0767  0.1276
24720W        W44254   6.034   6.879   0.869 -0.0567  0.3457 -0.0983
24721W        W44255   5.236  15.187   1.317 -0.0780 -0.1649 -0.0019
24722W        W44256  11.029   7.327  14.814  0.2036 -0.1437  0.0747
24723W        W44257  10.549   8.262  16.390 -0.0439  0.1593  0.1744
24724W        W44258  15.810   8.267   2.334  0.2415 -0.0154  0.0147
24725W        W44259   4.375  10.400   1.112  0.0838  0.0360 -0.2578
24726W        W44260   7.164  11.940  15.198 -0.1656  0.0212  0.2316
24727W        W44261   5.442   7.681  13.137  0.0437  0.2956 -0.1089
24728W        W44262   8.054   0.246   0.520 -0.0659 -0.1602  0.0489
24729W        W44263  13.115   3.383  12.835 -0.1990 -0.1497 -0.5098
24730W        W44264  13.878   5.634  12.756  0.0965  0.0338 -0.0602
24731W        W44265  10.483  13.790   2.925  0.0578  0.2228 -0.1695
24732W        W44266   1.348   3.429   0.882 -0.0135  0.0333  0.2125
24733W        W44267   2.927  12.721   0.646 -0.0521  0.0083  0.1497
24734W        W44268   5.038  17.246  12.368 -0.2123  0.1187  0.4178
24735W        W44269   5.172  11.543  16.712 -0.2809  0.0890  0.0108
24736W        W44270  11.002  14.337   2.597 -0.0691 -0.1474 -0.0009
24737W        W44271   5.041   4.664  13.335 -0.1503  0.1119 -0.1744
24738W        W44272   0.059   2.852   2.291 -0.0533 -0.1588 -0.1046
24739W        W44273   5.485   3.792  12.242  0.1249  0.1516  0.1466
24740W        W44274  14.702  17.073   0.167  0.2025 -0.0860  0.0260
24741W        W44275  13.195   8.422   4.455  0.2887  0.2616  0.3122
24742W        W44276  16.088  11.072  16.524 -0.0497  0.0392 -0.1769
24743W        W44277  15.284  10.484   0.930  0.1874 -0.1624 -0.0417
24744W        W44278  10.017   9.165  16.393 -0.6337 -0.2103  0.0059
24745W        W44279   5.095  12.777  16.468  0.1447  0.2098  0.0589
24746W        W44280   1.205   0.566  15.276 -0.0900  0.0892 -0.1504
24747W        W44281   1.731   6.795  16.514  0.1795  0.0180  0.2184
24748W        W44282   0.912  14.861  14.946 -0.2075  0.0506 -0.4122
24749W        W44283  10.778  12.017  14.173 -0.5919  0.0829  0.1424
24750W        W44284  16.770   9.901  16.148 -0.1583 -0.1833 -0.0562
24751W        W44285   9.244   3.717   2.233  0.0415  0.1008 -0.0251
24752W        W44286   2.534   9.165   0.402 -0.2199 -0.3838  0.2296
24753W        W44287  17.768  13.928  13.329 -0.1946  0.0646 -0.0634
24754W        W44288   0.568   0.363  16.547 -0.2510 -0.1835  0.0235
24755W        W44289   0.171  13.978   2.350 -0.2214 -0.0710  0.2470
24756W        W44290   2.267   0.079  15.563 -0.1342  0.0806  0.0927
24757W        W44291   9.368   1.633  13.043  0.2515 -0.1473  0.2605
24758W        W44292  13.067  10.563  13.733  0.1250 -0.4582  0.0634
24759W        W44293   8.021  15.612   4.527  0.0830 -0.0286  0.1085
24760W        W44294  10.248   5.518   1.542 -0.0525 -0.1417  0.1036
24761W        W44295  12.710   6.479  12.486  0.0747  0.0087 -0.3930
24762W        W44296  11.273  13.817  14.195  0.0795  0.1083 -0.1386
24763W        W44297   3.541  13.690   2.120 -0.1973  0.0423  0.2600
24764W        W44298  14.132  10.707   3.567  0.0621 -0.0936  0.2457
24765W        W44299  14.303  11.602  14.530  0.1961  0.0799 -0.1968
24766W        W44300   5.885  16.155  14.511 -0.1298 -0.0823  0.0587
24767W        W44301  11.476   9.164   4.448  0.0682  0.2387 -0.2011
24768W        W44302  12.713   5.545   1.982 -0.0098  0.0323 -0.1755
24769W        W44303  12.874   4.221  16.284 -0.1552  0.1935 -0.3362
24770W        W44304   7.472  11.835   0.773 -0.0536 -0.0530  0.2501
24771W        W44305  13.977  10.379  13.816  0.1343  0.0351 -0.0044
24772W        W44306   7.644  13.904   1.386 -0.0462  0.1932  0.1512
24773W        W44307  11.968  15.382  15.541 -0.2761  0.0012 -0.0586
24774W        W44308   4.076  13.566   3.853 -0.0706  0.1022  0.0144
24775W        W44309   0.206  10.070  14.684 -0.0596  0.1943 -0.2875
24776W        W44310   0.291   1.276   1.870 -0.0474 -0.2822 -0.1777
24777W        W44311   7.406  14.298   2.278  0.2950 -0.0198  0.2057
24778W        W44312   9.531   4.763  14.547 -0.1200 -0.1678  0.0887
24779W        W44313   4.677  13.109   4.694 -0.0539  0.2576  0.1646
24780W        W44314  14.767   6.527   0.264  0.3015 -0.2986  0.0029
24781W        W44315   7.696   8.913   2.308 -0.2223 -0.2702 -0.0026
24782W        W44316  15.048  11.462  14.043  0.0253  0.0847  0.2165
24783W        W44317  12.277   4.470   3.804 -0.3037  0.1054  0.1076
24784W        W44318   3.631   9.398  13.141 -0.0135  0.5453  0.2296
24785W        W44319  12.292  15.138   1.339  0.1074  0.2356 -0.1797
24786W        W44320  15.243  17.477  12.531 -0.2394  0.1002  0.3160
24787W        W44321  16.962  11.489  14.584 -0.0054 -0.2048 -0.2973
24788W        W44322   8.590  14.156  16.277  0.0929  0.2580  0.0323
24789W        W44323   0.064  16.654   0.619 -0.0742 -0.0380  0.1859
24790W        W44324   2.129   5.931  16.319  0.3605 -0.2047 -0.0889
24791W        W44325   1.781   4.566  12.905  0.3032 -0.3251  0.0494
24792W        W44326  16.029  15.350  13.726 -0.1408 -0.2721  0.0983
24793W        W44327  15.291   3.455  12.827  0.1683 -0.1918 -0.1979
24794W        W44328   3.722   4.690  12.904 -0.3795  0.0065  0.0263
24795W        W44329   5.112   9.537   2.212  0.0796 -0.0829  0.0287
24796W        W44330  10.487   6.839   2.173 -0.1100 -0.1454 -0.0114
24797W        W44331   6.458  12.843  16.189 -0.0677 -0.2187 -0.0917
24798W        W44332  13.755  16.870   2.318 -0.1418 -0.1804  0.1286
24799W        W44333  17.350  16.923  16.415 -0.0429  0.2387 -0.0092
24800W        W44334   0.620  12.973  13.580 -0.3480 -0.0231  0.0606
24801W        W44335   1.273   1.596   0.922 -0.0022 -0.0481  0.2588
24802W        W44336   7.811   8.900  12.056  0.0775  0.2204 -0.3077
24803W        W44337   4.215  16.241  14.782  0.2019 -0.3041  0.0910
24804W        W44338   0.267  14.844   1.903  0.3096 -0.4149 -0.1827
24805W        W44339  11.869   5.072   0.867  0.0362  0.1269  0.2153
24806W        W44340   3.174   2.549   4.986  0.3696 -0.2118 -0.0702
24807W        W44341   9.199   2.939  12.170 -0.1900  0.2487  0.2348
24808W        W44342   5.499  16.949  12.578 -0.0993 -0.0765  0.0264
24809W        W44343  12.561  11.782   1.869  0.1561 -0.2733  0.3160
24810W        W44344  14.482   0.750   1.039 -0.0031 -0.1676  0.0652
24811W        W44345  17.612  13.376   4.717 -0.1492 -0.1526  0.2007
24812W        W44346   4.108  11.028   2.571 -0.1384  0.2081  0.0051
24813W        W44347   4.740   9.879   4.273  0.0191 -0.1473  0.0353
24814W        W44348  12.851   8.511   0.379  0.1190  0.1803 -0.1958
24815W        W44349   3.397   4.093   0.513 -0.1822  0.3528 -0.1471
24816W        W44350  13.537   7.429   1.534  0.0506 -0.3061 -0.1854
24817W        W44351   7.767   9.000   3.061  0.0560 -0.0821  0.0442
24818W        W44352   7.148   8.268  12.202 -0.1679 -0.2689 -0.1670
24819W        W44353  13.183  17.615  12.724  0.0134 -0.1405  0.0092
24820W        W44354   5.754   4.701   0.411  0.3085 -0.1761  0.1475
24821W        W44355   9.635  10.509  10.961  0.0059  0.1918 -0.2780
24822W        W44356  13.080  10.021   3.824  0.1474 -0.1096 -0.0811
24823W        W44357   4.023   5.600   3.211  0.1568  0.1493 -0.1477
24824W        W44358   1.097  13.756   3.132 -0.0900  0.1181 -0.0747
24825W        W44359   2.126   8.751   1.075  0.0896  0.0525  0.1494
24826W        W44360   9.878   0.933   3.167  0.0208 -0.0463  0.1361
24827W        W44361  15.883   5.714  13.406 -0.2557  0.3199  0.2630
24828W        W44362  12.000   4.607   2.559  0.0106 -0.1876 -0.0839
24829W        W44363   8.755  16.710   0.737 -0.1162 -0.0911 -0.0074
24830W        W44364   0.515  17.730  10.837 -0.1789  0.1766 -0.0359
24831W        W44365   3.117   4.734   2.616 -0.1233  0.1182 -0.1320
24832W        W44366  16.820  14.593  14.347  0.2440 -0.1734 -0.1278
24833W        W44367   4.522  11.696  15.268 -0.4411  0.2839  0.1757
24834W        W44368  14.356  10.898  15.685  0.1935  0.2035 -0.1131
24835W        W44369  10.534   6.101   0.949 -0.1712 -0.4404  0.3190
24836W        W44370  13.416   6.194  13.966  0.0987 -0.3985  0.0537
24837W        W44371  13.431   0.624  14.944  0.1751  0.0421  0.0434
24838W        W44372  17.590   3.855  11.361 -0.0390 -0.0043 -0.0299
24839W        W44373   0.390   9.603   2.614 -0.0225 -0.1573  0.1237
24840W        W44374  15.089  14.159  13.841  0.0101 -0.0756 -0.0658
24841W        W44375   9.904   5.214  12.274 -0.0451 -0.0033 -0.0754
24842W        W44376   4.898   3.034   2.590 -0.1681 -0.2074 -0.3326
24843W        W44377  17.876  15.131  11.148 -0.2992 -0.3333  0.0254
24844W        W44378  14.819   7.861   2.946 -0.0547  0.0382 -0.2016
24845W        W44379  15.448   6.002   4.700 -0.1959 -0.0146  0.1439
24846W        W44380  15.035   6.528   3.079 -0.2293 -0.1629 -0.3265
24847W        W44381   7.923   5.881   1.673 -0.2410  0.0231 -0.1562
24848W        W44382   8.524   6.357   5.665  0.0988 -0.0661 -0.1871
24849W        W44383   7.895  13.245  16.393 -0.0675  0.1742 -0.1586
24850W        W44384   6.468  10.823  15.149 -0.0875 -0.0737  0.1994
24851W        W44385  12.942  14.729  14.621  0.0189  0.2017  0.2140
24852W        W44386   3.696   9.067   0.866 -0.1334 -0.0364 -0.0246
24853W        W44387  11.227  10.623   4.202  0.1162 -0.4265  0.1475
24854W        W44388   2.739  10.400  16.283  0.0639 -0.3856  0.2266
24855W        W44389   5.422   8.436  15.021 -0.1966 -0.2653  0.2229
24856W        W44390  17.107   5.729   1.878  0.0185  0.3116  0.1262
24857W        W44391   0.795  16.003   0.256  0.1679  0.0173  0.2946
24858W        W44392   0.132  12.571  12.354 -0.2445 -0.0898 -0.2012
24859W        W44393   4.056  16.467   2.569  0.0061  0.3948  0.0376
24860W        W44394  16.197   1.481   0.675 -0.0729  0.1014 -0.0273
24861W        W44395   0.704   2.801  13.580  0.1839  0.2429  0.1588
24862W        W44396   1.693  13.368   3.522 -0.1155 -0.1497  0.0461
24863W        W44397  15.555  10.767  13.570 -0.3603 -0.1536 -0.3674
24864W        W44398  14.896   1.792  16.244 -0.0440 -0.1573  0.2715
24865W        W44399  14.204   3.079  14.418 -0.0092  0.0072 -0.0548
24866W        W44400  16.293  12.505  16.149  0.2074  0.1321 -0.1742
24867W        W44401   1.523  17.276  14.716  0.2189  0.1684  0.0450
24868W        W44402  15.454  12.856  13.116 -0.1919  0.0457 -0.0691
24869W        W44403  16.599   0.147   2.327 -0.0266  0.0543  0.1713
24870W        W44404  14.886   1.532   4.614  0.3523  0.1553  0.0943
24871W        W44405   3.274   3.642  12.052 -0.0969 -0.0824 -0.2134
24872W        W44406   4.449   7.017  12.159  0.2164 -0.1273  0.0428
24873W        W44407   8.655  11.310   2.877 -0.0357  0.1579  0.0346
24874W        W44408   9.532  10.105  12.873 -0.0290  0.0208  0.0109
24875W        W44409   8.383   1.521   0.871  0.0711 -0.3595 -0.0402
24876W        W44410   7.176  12.236   1.049 -0.0321 -0.0104 -0.4295
24877W        W44411  12.494   9.674  14.562  0.3744  0.0991 -0.1514
24878W        W44412  11.664   8.550   3.370 -0.0070 -0.0001  0.0270
24879W        W44413  12.423  14.276   3.626 -0.2037 -0.1037 -0.1102
24880W        W44414  13.452   2.264  13.242  0.0111 -0.0886  0.3665
24881W        W44415  10.774  15.436  14.301  0.1228  0.3156  0.0051
24882W        W44416   0.156  11.483  15.354  0.0834 -0.1618 -0.2418
24883W        W44417  14.720   7.801   0.713 -0.0469  0.0654 -0.4059
24884W        W44418  12.963  10.520  14.816  0.0882  0.2689 -0.0539
24885W        W44419   5.496   8.141  16.316  0.0463  0.0645 -0.3220
24886W        W44420  13.754  13.782  14.001  0.0063  0.2021  0.3020
24887W        W44421  14.570   3.304  14.647  0.0145  0.1287 -0.0858
24888W        W44422   4.887  12.173  12.770 -0.0559 -0.0234 -0.0971
24889W        W44423  12.342  12.458   2.952  0.1713 -0.1098  0.2628
24890W        W44424   9.939  12.412  16.632  0.3051  0.0149 -0.0995
24891W        W44425  17.053   4.724  14.232 -0.0557  0.1629  0.0804
24892W        W44426  10.489  17.257   2.760  0.0184 -0.0339  0.5188
24893W        W44427   8.889   9.474   1.284  0.1790 -0.3000  0.1734
24894W        W44428  17.526   3.455  13.076 -0.0717  0.1760 -0.2001
24895W        W44429   0.622   3.664  12.144  0.1431  0.1305  0.2722
24896W        W44430   1.228   9.642  13.312 -0.1687 -0.0471  0.1145
24897W        W44431   4.440  17.320   3.630 -0.0440 -0.5384  0.2110
24898W        W44432   2.143  10.466  16.079 -0.1393  0.0623  0.1752
24899W        W44433   5.372  16.220  16.424 -0.3561 -0.1180  0.1098
24900W        W44434   9.709   5.266   0.298 -0.1067 -0.2870  0.0892
24901W        W44435  11.997   7.169   4.247 -0.2673  0.2203  0.0433
24902W        W44436   0.187   9.966   0.390 -0.0121 -0.3701 -0.0444
24903W        W44437   1.232  10.061   0.422 -0.1043  0.1234 -0.1535
24904W        W44438  11.266   2.274   4.283 -0.3984  0.2476 -0.1733
24905W        W44439   2.139   6.940  16.323 -0.2853  0.0524 -0.0258
24906W        W44440  12.180  12.444   5.037  0.0454  0.0789 -0.0865
24907W        W44441  17.004   7.835   2.884 -0.0904  0.1617 -0.2545
24908W        W44442   0.208   3.386   2.015 -0.0468 -0.1337  0.1133
24909W        W44443   7.758   2.915   0.194 -0.0062 -0.0231 -0.1391
24910W        W44444  14.434   6.193  12.398  0.0331  0.0496  0.0201
24911W        W44445   9.646   0.258   1.808  0.1227 -0.0742 -0.3873
24912W        W44446   3.484   1.471   1.213  0.1635  0.2338  0.3539
24913W        W44447  15.243   3.346   2.593 -0.3775 -0.2426 -0.0791
24914W        W44448  17.369   9.145  15.778  0.1269 -0.1973 -0.0590
24915W        W44449   2.908  16.193  13.147  0.1910  0.0890  0.1490
24916W        W44450  13.124   3.839   3.007  0.0143 -0.0813  0.0818
24917W        W44451   4.495   7.927   2.326  0.3267 -0.0259  0.0198
24918W        W44452  12.095   5.139  16.038  0.2742 -0.1818 -0.0310
24919W        W44453  11.341  11.878  12.382 -0.1563 -0.0122 -0.3028
24920W        W44454   1.435   2.502  13.000 -0.0951  0.4147 -0.1641
24921W        W44455   1.666  13.013  11.452  0.0870 -0.1502  0.0123
24922W        W44456  12.234   6.998  16.203  0.0722  0.2173 -0.0852
24923W        W44457  17.621   2.223  12.359  0.1308  0.1684 -0.0193
24924W        W44458  13.449  14.468   1.517 -0.0196 -0.0528  0.1216
24925W        W44459   1.142   8.145   2.572 -0.3232 -0.2443  0.0614
24926W        W44460   8.136   4.267  10.130 -0.3307 -0.2228 -0.1145
24927W        W44461  12.893  11.892  12.293 -0.3839 -0.1505  0.1401
24928W        W44462  11.715  13.983   3.549 -0.0309  0.0586 -0.0069
24929W        W44463  15.503  11.192  13.910  0.2461  0.0702 -0.1214
24930W        W44464  14.537   6.155  14.677  0.1170 -0.2130  0.1971
24931W        W44465  14.456   2.299  13.760 -0.0652  0.1422  0.1091
24932W        W44466   4.516  14.770   2.574  0.0483 -0.0615 -0.0922
24933W        W44467  10.829   5.793   0.716  0.2017  0.1480  0.0505
24934W        W44468   0.861   8.054  15.483 -0.0596  0.2774 -0.1555
24935W        W44469  16.234  14.759   2.654 -0.3837 -0.0395 -0.3133
24936W        W44470  13.295   6.653   4.322  0.0068 -0.1192  0.0619
24937W        W44471   5.859   8.232   3.714 -0.2222  0.1296  0.1411
24938W        W44472   5.144   8.397  12.091 -0.0746 -0.0997 -0.1192
24939W        W44473   1.926   1.750   4.111  0.1380 -0.0022 -0.3222
24940W        W44474   0.016  16.128   0.591  0.0160  0.0374 -0.1471
24941W        W44475  12.733   4.951   1.456 -0.1272 -0.0406 -0.0053
24942W        W44476   0.913   9.274   0.822 -0.0598  0.0465 -0.0664
24943W        W44477   3.231  11.809   3.591  0.0951 -0.0438  0.3763
24944W        W44478   3.647   2.969   5.936  0.1481  0.3433  0.0318
24945W        W44479   4.982   8.918   0.062  0.1732  0.0818 -0.0310
24946W        W44480   3.387   2.216  15.719 -0.2133  0.4055  0.0703
24947W        W44481   7.652   8.192  14.062  0.1233  0.1706 -0.1256
24948W        W44482  12.317   4.173   4.173  0.0409 -0.4657 -0.1786
24949W        W44483   3.119   8.621  16.583 -0.1377 -0.1394 -0.1024
24950W        W44484  15.097   1.414   5.854 -0.2674  0.3111  0.0195
24951W        W44485   3.074  13.466   2.478  0.1551  0.3010 -0.0388
24952W        W44486  17.829  12.138  12.237  0.0168  0.1610 -0.1519
24953W        W44487   9.602   7.455   0.438 -0.1054  0.1730  0.1203
24954W        W44488   0.845   1.946  16.204  0.1315 -0.0813 -0.1095
24955W        W44489   2.981   9.730   0.882 -0.4254  0.2094 -0.0534
24956W        W44490   4.472   7.285   3.105 -0.2390 -0.1347  0.1481
24957W        W44491  14.001   1.421   3.794  0.1325  0.1723  0.2748
24958W        W44492  11.450   0.978   4.878 -0.1450  0.0357 -0.0784
24959W        W44493   9.288  10.727  12.256 -0.1827 -0.3316  0.0933
24960W        W44494   3.750  11.499   2.744 -0.0019  0.4417  0.1165
24961W        W44495   4.313  16.864  13.375  0.0246  0.1707  0.0738
24962W        W44496  10.196  11.651  14.305 -0.2583 -0.0545  0.3064
24963W        W44497   5.123   6.185   2.580 -0.3679 -0.2334 -0.3056
24964W        W44498   5.530   4.824   3.667 -0.2231 -0.2137  0.2683
24965W        W44499   9.004   5.448  15.668  0.2506 -0.0276 -0.2266
24966W        W44500  16.677   6.155   3.005  0.0468  0.0482  0.2923
24967W        W44501   7.543  12.724   4.995 -0.0409  0.1573  0.0041
24968W        W44502   5.241   3.159   3.955  0.1495  0.2852 -0.0705
24969W        W44503   3.334   8.941   0.128  0.1886 -0.2435  0.0984
24970W        W44504   4.191  13.221  12.119 -0.0456 -0.0712 -0.0138
24971W        W44505   6.404  12.161  15.368  0.0456  0.1171  0.1611
24972W        W44506   4.495  17.508   5.427  0.1454  0.4140  0.4648
24973W        W44507  17.886  16.550   4.667  0.2193 -0.2915 -0.3414
24974W        W44508  17.112   7.325   2.855 -0.0075  0.3836  0.2813
24975W        W44509  16.605  12.888   1.257  0.1305 -0.2232  0.0185
24976W        W44510   9.478   1.093   2.882  0.0497  0.0862 -0.0365
24977W        W44511  11.556   5.559  11.762  0.0973  0.2613  0.3403
24978W        W44512  10.290  16.982  16.269  0.0410 -0.1008  0.0454
24979W        W44513  13.877   1.793   4.686 -0.3215 -0.1892 -0.1717
24980W        W44514  16.350   9.805  13.153  0.1465 -0.0565  0.0837
24981W        W44515   7.802  17.630  15.839  0.3728  0.2681  0.3730
24982W        W44516   7.854  11.985  13.990 -0.1108 -0.1835  0.0506
24983W        W44517  16.434  13.125   0.817  0.0690  0.3522 -0.0428
24984W        W44518   7.855  14.464   2.495 -0.3505  0.0469 -0.0414
24985W        W44519   8.389  14.362   5.158  0.1326 -0.0719  0.0850
24986W        W44520   1.637   1.376   2.242  0.0216  0.2436  0.2879
24987W        W44521  15.472  10.105   3.542 -0.2038 -0.1515  0.0486
24988W        W44522   9.456  15.502  14.750  0.4908  0.1826 -0.2575
24989W        W44523  11.642   7.793   0.107  0.1410  0.1098 -0.4352
24990W        W44524   1.006   2.188   4.319  0.2069 -0.3615 -0.0207
24991W        W44525  10.466   7.795   3.781 -0.0529 -0.2049 -0.1616
24992W        W44526   9.606  13.344   4.448  0.1763  0.1510  0.0445
24993W        W44527   4.046   4.209   2.842 -0.0953 -0.1546  0.1159
24994W        W44528   7.186   5.459   2.678 -0.1871 -0.2137 -0.0206
24995W        W44529  11.891   8.453   4.766  0.0201  0.1283  0.2538
24996W        W44530  14.660   3.950  11.801  0.1933  0.0659 -0.1610
24997W        W44531   6.467   3.875   3.804 -0.1727 -0.1227 -0.2348
24998W        W44532  12.298  17.401   2.020  0.0081 -0.0521 -0.3719
24999W        W44533  16.905  16.163  13.204  0.1356 -0.3569  0.1029
25000W        W44534  15.001   1.025   4.933  0.0384 -0.0977  0.3022
25001W        W44535  12.929  12.910  13.597 -0.0825 -0.2324  0.0669
25002W        W44536  12.931   5.122   0.046  0.0632  0.3085  0.0301
25003W        W44537   2.206  16.115  15.351 -0.0680  0.0765 -0.1843
25004W        W44538  11.664   8.506  16.334  0.1541  0.1540  0.0310
25005W        W44539  10.299   6.888   0.850  0.2854  0.0304 -0.1252
25006W        W44540   7.293   2.349  15.674  0.0577  0.2860  0.1392
25007W        W44541   9.943   9.901  15.014 -0.2192 -0.0428  0.0223
25008W        W44542  12.432   1.496  11.710 -0.0282 -0.0735 -0.0877
25009W        W44543   5.629   5.520  13.873 -0.1334 -0.0356 -0.1417
25010W        W44544   4.139  13.406  13.789  0.0630  0.0129 -0.1864
25011W        W44545   2.728   3.335   4.984  0.1708 -0.3763 -0.1164
25012W        W44546   6.328  17.036   5.068 -0.1107  0.2101 -0.1807
25013W        W44547   2.177   7.465   4.019  0.0389  0.1594 -0.1088
25014W        W44548  13.336   8.499  13.762  0.0219  0.0825  0.1216
25015W        W44549   9.695   6.126   4.814  0.1741 -0.0944 -0.1389
25016W        W44550  16.815   2.188  12.768 -0.0446  0.0628 -0.1368
25017W        W44551   3.681  11.721  14.062 -0.1469 -0.0135 -0.0464
25018W        W44552  11.035   7.157   2.874  0.0469  0.1936  0.0281
25019W        W44553   2.145  13.926  14.990  0.3496  0.1637  0.0541
25020W        W44554  16.297  11.402   2.050  0.0044  0.0303  0.1016
25021W        W44555  13.285  13.080   2.123 -0.0095 -0.0736 -0.1641
25022W        W44556   0.696  15.802   1.274  0.2429  0.1254  0.2925
25023W        W44557  14.603  16.203   1.867  0.0484 -0.1663 -0.0974
25024W        W44558  12.603   2.033   3.914 -0.1771  0.3249 -0.1583
25025W        W44559  17.659  14.437  12.322 -0.4388  0.0281 -0.2877
25026W        W44560  15.212   1.551  15.253 -0.1055 -0.0603 -0.1433
25027W        W44561   7.811   6.907   2.593  0.0404 -0.2880 -0.0337
25028W        W44562  13.694  12.947  13.248  0.0058  0.2009 -0.2945
25029W        W44563  12.152   3.149  15.977 -0.0651  0.0670  0.1342
25030W        W44564   5.823  10.104   3.341 -0.4114  0.1172  0.1739
25031W        W44565   3.909   7.747   3.229 -0.0263 -0.1615 -0.0503
25032W        W44566  16.959   5.781  12.183  0.1524  0.0604 -0.0466
25033W        W44567  13.716  15.002   3.651  0.0509  0.2952  0.1373
25034W        W44568   8.489   6.536   0.475 -0.0765  0.2290 -0.0593
25035W        W44569   3.638  10.862  12.900 -0.1895 -0.0030 -0.2481
25036W        W44570  14.293   4.399  16.351  0.1553  0.2096  0.0326
25037W        W44571   3.733   3.357   1.255 -0.0893 -0.0830  0.0386
25038W        W44572   4.836   0.485  15.603 -0.2383  0.1202  0.1081
25039W        W44573   8.389   3.902  13.683  0.1340 -0.2368 -0.3700
25040W        W44574   0.546   9.874  15.026  0.0461 -0.0904  0.4268
25041W        W44575   2.223  17.312  16.233 -0.4520  0.1888  0.0783
25042W        W44576  13.847   6.083  11.647 -0.2415 -0.0669 -0.3196
25043W        W44577   9.491  13.777  14.127 -0.1120 -0.1323  0.0138
25044W        W44578   7.701  15.275   3.198  0.0263  0.0767  0.0775
25045W        W44579   8.751   7.338   0.552 -0.1623 -0.1102 -0.0991
25046W        W44580   0.379   6.357  11.810 -0.0617 -0.1465 -0.0332
25047W        W44581  17.728  11.960  16.168  0.3251  0.2476  0.2469
25048W        W44582   6.448   7.595   4.676  0.0294 -0.2788 -0.1866
25049W        W44583  14.432  16.047  13.663 -0.0865 -0.1078 -0.2705
25050W        W44584  10.995  15.430   4.918  0.4435 -0.1159  0.0550
25051W        W44585  17.846  11.851   0.085  0.3784  0.1291 -0.0367
25052W        W44586  15.110  11.424   4.297  0.0784  0.1425  0.1030
25053W        W44587   7.813   6.344   0.480  0.3915  0.2311 -0.0987
25054W        W44588   9.253  13.206   1.440  0.1487  0.0716 -0.2806
25055W        W44589   1.296   9.165  13.036 -0.0504  0.1634  0.2170
25056W        W44590   9.044  16.455   0.215 -0.0361  0.3392  0.1400
25057W        W44591   8.979  12.142   2.945  0.2623 -0.1290 -0.1562
25058W        W44592  12.185  11.309  16.310 -0.0987 -0.0515  0.3667
25059W        W44593  17.176  16.680   1.116 -0.1803  0.3611 -0.0802
25060W        W44594  15.062   3.893  15.431  0.2665 -0.0624  0.0796
25061W        W44595   2.940  15.971   2.874  0.2257 -0.0662  0.0722
25062W        W44596  12.768   9.859  14.090 -0.0605 -0.5607 -0.2342
25063W        W44597   0.470   4.022   1.294 -0.1310  0.2226 -0.1368
25064W        W44598   2.339   1.146   0.928  0.1969 -0.1151 -0.3363
25065W        W44599   0.985  11.788   4.224  0.0337 -0.2734  0.2780
25066W        W44600  11.689   1.407   4.696  0.0073  0.1980  0.0014
25067W        W44601   2.897  10.674   1.747 -0.0495 -0.0550 -0.2289
25068W        W44602   0.006   6.843  14.485  0.0600  0.0047  0.2281
25069W        W44603   7.715   2.955  12.969 -0.3683  0.0778  0.1161
25070W        W44604  11.268   4.361  11.708 -0.3039 -0.5025  0.0661
25071W        W44605   2.449   4.854  14.212 -0.0454 -0.2782  0.0251
25072W        W44606  11.757   8.625  12.121 -0.2919  0.0746 -0.0149
25073W        W44607   8.998   2.615  12.575 -0.1403 -0.1409 -0.1741
25074W        W44608   1.617  12.216  15.424 -0.0752  0.0631  0.5503
25075W        W44609   9.258  16.663  16.589  0.0941 -0.2536  0.1686
25076W        W44610  14.623   7.130  12.771  0.0403 -0.0940  0.2579
25077W        W44611   9.298   4.788  16.102 -0.0042  0.0484  0.4944
25078W        W44612   8.544  12.394   2.754  0.1004  0.1688 -0.2817
25079W        W44613   1.098  13.717   4.056  0.2982  0.3556 -0.0167
25080W        W44614  15.115  16.187   4.829  0.2686  0.0806 -0.1233
25081W        W44615   5.199   1.586  16.579 -0.0720  0.0797 -0.4411
25082W        W44616   7.227   4.824   1.790  0.1522 -0.3115  0.1760
25083W        W44617  12.144  14.685  14.690 -0.1835 -0.0889 -0.1283
25084W        W44618  11.743  12.981   1.049 -0.0556 -0.1492  0.1063
25085W        W44619  12.026   8.116  16.745 -0.0315  0.0828  0.1175
25086W        W44620   1.995  13.401   0.387  0.4043 -0.0576  0.0660
25087W        W44621   6.988  12.433  13.778 -0.1330 -0.0510 -0.0342
25088W        W44622  12.362  12.072   4.290  0.1545  0.4793 -0.1556
25089W        W44623   8.890  13.675   2.548 -0.3961 -0.1116 -0.1662
25090W        W44624   6.435  13.769  15.817  0.2483  0.0361  0.2333
25091W        W44625   1.659  10.078   3.337 -0.0844 -0.0988 -0.1255
25092W        W44626   3.006   8.338  14.545  0.1228 -0.0166 -0.0807
25093W        W44627  12.404   3.364  16.474 -0.0600  0.1829 -0.0738
25094W        W44628   3.293   3.638   3.369  0.0201 -0.1037  0.1822
25095W        W44629   0.141   9.131   1.455  0.1981  0.1339 -0.3944
25096W        W44630  17.759   2.082  15.512  0.1547 -0.0034 -0.0697
25097W        W44631   1.106  14.605   2.614 -0.0221 -0.0977  0.0930
25098W        W44632   2.757   6.954   3.460  0.1162 -0.0094 -0.1302
25099W        W44633  15.263  15.855  13.035  0.1398 -0.0506  0.0460
25100W        W44634   6.734  16.383   2.395  0.3683 -0.2881  0.2053
25101W        W44635  10.077   7.251   5.002 -0.1756 -0.1072  0.2798
25102W        W44636   1.668   2.608  15.712 -0.3269 -0.2982 -0.0038
25103W        W44637   0.425   6.113   1.202  0.0900 -0.0509 -0.0269
25104W        W44638  14.398   1.672   0.697 -0.2884  0.1261  0.2221
25105W        W44639   1.368   2.663  12.527 -0.0909  0.0572 -0.0236
25106W        W44640  17.351  11.990   4.182  0.2604 -0.0992 -0.0951
25107W        W44641  15.097   1.908   0.475  0.0813  0.4926 -0.0910
25108W        W44642  15.270   9.514   0.137  0.1451 -0.2204 -0.0034
25109W        W44643  15.137  13.041   3.062 -0.0687  0.0758  0.2437
25110W        W44644   0.598   1.548   4.534  0.2202 -0.2370 -0.0079
25111W        W44645  17.435   3.342  12.562 -0.1797 -0.1423  0.0443
25112W        W44646  16.565  17.653   2.606 -0.3625  0.0991  0.0656
25113W        W44647  12.214  12.908   1.190  0.0701  0.2844 -0.0349
25114W        W44648   5.752  12.210   2.918  0.1107  0.2476  0.1011
25115W        W44649  16.355   0.350   2.745  0.3795  0.0658  0.3972
25116W        W44650  16.641   7.883  15.814  0.1686  0.2011  0.1042
25117W        W44651   9.775  10.508   2.525 -0.2380 -0.0827  0.2389
25118W        W44652   8.850   9.221   4.500 -0.2622 -0.1118 -0.1473
25119W        W44653   9.897   1.309  14.308  0.3306 -0.0221 -0.1732
25120W        W44654  17.770   5.896   3.946  0.1546  0.2169 -0.0015
25121W        W44655  13.382  12.590   0.613 -0.0612 -0.1929 -0.0464
25122W        W44656  16.908   5.321  14.776  0.0731 -0.0340  0.0113
25123W        W44657   7.651  13.326   0.091 -0.4173 -0.1082  0.0375
25124W        W44658   9.774  11.647   0.157  0.0575 -0.0037  0.0658
25125W        W44659  13.502   6.414  14.437  0.1707 -0.1798 -0.1102
25126W        W44660   0.188   7.936  12.106  0.0818  0.1684  0.1000
25127W        W44661  17.797  12.463  14.034 -0.0715  0.0180  0.0999
25128W        W44662  16.309  13.802   4.358  0.3586 -0.3375  0.1451
25129W        W44663   5.281  15.690   4.980  0.0551 -0.1018  0.0603
25130W        W44664  12.987   7.704  16.752 -0.1722 -0.3048  0.1949
25131W        W44665  10.020  16.703   4.596 -0.2385  0.4591  0.2262
25132W        W44666  14.726  17.683  15.641 -0.3274  0.1737 -0.1531
25133W        W44667  11.304   5.384   4.527  0.1671 -0.3598  0.1389
25134W        W44668   0.013  10.394   0.150 -0.0447 -0.0441 -0.1381
25135W        W44669  10.500  17.627  13.725 -0.0856 -0.1583  0.1685
25136W        W44670   3.584   7.228   0.756  0.1060  0.0529  0.0833
25137W        W44671  12.303  17.151   1.533 -0.2682 -0.4188 -0.2159
25138W        W44672   3.562   9.892  12.927 -0.4100 -0.1037 -0.1109
25139W        W44673   9.018   9.383  16.301  0.0199 -0.1804 -0.2295
25140W        W44674   9.979  15.634  12.606 -0.0710 -0.3929  0.4156
25141W        W44675   9.129  15.412   0.150  0.0367  0.1435 -0.2243
25142W        W44676   4.612  11.683  15.993 -0.1995  0.2211 -0.3613
25143W        W44677  11.033  10.544  15.845 -0.0184 -0.2219 -0.2686
25144W        W44678   4.974  15.894  13.121  0.2209  0.1687 -0.0747
25145W        W44679  14.699   7.140  14.632 -0.0978 -0.0366  0.2358
25146W        W44680  17.608   6.126   1.226 -0.1763  0.1640 -0.0056
25147W        W44681   1.294  13.415  12.853  0.3662  0.2509 -0.1786
25148W        W44682   3.890  13.149  14.740  0.2079  0.1525 -0.0307
25149W        W44683  10.124  12.953  15.861 -0.0249  0.2168 -0.3442
25150W        W44684  10.557  16.762   1.778 -0.0248  0.2510 -0.2032
25151W        W44685   3.298   9.365   3.729  0.1232  0.1271 -0.1943
25152W        W44686  11.149  14.950   3.606 -0.0901  0.4351 -0.0191
25153W        W44687   3.140   3.663  15.562 -0.0500  0.0576  0.0659
25154W        W44688  15.989  13.497  16.560  0.1477 -0.1362 -0.1092
25155W        W44689   6.223   8.739  13.353  0.0380  0.3901 -0.0791
25156W        W44690   9.344  11.572  14.616 -0.1567 -0.4288  0.3654
25157W        W44691  14.419  16.811  16.601 -0.3137 -0.0292  0.0026
25158W        W44692  16.676  13.981  16.120 -0.1916 -0.1520 -0.0845
25159W        W44693  12.711  10.776  15.114 -0.2143  0.0062  0.0392
25160W        W44694   7.213  12.089  12.633  0.2019 -0.1233  0.0429
25161W        W44695   5.994   8.455   2.293  0.3721 -0.0736 -0.1818
25162W        W44696   0.859   4.410   1.587  0.3187 -0.2361 -0.0625
25163W        W44697  11.183  10.750   1.725  0.3088  0.3296  0.1973
25164W        W44698   8.947   1.045  15.256 -0.3007 -0.0205 -0.2438
25165W        W44699  14.370  17.428  13.912  0.3526 -0.0829 -0.2839
25166W        W44700   0.813   3.541   4.820  0.1982  0.0989  0.1179
25167W        W44701  14.037   9.294   1.415  0.0544 -0.2203  0.1296
25168W        W44702  13.978   5.085   1.577  0.0300 -0.0898 -0.1066
25169W        W44703  14.470   0.158  12.592  0.3665  0.2655 -0.0983
25170W        W44704  12.209   8.657   4.344  0.0919  0.0849  0.0510
25171W        W44705  14.126  11.510  13.016  0.0198 -0.0253  0.2205
25172W        W44706  11.411   2.183   1.259  0.0992 -0.1133  0.1876
25173W        W44707   5.397   3.366  16.184 -0.0426  0.0290 -0.1584
25174W        W44708  10.372   8.962   2.928  0.0739  0.0447 -0.2049
25175W        W44709   5.084   8.523  16.434 -0.1230  0.2283 -0.0198
25176W        W44710   3.741  16.268   1.966  0.1716 -0.0026 -0.1994
25177W        W44711  11.581   2.387   1.917  0.0546  0.1077 -0.0281
25178W        W44712   6.989   7.824  11.818 -0.0722  0.0881  0.0807
25179W        W44713  13.659   4.476   3.300 -0.0410 -0.4684 -0.1375
25180W        W44714  11.261   9.227  15.143  0.1250  0.2333 -0.2336
25181W        W44715   0.084  16.219   4.278 -0.0823 -0.2752 -0.4854
25182W        W44716   2.683  14.080   0.625  0.0386 -0.3470  0.0082
25183W        W44717  10.937   9.351   3.668 -0.0048 -0.0441  0.0627
25184W        W44718  11.015  10.081  15.916 -0.2386  0.1798 -0.1035
25185W        W44719   6.319  11.061   4.675 -0.1264 -0.1046  0.2369
25186W        W44720  16.687   0.768  16.093  0.4413  0.0926 -0.0734
25187W        W44721   7.426  17.519   2.935  0.2472  0.2619  0.1053
25188W        W44722  13.481  11.862   2.811  0.1135  0.0084  0.1639
25189W        W44723   0.609   1.808  16.621 -0.0982 -0.2252  0.1195
25190W        W44724   2.449  10.363   2.923  0.2006 -0.2140  0.2108
25191W        W44725   1.598   5.302  12.243 -0.0246 -0.0981  0.0440
25192W        W44726   6.034  17.423   1.343  0.0364  0.1749 -0.2312
25193W        W44727   9.128   9.656  15.858  0.1413  0.3508  0.1555
25194W        W44728   4.903  14.149   2.078  0.0219 -0.0057  0.0576
25195W        W44729   7.181   2.562   5.264 -0.1326 -0.0410  0.0692
25196W        W44730   8.225  15.084   0.526  0.0594  0.1474 -0.1142
25197W        W44731   8.423  15.137  13.273 -0.2233 -0.0260 -0.1752
25198W        W44732   1.458   0.277   3.032 -0.0006 -0.1705 -0.3135
25199W        W44733   8.256   5.489  13.828 -0.0196  0.0010 -0.3096
25200W        W44734   4.999  13.646  16.520  0.0338 -0.0516  0.0928
25201W        W44735  11.981  10.386  16.061 -0.0819  0.1754 -0.1754
25202W        W44736  12.775   8.862  14.080  0.1450 -0.0295  0.0861
25203W        W44737  16.675   0.578  13.008  0.1738  0.1087 -0.1034
25204W        W44738   2.371  14.693   2.491  0.4315 -0.2885 -0.2018
25205W        W44739   1.986   1.802  15.996  0.1694 -0.1433 -0.0650
25206W        W44740   6.174   3.281   2.089  0.0334  0.1990  0.2649
25207W        W44741  16.803  13.397  14.726 -0.5018  0.0401  0.2755
25208W        W44742   7.763   2.125  14.410  0.2293 -0.2496 -0.0171
25209W        W44743  11.013   9.370   1.584 -0.1732  0.1247 -0.1631
25210W        W44744   7.545  14.843  14.157  0.0101 -0.3384 -0.0403
25211W        W44745   7.652  16.629  14.677  0.0428 -0.0109  0.3453
25212W        W44746   1.001   1.580  13.083 -0.3018  0.0396  0.1195
25213W        W44747  14.073   5.885   2.721  0.1325 -0.2328 -0.1196
25214W        W44748  17.428   1.043   2.172 -0.0689 -0.1347  0.2659
25215W        W44749   3.419  16.028   4.231 -0.0459  0.2616 -0.1715
25216W        W44750   5.381   8.897   0.853  0.0008  0.2454 -0.0177
25217W        W44751  16.161  13.920  16.255 -0.1818  0.0005 -0.1396
25218W        W44752   6.482   2.477   1.738 -0.2620 -0.2047 -0.1286
25219W        W44753  17.662  15.553  13.134  0.0760  0.0599 -0.1541
25220W        W44754  14.729   3.827   2.619 -0.1530  0.1743  0.0019
25221W        W44755  16.331   7.283   4.200 -0.1163 -0.0618 -0.2074
25222W        W44756  14.787   3.519   1.371 -0.2304 -0.0770  0.0335
25223W        W44757   5.751   1.996   1.480  0.0581  0.0565 -0.2322
25224W        W44758  14.840  16.440  15.775 -0.1549  0.2614  0.1438
25225W        W44759   3.801   4.321  13.803 -0.0377  0.2119  0.0189
25226W        W44760   7.809   7.223  12.011 -0.0846  0.1878 -0.0269
25227W        W44761   5.409  11.459   4.440 -0.0120 -0.2256 -0.0693
25228W        W44762   2.411   0.601  12.837 -0.1222  0.3271  0.5256
25229W        W44763   2.137  15.810   2.562 -0.0402  0.2753  0.2808
25230W        W44764   5.777  14.475  15.776 -0.0983 -0.0288 -0.3841
25231W        W44765   6.060   0.113   0.891 -0.0111 -0.2217  0.1574
25232W        W44766   2.141  16.311   2.386 -0.1069  0.2371  0.0735
25233W        W44767   9.875  17.306  16.371  0.0128 -0.0016 -0.0945
25234W        W44768   2.113   2.805   3.688 -0.0977  0.1814  0.0415
25235W        W44769   9.482   8.941  15.981  0.0150 -0.0977  0.1427
25236W        W44770   8.428   9.613   3.793  0.1271 -0.2041  0.1834
25237W        W44771  15.851   9.884   0.446  0.1266 -0.1276 -0.2471
25238W        W44772  11.731   8.132  16.021 -0.2728  0.1387 -0.1374
25239W        W44773   2.079   5.430   5.148  0.1321 -0.0186  0.0158
25240W        W44774   7.191   9.964  16.475  0.5058 -0.0405  0.2488
25241W        W44775  11.781  14.523   0.030 -0.1928  0.1401 -0.0838
25242W        W44776   7.145   1.108   0.116 -0.1655 -0.2173  0.2908
25243W        W44777   1.938  13.838   3.364 -0.0384  0.0229  0.1094
25244W        W44778   6.052  14.833  13.202  0.1691  0.1101 -0.1599
25245W        W44779   8.438  14.464  13.629 -0.1591  0.0972 -0.2428
25246W        W44780   9.589  15.913  13.986 -0.1467  0.0805 -0.0307
25247W        W44781   9.364  14.382   2.330 -0.1278 -0.5028  0.4271
25248W        W44782   6.105  12.280   0.704 -0.0502 -0.2651  0.0582
25249W        W44783  10.024   9.180   3.995 -0.3223 -0.2675  0.2725
25250W        W44784   9.614   1.650  11.365 -0.3183  0.0017  0.0265
25251W        W44785  10.081   3.367   0.259 -0.1747 -0.1973  0.1458
25252W        W44786   4.101  16.467   3.712  0.1411  0.1877  0.0029
25253W        W44787   4.909  13.473   4.438  0.1137  0.0433 -0.1064
25254W        W44788   7.792   6.369  12.884 -0.0436 -0.0917 -0.1046
25255W        W44789  15.379   4.253   0.186 -0.0488 -0.3668  0.0690
25256W        W44790   4.364  17.781   4.552  0.1628 -0.0191  0.1101
25257W        W44791   0.967  12.244  12.406 -0.1040 -0.0667  0.0343
25258W        W44792   2.911  17.692   4.447  0.1227  0.0126  0.0826
25259W        W44793   0.822   0.970   4.869  0.2800 -0.0116 -0.1587
25260W        W44794   8.917  12.299  16.241  0.1250  0.2506 -0.0690
25261W        W44795  14.188   5.161  14.050 -0.1803  0.0696  0.3819
25262W        W44796   1.773   5.826  15.117 -0.1733  0.1812 -0.2886
25263W        W44797  10.980  14.124   0.307 -0.3021 -0.2196 -0.0574
25264W        W44798   7.402  15.041   1.859  0.3566  0.0101 -0.0678
25265W        W44799  12.316   6.229   2.280  0.0844 -0.1292  0.2228
25266W        W44800  13.954  13.852   3.853  0.0844 -0.0658 -0.0957
25267W        W44801   5.440   7.487   6.006  0.0059 -0.2651 -0.1853
25268W        W44802   0.826  10.644  11.384 -0.1735  0.1803 -0.0799
25269W        W44803   9.633  15.258   0.277  0.0104 -0.0377 -0.2774
25270W        W44804  16.188   0.281   4.415  0.0712 -0.2102 -0.1679
25271W        W44805  16.450  14.142   3.370 -0.1145  0.0780 -0.1835
25272W        W44806  17.116  16.510   4.033  0.0773  0.0253 -0.1400
25273W        W44807   2.946   3.943   0.037  0.0745 -0.1373  0.2076
25274W        W44808   1.483   0.554   0.492  0.2080 -0.0075 -0.2741
25275W        W44809   3.037   1.629   2.450  0.3451 -0.0815 -0.0739
25276W        W44810   2.145  16.861   5.024 -0.4051 -0.2954 -0.0675
25277W        W44811  15.864   7.427   3.707  0.0807 -0.0444  0.0380
25278W        W44812  12.406  16.705  13.141  0.0983  0.0278 -0.0795
25279W        W44813  11.909   7.631   3.887 -0.1915  0.0168 -0.4541
25280W        W44814   5.569  15.588   1.067 -0.1961  0.0213 -0.0269
25281W        W44815  14.354   8.233  16.563  0.1821 -0.2222  0.2495
25282W        W44816   0.618  15.362   3.944  0.4169  0.1762 -0.1382
25283W        W44817   2.712   9.342   0.856 -0.1905  0.0706  0.0704
25284W        W44818   4.034  10.249  14.504  0.1756 -0.0866  0.0496
25285W        W44819  15.004   3.079   0.793  0.2189 -0.2250  0.1504
25286W        W44820   8.671  16.531   3.661 -0.1066 -0.0594 -0.0795
25287W        W44821  13.333  11.613   0.757 -0.1993  0.1626 -0.0381
25288W        W44822   4.988   4.480  14.762 -0.1668  0.0756 -0.0133
25289W        W44823  16.925   7.649   1.172  0.1748 -0.4722  0.4724
25290W        W44824   2.041  10.394   2.596 -0.0930 -0.0086  0.2703
25291W        W44825  15.656   2.974   2.535  0.0367 -0.3100  0.2511
25292W        W44826   6.691  13.811   0.566 -0.1632  0.0795 -0.1087
25293W        W44827  13.872   5.303  12.378 -0.0085  0.1504  0.1811
25294W        W44828   5.306  14.416   4.740  0.0834 -0.3190 -0.2765
25295W        W44829   0.685   1.823  14.439  0.0292  0.1652  0.0557
25296W        W44830   5.727   7.906   0.256  0.0284  0.1170 -0.4867
25297W        W44831   5.798  10.846  14.509  0.1438 -0.0928  0.1696
25298W        W44832   4.999   2.687  13.862 -0.1114  0.1945  0.6386
25299W        W44833  11.704   5.154   4.786  0.2293 -0.0713  0.2285
25300W        W44834  13.903  13.470  14.361  0.1492 -0.1897 -0.0957
25301W        W44835  17.161   8.793   3.063 -0.1530  0.1541  0.3954
25302W        W44836  17.467   1.038  12.187  0.2888 -0.1892  0.0103
25303W        W44837   1.705  17.343  12.934  0.0246 -0.1915  0.3536
25304W        W44838   6.483  17.840   2.788  0.0424  0.0171 -0.3605
25305W        W44839   3.099   1.935   5.158 -0.2561 -0.1981 -0.0013
25306W        W44840  12.607  13.720   3.970  0.2843 -0.0600 -0.0666
25307W        W44841   4.770  10.155   1.413  0.1829  0.3400 -0.2356
25308W        W44842  10.783  12.823   1.896  0.1922 -0.1977  0.0626
25309W        W44843  10.574   4.034  16.250 -0.0679 -0.0353 -0.2429
25310W        W44844  13.597   3.131   4.855 -0.2041 -0.2609 -0.1160
25311W        W44845  13.366  15.206  15.444  0.1081  0.0268  0.0046
25312W        W44846   5.108   7.315  13.017 -0.1141  0.0619 -0.2187
25313W        W44847  12.156   1.072  16.141  0.1559  0.0747  0.0071
25314W        W44848  12.926   4.061   4.805  0.2490  0.0739 -0.2161
25315W        W44849   6.933   9.597   5.211 -0.2216 -0.2031 -0.0746
25316W        W44850  14.885   2.394   4.835  0.2272 -0.1159  0.0626
25317W        W44851  10.368   7.074   1.296  0.1783 -0.2727  0.1844
25318W        W44852  12.520  10.239   2.781 -0.1502  0.1176  0.4892
25319W        W44853  11.210  12.372   2.646 -0.4593  0.2529 -0.1283
25320W        W44854   6.062   4.130   1.311 -0.1663  0.0419  0.1278
25321W        W44855   4.800  14.031   5.165  0.0404 -0.2456 -0.0177
25322W        W44856   1.645   2.638   0.196 -0.0141  0.2606 -0.3586
25323W        W44857   3.546   2.385  14.135  0.5030  0.0374  0.1133
25324W        W44858   9.834  13.831   3.553  0.0038  0.1885  0.0685
25325W        W44859   3.396   6.181  16.736  0.1022 -0.0832 -0.0335
25326W        W44860  12.942   8.917  12.712 -0.3378  0.0534 -0.1820
25327W        W44861  12.425  16.975   0.552  0.0007 -0.1417 -0.1522
25328W        W44862  14.511  10.066  16.511 -0.0354  0.3051  0.2844
25329W        W44863   2.167   9.817   1.204 -0.2701  0.0196  0.0740
25330W        W44864  11.024   5.772  14.545 -0.4287  0.3509  0.1022
25331W        W44865  14.378   3.393   2.656  0.2930 -0.1603  0.0634
25332W        W44866  16.967  12.297   3.209  0.0445 -0.2144 -0.1060
25333W        W44867  10.408  12.981   5.135 -0.0395 -0.0258 -0.1083
25334W        W44868  15.519  10.582   3.751  0.1289  0.4437 -0.1499
25335W        W44869  17.065  11.016  14.260 -0.1130  0.2747 -0.2234
25336W        W44870  13.486   3.445  16.134 -0.0433 -0.0630  0.3017
25337W        W44871  11.282  11.154   3.549  0.1512 -0.0832 -0.0326
25338W        W44872   9.506  11.828  12.863  0.0002 -0.2141  0.3008
25339W        W44873  16.633  13.069  12.921  0.1433 -0.0096 -0.0452
25340W        W44874   5.259   1.311   3.551  0.0557 -0.0770 -0.0634
25341W        W44875   5.616   8.862   1.602  0.0695  0.0786  0.1794
25342W        W44876   9.809   4.059  13.467 -0.1087  0.2004  0.1790
25343W        W44877   7.678   3.758   4.661  0.1599  0.1394 -0.0103
25344W        W44878   3.240   6.041   3.324 -0.0155 -0.1907  0.2575
25345W        W44879  17.579  17.838  16.285  0.3090 -0.0996  0.0721
25346W        W44880  16.430   9.766   2.940  0.2313  0.3480 -0.0082
25347W        W44881   5.986   6.999   2.106  0.1130 -0.2082 -0.2255
25348W        W44882  16.622  12.023  16.128 -0.1807  0.1447  0.2771
25349W        W44883   2.843   5.101  15.545 -0.2305 -0.1701  0.0159
25350W        W44884  13.368  13.550  14.266  0.0863 -0.2458 -0.0487
25351W        W44885  15.224  15.707  14.397 -0.1809  0.1717 -0.0264
25352W        W44886   8.545   4.850   3.023  0.1490 -0.0091 -0.0248
25353W        W44887   7.150  11.801   2.418  0.0990  0.1142  0.0724
25354W        W44888   9.129  13.337   4.624  0.1789 -0.1046  0.0112
25355W        W44889   5.916  10.791   4.578  0.1487 -0.1561 -0.0708
25356W        W44890   0.815   4.665   2.503  0.0450  0.1960 -0.2016
25357W        W44891  10.289  16.789   0.908 -0.0460 -0.1503  0.1273
25358W        W44892   3.392   6.642  13.659 -0.1443  0.0249 -0.0008
25359W        W44893  10.207  15.245   3.081  0.0280 -0.1715  0.1949
25360W        W44894   7.453  14.290   0.459 -0.1019 -0.1774 -0.0434
25361W        W44895  16.642   0.591  14.318 -0.0703 -0.2092  0.1667
25362W        W44896  11.329   5.945   0.748 -0.2022  0.0105 -0.3650
25363W        W44897   9.702   8.433   3.334 -0.1770 -0.0144 -0.0625
25364W        W44898   1.864  16.863  14.306 -0.2647 -0.3009 -0.0301
25365W        W44899   4.623   0.175   1.597 -0.0014 -0.0927  0.0012
25366W        W44900   0.564   1.451  16.264  0.2409 -0.2131  0.5800
25367W        W44901  16.974   5.125  16.001 -0.3308 -0.0062 -0.3962
25368W        W44902   9.380   8.281   1.537 -0.2976  0.1103 -0.0028
25369W        W44903   0.606  15.700   2.279  0.1062  0.1585 -0.1158
25370W        W44904   9.506   2.698   4.255  0.0211 -0.1377  0.1795
25371W        W44905  14.367   5.360   3.020  0.2021 -0.0505  0.3035
25372W        W44906   5.754   5.958  13.612  0.1437 -0.1956  0.1947
25373W        W44907  15.726  17.431  14.815 -0.1695  0.1588 -0.0128
25374W        W44908   4.138  13.833  15.305  0.1011  0.0251  0.0743
25375W        W44909  15.258   2.296   0.747  0.0885  0.3264  0.0056
25376W        W44910   1.882  11.612   2.549  0.0958 -0.1856  0.0899
25377W        W44911  15.570   1.644  15.618  0.2029  0.0937  0.1591
25378W        W44912   2.034  12.009   4.197 -0.1585  0.1426  0.0299
25379W        W44913   1.776   4.881  16.503 -0.4751 -0.0502 -0.1026
25380W        W44914  15.710   0.772  14.581  0.0659  0.1695  0.2379
25381W        W44915  16.652   6.021   3.505 -0.1776 -0.2351  0.2152
25382W        W44916  14.095   2.988   2.887  0.0682  0.4038  0.1184
25383W        W44917   8.283   5.455  14.730 -0.2446 -0.1685 -0.1074
25384W        W44918   7.016  10.358  13.245  0.3480  0.2516 -0.1910
25385W        W44919  15.012   5.947   5.106 -0.3496 -0.3720  0.0050
25386W        W44920  15.158  12.904  15.683 -0.3514 -0.5128  0.0402
25387W        W44921   2.676   1.551   3.905  0.2554  0.0096  0.3482
25388W        W44922   8.177   8.366  15.586 -0.0237 -0.1993  0.1037
25389W        W44923   0.342   4.397   2.066 -0.2600  0.0768 -0.0777
25390W        W44924   8.872  14.602   1.481 -0.0553  0.1512 -0.2561
25391W        W44925   5.830   8.834   3.509 -0.1424 -0.3476 -0.0100
25392W        W44926  12.646  10.502   1.255  0.0086 -0.3605  0.0099
25393W        W44927  17.506   6.607  11.753  0.0021  0.2659 -0.2843
25394W        W44928  11.590  10.500  14.750 -0.0867  0.0256 -0.2104
25395W        W44929   7.262   2.788  15.357  0.0884 -0.1955  0.0163
25396W        W44930  11.164  14.335  14.184  0.2171 -0.0355 -0.1278
25397W        W44931   2.012   0.877   3.355  0.0049 -0.4705  0.0302
25398W        W44932   5.172  14.693   5.153 -0.1236 -0.1228 -0.0972
25399W        W44933   0.422   2.046   1.895  0.0017  0.1554 -0.0022
25400W        W44934   2.622  13.398   2.268  0.1546 -0.0929 -0.1220
25401W        W44935   4.812  15.221  13.122 -0.1305  0.3625  0.1707
25402W        W44936   2.662   0.848   4.438 -0.0819  0.1025  0.0285
25403W        W44937  17.113   8.374   2.683 -0.1896 -0.2958 -0.1022
25404W        W44938  17.079   8.832  14.610 -0.0166  0.3089  0.0623
25405W        W44939   3.170   3.135  11.860  0.0323  0.0448  0.4330
25406W        W44940  17.089   9.697  13.406 -0.0537  0.1039 -0.0357
25407W        W44941   6.483   5.881   3.492  0.1604  0.0382  0.1071
25408W        W44942  17.637   0.811  16.097  0.0970 -0.0902  0.3221
25409W        W44943  11.492   5.002  12.844  0.0445 -0.1766 -0.0638
25410W        W44944   2.355   6.863   3.142  0.1869  0.1346  0.2728
25411W        W44945   5.941  11.115  12.741  0.0025  0.0709 -0.1119
25412W        W44946   0.345   0.555   3.276 -0.0462  0.0759 -0.0808
25413W        W44947  14.616  17.061  13.559 -0.0624 -0.3915 -0.1173
25414W        W44948   9.684   8.878   3.610  0.0585 -0.1110  0.1564
25415W        W44949   3.285  10.827  14.923 -0.0265 -0.1421  0.2553
25416W        W44950  11.632   7.760  16.325  0.3097 -0.3228 -0.1185
25417W        W44951  17.771  13.606  15.955  0.0586  0.0434  0.1435
25418W        W44952   7.641   8.492   0.270 -0.2247 -0.2456  0.0692
25419W        W44953  12.318  13.916   2.355  0.3444 -0.1858 -0.1729
25420W        W44954   5.218  12.195   3.701  0.2019 -0.1294 -0.1330
25421W        W44955   4.336   2.259  14.580  0.0281  0.1172  0.0259
25422W        W44956   2.515   5.257   0.555  0.0684  0.4275 -0.0064
25423W        W44957   5.597  10.392  13.712 -0.0731 -0.1111 -0.0053
25424W        W44958   1.222   2.225   4.853  0.0924  0.5100 -0.0434
25425W        W44959  17.214   4.497   2.285 -0.0054 -0.3134  0.1869
25426W        W44960   5.648  17.181  13.448 -0.0723 -0.0332  0.1161
25427W        W44961   7.323   2.984   0.054  0.2176 -0.0468 -0.0035
25428W        W44962   0.005   5.756   2.307 -0.3068  0.2953  0.1189
25429W        W44963  13.595  17.040  14.993 -0.1779  0.0551 -0.2700
25430W        W44964  15.734  16.469  13.424  0.2227  0.2285  0.1409
25431W        W44965  11.787  13.324  13.586  0.1084  0.1000  0.1899
25432W        W44966   7.899   7.305   0.602 -0.2779 -0.1056 -0.3531
25433W        W44967   4.153  16.593  14.433  0.2140  0.0689  0.3593
25434W        W44968   3.733  15.835  12.067 -0.1960  0.1350 -0.0623
25435W        W44969   6.970  17.727   5.874  0.0235  0.1220 -0.2135
25436W        W44970   4.171   0.429   0.727 -0.0351  0.0028 -0.0327
25437W        W44971  13.496   1.243   0.768 -0.1189  0.0323  0.0083
25438W        W44972   5.565   1.384   4.005  0.0740  0.0657 -0.2112
25439W        W44973   8.452  13.786  14.224  0.0442  0.1082  0.0515
25440W        W44974   9.436  16.123   0.114 -0.0028 -0.3095  0.0818
25441W        W44975   5.906  10.634   3.438  0.0150  0.2258 -0.2127
25442W        W44976   8.740   0.875  16.040  0.2041  0.1967  0.2463
25443W        W44977  11.220  14.667  12.658 -0.0005  0.0891  0.1418
25444W        W44978   0.277   8.756  15.289  0.1830  0.2118 -0.0138
25445W        W44979   8.699   4.316   4.715  0.0626  0.3617  0.1688
25446W        W44980   1.720   8.804  12.319  0.2227  0.0788 -0.1452
25447W        W44981  17.076   5.575   2.405 -0.0408 -0.1877 -0.1249
25448W        W44982   8.072   0.669  12.165 -0.1114 -0.0480  0.1023
25449W        W44983   7.159   0.192  11.473  0.2087  0.2243  0.4345
25450W        W44984   1.360   4.634   2.843  0.2054  0.0928  0.0603
25451W        W44985   2.377  13.860   2.471  0.2716 -0.2369  0.0303
25452W        W44986   8.719  13.067   1.436  0.3069  0.0668  0.0262
25453W        W44987   4.290  10.402  16.289 -0.0012  0.1959 -0.0664
25454W        W44988  11.366  14.643  14.611  0.1601 -0.2108  0.2398
25455W        W44989   6.833   6.228   0.013 -0.0508  0.1977  0.2699
25456W        W44990  11.344   5.351  14.391  0.1225  0.0332 -0.0234
25457W        W44991   4.418   8.115   5.146 -0.1404 -0.1350 -0.1069
25458W        W44992  17.696   7.748  13.733  0.1032 -0.0858  0.5096
25459W        W44993  10.978  12.380  13.840  0.0527 -0.2037 -0.2428
25460W        W44994  15.488  13.270   2.077  0.1442 -0.2978 -0.1050
25461W        W44995  11.313  17.328  12.125 -0.0080 -0.3841 -0.0045
25462W        W44996   9.383  12.684   2.443 -0.0694  0.2192 -0.3902
25463W        W44997   8.391  13.117   2.506 -0.2510  0.0313  0.0764
25464W        W44998  16.764   4.954  12.899 -0.0706 -0.1451  0.0217
25465W        W44999   3.546   1.677  12.296  0.1952  0.3163 -0.0000
25466W        W45000   8.892   0.161   2.567 -0.1852  0.3250 -0.0025
25467W        W45001  13.740  12.480  13.503  0.0940 -0.2161  0.1475
25468W        W45002  15.049   3.708   5.159 -0.2788 -0.2032 -0.0611
25469W        W45003   8.929   5.701   1.403 -0.1204  0.0679  0.3455
25470W        W45004   0.959  15.289  13.804 -0.2006 -0.1348  0.1751
25471W        W45005   6.808  11.512   4.403 -0.0834  0.0790 -0.0341
25472W        W45006   7.438  12.972   1.468  0.1833 -0.0564 -0.1123
25473W        W45007  14.131   3.550   4.162 -0.2734  0.0004 -0.0786
25474W        W45008   5.147  15.525  12.836 -0.1359 -0.0162 -0.0737
25475W        W45009  16.460   2.896  16.611  0.3153 -0.3588  0.0827
25476W        W45010  14.983   7.030   2.718 -0.0636 -0.5504  0.2512
25477W        W45011  17.687   9.078  13.892  0.1738  0.1434 -0.1171
25478W        W45012   8.016   9.302   1.035 -0.1112  0.2249 -0.1354
25479W        W45013   3.313  17.295  12.627 -0.0985  0.1803 -0.2137
25480W        W45014   8.350  14.680   2.628 -0.0857 -0.1291  0.2193
25481W        W45015   4.392   8.848   4.709  0.1072  0.2482 -0.0220
25482W        W45016   3.550  17.278   2.664  0.0911 -0.1753 -0.0836
25483W        W45017  13.213  15.513  14.983  0.0800  0.0606  0.0978
25484W        W45018   6.709  14.589  14.672 -0.1681 -0.0490 -0.5059
25485W        W45019   4.391   1.728   3.203  0.0485 -0.1613 -0.0056
25486W        W45020   1.418   9.684   4.911 -0.0052  0.0369 -0.2201
25487W        W45021  14.636   7.731   4.425 -0.1126 -0.2437 -0.3295
25488W        W45022  15.677   9.691  13.334 -0.2516 -0.0159 -0.1633
25489W        W45023  10.457   1.345  16.093 -0.1650 -0.1082 -0.1580
25490W        W45024   0.040  16.886   0.114 -0.2467 -0.1477 -0.0484
25491W        W45025  14.415   8.669  15.352 -0.1125 -0.0373  0.0219
25492W        W45026  13.358  12.106  16.377  0.2072  0.3643 -0.0625
25493W        W45027   3.585  15.058   2.829 -0.0339  0.3022 -0.2918
25494W        W45028   0.036   4.441  13.322  0.0309 -0.1290 -0.0487
25495W        W45029  16.429   6.069  16.611  0.2877  0.0986  0.1597
25496W        W45030  13.055   2.852  16.503 -0.4049 -0.5786  0.0218
25497W        W45031   1.090  12.289  14.354 -0.1496 -0.0883 -0.2151
25498W        W45032   8.132  15.421   0.172 -0.0469 -0.0532  0.4793
25499W        W45033   9.288   4.326  14.619 -0.1372  0.0005  0.0899
25500W        W45034   4.158   6.785  16.003 -0.3681  0.1601 -0.1042
25501W        W45035   0.776   5.914  14.992 -0.1977 -0.2891 -0.0363
25502W        W45036  17.279  11.236  13.285 -0.5524  0.1409 -0.2839
25503W        W45037  17.494  14.928   3.180 -0.0764 -0.4639 -0.1627
25504W        W45038   8.491  14.474   0.762  0.3193  0.0724 -0.2910
25505W        W45039  15.091   5.747  13.676 -0.2596  0.1392  0.0532
25506W        W45040  14.095  15.910   0.427 -0.2066  0.0178 -0.2417
25507W        W45041  14.941   6.980  13.661 -0.1278 -0.2492 -0.1119
25508W        W45042   8.025   2.550  14.184  0.2190 -0.0689 -0.1166
25509W        W45043  11.898   3.076  10.564 -0.2797  0.0106  0.2134
25510W        W45044   2.114  14.684   2.965  0.3502 -0.1293  0.3357
25511W        W45045   2.191  15.006   4.896  0.2089 -0.2021 -0.1365
25512W        W45046   5.263   7.177  14.510  0.0975 -0.2040 -0.1239
25513W        W45047   8.549   3.400   2.880 -0.1698  0.0010 -0.1879
25514W        W45048   4.021   8.700   3.387  0.3138 -0.1480 -0.2911
25515W        W45049   8.307   4.992  12.046  0.0632  0.0291  0.1796
25516W        W45050  16.957   9.037  12.754  0.0316 -0.0240  0.0134
25517W        W45051  11.944  16.341  12.567 -0.1205  0.0889  0.0778
25518W        W45052  12.622  11.264   0.466  0.0215  0.0889 -0.2720
25519W        W45053  14.874   9.404   5.532  0.0173  0.2079  0.0202
25520W        W45054  12.861  17.412  12.168  0.1224 -0.4739  0.1918
25521W        W45055   5.413  13.360   0.056 -0.0431 -0.0033 -0.1366
25522W        W45056  10.627   1.728   1.009 -0.2127  0.1052 -0.0465
25523W        W45057  16.271  14.320   4.288 -0.3098  0.0357  0.1574
25524W        W45058  12.867   8.785  15.886  0.0680 -0.0513 -0.2331
25525W        W45059   6.559  17.767  15.593 -0.0762 -0.1535  0.1927
25526W        W45060   3.059   8.274   1.689 -0.2081 -0.1061  0.0424
25527W        W45061  16.239  11.319   2.874 -0.3331  0.2671 -0.2722
25528W        W45062   3.543   5.373   3.162 -0.1008 -0.0762 -0.1697
25529W        W45063  11.263   1.373   0.356 -0.2092 -0.0935 -0.0044
25530W        W45064  11.087   9.505  12.771 -0.0257 -0.2162  0.0179
25531W        W45065   5.162   2.023   5.213  0.3132 -0.0331 -0.2654
25532W        W45066  12.945  13.038  12.683 -0.0410 -0.3346 -0.3145
25533W        W45067  11.079  10.679   2.645 -0.2308  0.0138  0.1482
25534W        W45068  10.366  13.445   2.116 -0.1153 -0.4743 -0.0241
25535W        W45069   4.711   0.602   1.442 -0.0106 -0.0431  0.0095
25536W        W45070   4.014  14.313  12.805  0.0955  0.1585 -0.1340
25537W        W45071  11.444  14.122   2.107  0.1671 -0.0530  0.0680
25538W        W45072   7.302  17.515  15.975  0.0930  0.1199  0.0900
25539W        W45073   0.152  15.343   0.922 -0.1421 -0.2170  0.2050
25540W        W45074  12.340  11.851   3.445  0.2052 -0.1253 -0.2272
25541W        W45075  17.505   1.320   1.753  0.0463  0.0208 -0.1727
25542W        W45076   6.332   2.536  12.859 -0.1824  0.1235  0.1501
25543W        W45077  11.038  11.263  14.748  0.2567 -0.2141  0.0079
25544W        W45078  10.778  15.711   0.945 -0.3410  0.1353  0.0428
25545W        W45079  11.006   1.197   5.190 -0.0369 -0.0834 -0.1392
25546W        W45080   8.708   1.248  12.268 -0.0175  0.0066  0.0498
25547W        W45081   8.515  12.394  15.518  0.1210  0.1399  0.4274
25548W        W45082   2.223  12.903   2.748 -0.1754 -0.2573 -0.0177
25549W        W45083  10.532  16.436  13.533  0.1102  0.1799 -0.2023
25550W        W45084  13.920   2.368   4.484  0.1979  0.0430  0.2856
25551W        W45085   3.017  17.843  11.850 -0.1859 -0.0576  0.1499
25552W        W45086   3.720   5.747   4.050 -0.0280  0.3457  0.1540
25553W        W45087   0.289  11.694   1.087  0.1239  0.1590 -0.0310
25554W        W45088   3.882   9.254  12.243 -0.0946  0.2893  0.0014
25555W        W45089  16.557  13.235   1.674  0.3554 -0.2663 -0.1698
25556W        W45090  11.338   6.963   2.130 -0.1237  0.3530  0.0492
25557W        W45091  12.189   0.213   4.620 -0.1733 -0.0892  0.0187
25558W        W45092   7.084   7.333   2.321 -0.0083 -0.1469 -0.0456
25559W        W45093   7.635   0.050   4.734  0.0791 -0.0534  0.0594
25560W        W45094  15.695  16.988   0.393 -0.3012  0.0821  0.1158
25561W        W45095   4.007  14.809   4.178 -0.0467 -0.0784  0.2303
25562W        W45096  13.996   6.938   3.679  0.2055 -0.1816  0.3596
25563W        W45097   4.661   4.860   2.277  0.0523 -0.1684 -0.0880
25564W        W45098  12.961  10.194   0.949 -0.2622 -0.0142 -0.0475
25565W        W45099   3.087   1.195  12.469  0.2033 -0.2141  0.1636
25566W        W45100   6.115   1.347  14.156  0.0898 -0.0608  0.0062
25567W        W45101  15.448   5.354  16.071 -0.1988  0.2652 -0.1105
25568W        W45102  13.201  14.165  12.329 -0.1290  0.2160 -0.1878
25569W        W45103   3.626   4.928   1.852  0.0097 -0.1128  0.3652
25570W        W45104  14.672   7.826   2.128 -0.0049 -0.2352  0.0058
25571W        W45105  11.373   2.168   0.731  0.1514  0.1175  0.0270
25572W        W45106   7.772  15.826   2.962  0.2210 -0.0324 -0.0842
25573W        W45107   9.396   6.192  14.398  0.3583 -0.1343  0.2264
25574W        W45108   4.232   3.358  13.787 -0.1232  0.0653  0.2605
25575W        W45109   9.667   2.939  14.903 -0.3219 -0.0085  0.0444
25576W        W45110   4.669   9.150  13.938 -0.1252 -0.3641  0.0498
25577W        W45111  13.683   7.169  14.857 -0.1550  0.1033  0.2096
25578W        W45112  10.337   9.737  15.297  0.0738 -0.1501 -0.1190
25579W        W45113  13.245  13.217  15.493 -0.0390 -0.4353  0.1521
25580W        W45114   7.912  16.875   1.039  0.2720  0.1586  0.3537
25581W        W45115  13.697  15.124  15.019 -0.0874 -0.0019  0.0522
25582W        W45116  15.605  12.554  14.511  0.1508 -0.0182  0.2006
25583W        W45117  15.952   5.202  13.428 -0.1355 -0.0665  0.0371
25584W        W45118   3.502   3.549  15.130 -0.1431  0.0709 -0.0123
25585W        W45119  11.937  16.213  13.919  0.2029 -0.0849 -0.2135
25586W        W45120   7.689   4.164  12.411 -0.1226 -0.0382 -0.0233
25587W        W45121  17.874   5.967  15.422 -0.0550  0.2090 -0.1637
25588W        W45122  14.628   6.497  16.382 -0.3292 -0.1870 -0.1429
25589W        W45123   2.979   9.784  16.627 -0.0262 -0.0250 -0.4430
25590W        W45124   8.413  14.780  15.584 -0.0030  0.0508  0.2896
25591W        W45125   2.396   6.814  14.523  0.0921 -0.0927  0.0390
25592W        W45126   2.192   3.207  12.512  0.1909  0.1433  0.2082
25593W        W45127  16.257   2.536  14.465  0.2708  0.1300  0.0088
25594W        W45128  10.614   5.741  13.685  0.1262 -0.0841 -0.0283
25595W        W45129  17.495   4.771   4.438  0.2950 -0.0948  0.2545
25596W        W45130   0.335  16.650   2.095  0.1286  0.2648  0.0164
25597W        W45131   6.963  13.314  15.457  0.0888 -0.2196 -0.0387
25598W        W45132  17.723   3.099  12.232  0.1325  0.1188  0.0133
25599W        W45133  12.594  15.556  13.738 -0.1678  0.6054  0.2804
25600W        W45134   8.952   4.831  14.002 -0.0692 -0.1861  0.0184
25601W        W45135   6.509  10.052  12.975  0.1333  0.1629  0.0505
25602W        W45136  17.374  14.050   3.096 -0.1056  0.4699 -0.0414
25603W        W45137  16.385  13.737  15.806  0.0333  0.3105  0.2627
25604W        W45138   9.464   7.968  15.015  0.1367 -0.0281  0.3654
25605W        W45139  12.962   5.263   1.074  0.0563 -0.0815  0.3383
25606W        W45140  14.120   8.212  12.953 -0.1374 -0.1545  0.3661
25607W        W45141  15.069   4.197   2.463 -0.2014 -0.1873 -0.1312
25608W        W45142   0.342   5.512  14.238  0.0986 -0.1088  0.0819
25609W        W45143   0.579  10.534   1.754  0.2656 -0.1204 -0.1817
25610W        W45144   2.218  14.928   2.002 -0.4336  0.0195 -0.2489
25611W        W45145   8.946   2.531   2.795  0.2421  0.0849  0.4303
25612W        W45146  11.176  10.330  14.577  0.1984  0.1489  0.0560
25613W        W45147   1.278   2.656   5.146 -0.0383  0.1850 -0.0452
25614W        W45148   5.360   4.359   3.262  0.0336  0.2044  0.0697
25615W        W45149   7.958   5.745   5.504  0.0208  0.0799 -0.1549
25616W        W45150   9.988  10.789   2.862 -0.2557  0.1251  0.2257
25617W        W45151  12.231   8.503  13.247 -0.0991  0.2438  0.3297
25618W        W45152   5.474  11.409   1.805 -0.0391  0.2884 -0.1057
25619W        W45153  17.336  12.203  15.488 -0.0644 -0.2018  0.1215
25620W        W45154   7.842   2.475   2.172  0.1154 -0.4991 -0.2973
25621W        W45155  10.207  11.137  15.229 -0.0580 -0.4496  0.1849
25622W        W45156  12.491  14.512  12.918  0.0111 -0.0030 -0.0900
25623W        W45157   8.283   4.559  11.824  0.0326  0.1995 -0.0198
25624W        W45158  12.122   9.258   5.221  0.4120 -0.1016 -0.1684
25625W        W45159  14.986  12.397   3.302 -0.2740 -0.1073  0.2848
25626W        W45160  12.648   8.388   2.752 -0.2997 -0.2105  0.1355
25627W        W45161  13.292  16.776   4.587 -0.0544 -0.1849  0.1023
25628W        W45162   6.166   9.730   3.509 -0.0632 -0.1405  0.0484
25629W        W45163   6.622   8.626   2.976 -0.2651  0.2812 -0.2169
25630W        W45164   8.665  15.135  16.126 -0.0094 -0.3765 -0.0224
25631W        W45165   8.828   3.581   5.490  0.0609 -0.3740  0.1121
25632W        W45166   1.270  13.600  13.888  0.0825 -0.1376 -0.0252
25633W        W45167   8.003   2.060   5.027  0.1108 -0.1755 -0.4759
25634W        W45168  17.404   2.461  14.590 -0.0669  0.1201  0.4185
25635W        W45169   0.158  15.621  14.757 -0.0818 -0.4049  0.1712
25636W        W45170   8.886   5.091   1.656  0.4702 -0.0515 -0.2900
25637W        W45171  16.928   6.233  13.184 -0.2402  0.1612  0.2427
25638W        W45172   5.655   1.286  12.972 -0.1360  0.0461  0.1441
25639W        W45173   2.811   0.050   4.070  0.0185 -0.1319  0.0980
25640W        W45174   2.898   4.381  11.607  0.0493 -0.0013 -0.0403
25641W        W45175  15.556   8.952  14.882 -0.0976 -0.1521 -0.0522
25642W        W45176  14.376   2.383  14.596  0.2444  0.1137 -0.2688
25643W        W45177  10.911   8.099   3.011 -0.0402 -0.1092  0.0152
25644W        W45178   2.557   0.685  16.247  0.2203  0.0700 -0.2789
25645W        W45179  11.321  17.547  14.969 -0.0826  0.3078 -0.0641
25646W        W45180  16.409   1.509  14.265 -0.0846 -0.1110 -0.1431
25647W        W45181   7.778   5.943   5.066 -0.0488 -0.1160 -0.1623
25648W        W45182  17.092   8.448   1.337 -0.0664  0.1000  0.1976
25649W        W45183  16.122   3.799   0.995  0.3450 -0.0444 -0.0153
25650W        W45184  16.430   4.070   1.775 -0.1293 -0.0599 -0.0272
25651W        W45185   0.469   1.937   0.909 -0.0629  0.1054 -0.1943
25652W        W45186   2.532  16.017  16.262 -0.0357  0.1482 -0.1596
25653W        W45187  13.177  10.376   5.101 -0.1274  0.0682 -0.1095
25654W        W45188  15.291   1.857   2.950  0.0155  0.0599 -0.1252
25655W        W45189  10.822  13.570   2.056  0.2014  0.1745  0.0837
25656W        W45190   3.657  12.951   4.515  0.0422 -0.1077  0.2899
25657W        W45191  17.557   8.420   1.182  0.2677 -0.1211  0.4292
25658W        W45192   0.354  13.908  13.551  0.0051  0.2771  0.2880
25659W        W45193   4.564  12.859  15.227  0.2644 -0.3738  0.0755
25660W        W45194   8.009  15.206  14.175 -0.1991 -0.3213  0.0371
25661W        W45195   1.040  15.569  15.465 -0.3057 -0.1089 -0.0513
25662W        W45196   1.980   0.456  14.136  0.2194 -0.1233 -0.1908
25663W        W45197   6.993   1.421  11.891 -0.1314 -0.1808  0.3867
25664W        W45198  16.389   6.719   1.506 -0.0934  0.1416 -0.2277
25665W        W45199   9.848  11.774  13.206 -0.1605  0.1813  0.1207
25666W        W45200   2.529   2.907   2.274  0.2083  0.0107 -0.0040
25667W        W45201   5.863   7.054  12.471  0.0492 -0.0263 -0.0036
25668W        W45202  13.332   8.158   0.186 -0.0801 -0.0540 -0.5519
25669W        W45203   3.706   1.367  13.867  0.0381 -0.1142  0.1048
25670W        W45204  17.064  13.284   3.454 -0.2015 -0.0657 -0.4313
25671W        W45205   3.695   5.474  14.461  0.1378 -0.1050  0.1490
25672W        W45206   4.732   0.703   0.905  0.1371  0.5045  0.0553
25673W        W45207  16.519  11.541  15.973  0.3238 -0.1495 -0.4110
25674W        W45208   0.462  15.021   3.094 -0.0944  0.2632 -0.1738
25675W        W45209   3.064   2.525  15.503  0.0458 -0.1310 -0.1977
25676W        W45210  10.712   1.350   2.053 -0.1001 -0.0686  0.1568
25677W        W45211  17.122   0.913   4.198  0.1576  0.1098 -0.4142
25678W        W45212  17.880   9.661   1.689 -0.0087 -0.1159 -0.0835
25679W        W45213  10.939  14.825  14.253 -0.2679  0.2708 -0.1464
25680W        W45214  17.477   8.555  16.635 -0.2621 -0.0794 -0.2050
25681W        W45215   0.065   8.943   0.636 -0.2221 -0.3212 -0.1483
25682W        W45216  17.721   0.462  13.840 -0.2555  0.2489  0.0758
25683W        W45217   5.738  17.448  15.200  0.0352  0.0143  0.2193
25684W        W45218  10.997   6.242   0.940  0.0293 -0.0899  0.0328
25685W        W45219   7.789  13.513  15.949 -0.0165  0.3069 -0.1778
25686W        W45220  16.853   5.635  14.376  0.2270  0.1155  0.1580
25687W        W45221   4.506  14.404  14.113 -0.3891 -0.2456 -0.0013
25688W        W45222   4.757  12.563   2.787  0.2102  0.2479  0.1280
25689W        W45223  14.365   5.415  10.675  0.2047  0.0229 -0.0815
25690W        W45224  15.009  16.848   1.171  0.2272 -0.3062 -0.0024
25691W        W45225  11.886  11.712   0.433 -0.1174 -0.0325 -0.2452
25692W        W45226   1.925  16.188   2.851 -0.3168 -0.0698 -0.2441
25693W        W45227   2.168   2.295   0.467 -0.0498 -0.2784  0.0684
25694W        W45228   4.740  14.010  11.829 -0.0643 -0.0188  0.0590
25695W        W45229  14.328  12.422  16.269 -0.0221 -0.1145 -0.0591
25696W        W45230   4.259   1.123   3.975  0.0301  0.4849 -0.0785
25697W        W45231   4.899   7.384   2.284 -0.0766 -0.2334 -0.1586
25698W        W45232   5.551   7.271  15.711 -0.0535  0.3535  0.1273
25699W        W45233   1.528  13.955   4.220 -0.0721  0.0717 -0.4991
25700W        W45234  16.966   7.918  14.146 -0.0108 -0.1587  0.3128
25701W        W45235  17.897   2.303   1.875  0.0309  0.0215 -0.3395
25702W        W45236  11.008   8.074   4.383  0.4243  0.0854 -0.1283
25703W        W45237   4.036   6.595   2.591 -0.2395  0.1523 -0.0079
25704W        W45238   0.503  14.039  12.242 -0.0270 -0.0006  0.0225
25705W        W45239  13.433   8.131   2.598 -0.0989  0.1460  0.5074
25706W        W45240  13.175   4.756   1.282 -0.2659 -0.2032 -0.1069
25707W        W45241  16.383  10.289  13.254  0.0026 -0.1190 -0.0809
25708W        W45242  10.248  16.172  13.877  0.1238  0.2271  0.3173
25709W        W45243   0.705   1.730  13.933 -0.1180 -0.1158 -0.2336
25710W        W45244   9.607   7.880   4.264  0.1012 -0.1213 -0.1276
25711W        W45245  16.565  13.162   3.092 -0.1597  0.0243  0.2562
25712W        W45246   3.671  17.347  14.203  0.0371  0.0310 -0.0189
25713W        W45247   0.185   7.407  15.639  0.1341  0.0999  0.1194
25714W        W45248  12.726   5.711  12.063  0.0447  0.1010 -0.1353
25715W        W45249   3.452   2.403   5.373  0.2867  0.3373 -0.2468
25716W        W45250   8.763   2.457  16.742  0.0055 -0.1383 -0.1050
25717W        W45251   2.083   9.445   1.701  0.2160  0.0765 -0.0552
25718W        W45252  13.037  13.067   0.602  0.1114  0.0913 -0.2478
25719W        W45253   6.538   4.594   2.710 -0.2034  0.0912  0.0614
25720W        W45254  12.503  14.201  15.891 -0.0591  0.2039  0.0558
25721W        W45255   1.515  15.447  14.635 -0.2933  0.1431 -0.1447
25722W        W45256  14.647   8.171   1.662  0.2209  0.0435 -0.0450
25723W        W45257  14.195   3.327   0.525 -0.0111  0.0054  0.2574
25724W        W45258  17.785  12.171  14.603  0.1425  0.1831 -0.2837
25725W        W45259   6.661   5.613  14.490  0.1471  0.0071 -0.2345
25726W        W45260   5.968  11.322   0.599 -0.0855  0.2293  0.0140
25727W        W45261   1.575   6.201   4.545 -0.3096  0.2054 -0.1694
25728W        W45262  15.844   6.477   3.563 -0.2376  0.1336  0.2171
25729W        W45263  10.144   6.944  12.015  0.3814 -0.1135  0.0076
25730W        W45264  11.494   2.175  15.234  0.2883 -0.1226 -0.0604
25731W        W45265   0.919  17.746  12.447  0.0398 -0.1854  0.5122
25732W        W45266  15.158   1.331  16.200  0.2677  0.1054  0.1555
25733W        W45267   1.717   6.763   1.913 -0.2097 -0.5659 -0.1186
25734W        W45268   4.828   5.311  13.268 -0.1054  0.1648  0.0600
25735W        W45269  12.024   1.209  13.280 -0.0734 -0.3418 -0.1537
25736W        W45270   5.532   5.460   1.667 -0.3149 -0.1617 -0.0330
25737W        W45271   6.876   3.089  13.894 -0.0653  0.2874  0.3522
25738W        W45272  13.103   7.776   1.352  0.0139  0.1889  0.1145
25739W        W45273   9.468   3.285   2.426 -0.0643  0.0998 -0.2358
25740W        W45274  11.621   9.905   0.185 -0.2502 -0.1806 -0.0583
25741W        W45275   7.377  13.608   3.783  0.1593 -0.2853  0.0702
25742W        W45276  15.323   6.205   1.122  0.3945 -0.0069 -0.0728
25743W        W45277   8.626   7.894  15.072  0.0801 -0.0495 -0.0574
25744W        W45278   4.330   5.890  15.020 -0.3757 -0.0948 -0.2024
25745W        W45279  13.142   9.898   2.481  0.0855 -0.1167 -0.1940
25746W        W45280   2.616  17.030  16.201  0.1666  0.1713 -0.1688
25747W        W45281   7.202   8.777  13.437 -0.1895 -0.0257  0.0714
25748W        W45282  10.451   0.232  14.992  0.0138  0.0903 -0.3657
25749W        W45283   1.741   8.456  15.785  0.0899 -0.0368  0.0089
25750W        W45284  16.035  17.603  12.552  0.2564  0.1018 -0.3678
25751W        W45285   1.982  15.241   3.444  0.2861  0.3230  0.0117
25752W        W45286  12.152  15.120  13.646 -0.0907  0.3625  0.1525
25753W        W45287  13.590   6.673  15.385 -0.3131  0.0104  0.0048
25754W        W45288   6.548  13.181   2.324 -0.1210 -0.0558 -0.0805
25755W        W45289   0.599  16.898   1.244 -0.0008 -0.2104  0.0409
25756W        W45290  15.473   7.720   4.379  0.1777  0.3766 -0.0674
25757W        W45291   3.911   1.802   2.066 -0.3248  0.0126 -0.1423
25758W        W45292  10.642   5.033   3.338 -0.0810  0.1649  0.0951
25759W        W45293  17.251   3.959   4.293  0.1480 -0.3458  0.0406
25760W        W45294  13.951   9.581  15.512  0.0739 -0.0477  0.1045
25761W        W45295   6.161   1.999   4.441  0.3135 -0.1574 -0.1036
25762W        W45296   0.917  11.660  14.657  0.3724  0.0996  0.0023
25763W        W45297  11.001   3.106  13.467 -0.1402 -0.0091 -0.2814
25764W        W45298   4.014   3.595  15.307  0.4163  0.0956  0.0048
25765W        W45299  17.614   0.934  13.628  0.0017 -0.0717  0.2656
25766W        W45300   1.836   2.735   3.275  0.2200 -0.3590  0.1458
25767W        W45301  12.395  17.357  12.981 -0.1163  0.0575 -0.2713
25768W        W45302   4.314   2.056   5.412 -0.1447 -0.2770  0.2221
25769W        W45303  12.710  12.013  16.019  0.2825 -0.2280  0.0212
25770W        W45304  16.478   9.967  15.282  0.2277  0.0050 -0.1278
25771W        W45305  12.416   5.145   4.197  0.0737 -0.1026 -0.1090
25772W        W45306   5.477  10.187  16.307  0.2424 -0.2014 -0.0081
25773W        W45307  16.522  12.415   3.876  0.1978 -0.1489  0.1535
25774W        W45308   9.900   6.161   0.251 -0.0260  0.0834 -0.0086
25775W        W45309   0.231  12.590  15.502  0.3681  0.1437 -0.0203
25776W        W45310   1.562  10.919   1.006  0.1216  0.2733 -0.0495
25777W        W45311   8.949   5.014  13.511 -0.3132 -0.2165  0.0420
25778W        W45312  17.105   6.181   2.057  0.0384  0.2731 -0.1532
25779W        W45313   9.008  17.480   2.508 -0.1035 -0.2246  0.2077
25780W        W45314  15.354  11.228  14.905  0.2428  0.0301 -0.1774
25781W        W45315  13.646  15.561  13.844 -0.2687 -0.0843  0.2424
25782W        W45316  15.285  14.823   3.582  0.2223  0.0210 -0.2343
25783W        W45317  15.823   1.442   1.005  0.3213 -0.2177 -0.2052
25784W        W45318   4.673  11.877  13.188 -0.0514  0.3420 -0.4663
25785W        W45319  17.717   1.525  15.516  0.2254  0.0875  0.1706
25786W        W45320  15.987  13.924   0.064 -0.1027 -0.2643  0.2306
25787W        W45321  12.214  13.058  14.463 -0.4485 -0.0066 -0.1766
25788W        W45322   1.762  11.295  14.432  0.1746 -0.0323  0.0545
25789W        W45323   9.419  16.865   3.238  0.1866  0.4908  0.0289
25790W        W45324  12.872   4.309   2.143  0.0486  0.5144  0.3560
25791W        W45325  17.414  15.476   3.087 -0.1924 -0.0256 -0.0838
25792W        W45326   3.569   2.682   3.621  0.2552 -0.3302  0.2158
25793W        W45327   1.722  15.323  12.305  0.1580  0.3017 -0.0528
25794W        W45328  12.554   4.907   4.763  0.0524 -0.0024  0.0500
25795W        W45329  11.309   1.717  15.109  0.2405  0.2331 -0.2519
25796W        W45330   0.702   4.265   3.533  0.0406 -0.0448 -0.0442
25797W        W45331  11.713  11.573   3.686  0.0720 -0.1526  0.1254
25798W        W45332   3.295  16.529  13.974 -0.1532  0.0334 -0.1567
25799W        W45333  17.466   8.486   3.464 -0.0123  0.1750 -0.0732
25800W        W45334  13.658  11.976   3.998 -0.1739 -0.2383  0.1144
25801W        W45335  17.380   1.136  14.737  0.2740 -0.0952  0.2123
25802W        W45336  14.240   7.641   4.085 -0.0796  0.1796 -0.2085
25803W        W45337   8.998  17.652  15.101 -0.1609  0.0991  0.0193
25804W        W45338   8.694   4.158   4.264 -0.3912 -0.1354 -0.0932
25805W        W45339   0.423   1.361   2.889 -0.1761 -0.0199 -0.1083
25806W        W45340   4.317  13.787   2.812  0.0197 -0.1998  0.0976
25807W        W45341  13.498   9.264   4.393  0.1538  0.0373  0.1542
25808W        W45342   3.717   1.804   3.988 -0.3699  0.2123 -0.2536
25809W        W45343   5.956   8.634  11.918  0.0382 -0.0661  0.3265
25810W        W45344   6.069   9.958  14.687 -0.1881  0.0780  0.3725
25811W        W45345  10.460  12.180  15.964 -0.2729 -0.4487  0.0245
25812W        W45346  13.767   9.883   2.072 -0.1034 -0.1302 -0.1117
25813W        W45347  14.191   3.508  13.150  0.2320 -0.2992  0.0137
25814W        W45348  12.026   1.711  16.508 -0.2822  0.3248  0.4500
25815W        W45349   4.479  15.578  15.075 -0.3502 -0.1335  0.0422
25816W        W45350   0.822   0.586  14.890  0.1748  0.1821  0.0272
25817W        W45351  12.572  17.668  13.732  0.0454 -0.2011 -0.1046
25818W        W45352  16.279  14.126   4.762  0.2579 -0.0542  0.2030
25819W        W45353   0.270   1.926  13.917  0.2177 -0.1790  0.0573
25820W        W45354   2.972   2.930   1.949  0.3872 -0.1824 -0.1658
25821W        W45355  14.603  14.579  11.781 -0.2246 -0.0772  0.2795
25822W        W45356   9.941   3.115  16.133 -0.0369 -0.2100  0.1510
25823W        W45357  14.976  14.472   5.117  0.0509  0.0426 -0.0148
25824W        W45358  11.351  13.897   1.230  0.1517 -0.1471 -0.1171
25825W        W45359  12.358   3.681   3.248 -0.0312 -0.2283 -0.1006
25826W        W45360  15.979   9.419  13.666  0.0387 -0.1863  0.1025
25827W        W45361  16.796  14.970   3.624 -0.2431 -0.0453  0.3851
25828W        W45362   8.040  17.596  14.425  0.1803  0.0590 -0.1682
25829W        W45363  14.028   4.191  15.988  0.0832  0.1452  0.1171
25830W        W45364   2.879  13.030   3.329  0.1141  0.0668 -0.1271
25831W        W45365  14.908   3.930  13.747  0.0688  0.4300 -0.1630
25832W        W45366   1.842  14.525   4.182  0.1845 -0.1598 -0.2037
25833W        W45367  10.155  14.287  13.936 -0.1618  0.1245  0.0499
25834W        W45368  15.103   8.131  11.957 -0.0217  0.1799  0.1177
25835W        W45369   1.603   3.114  12.470 -0.0243  0.0930  0.1728
25836W        W45370   3.660  11.704   3.174  0.0390  0.0917 -0.0601
25837W        W45371  13.496  14.903  16.282  0.3256  0.1238  0.0716
25838W        W45372   2.448  16.003   1.932  0.0220  0.1821  0.1425
25839W        W45373  16.695   2.745   2.122  0.0806 -0.2893 -0.0756
25840W        W45374   0.092  11.832  13.029  0.0659 -0.0485 -0.2566
25841W        W45375   2.136   6.097   0.911  0.1083 -0.0919  0.1099
25842W        W45376  13.852  14.831  12.043  0.0012 -0.2028 -0.0431
25843W        W45377   2.152  17.668  16.577  0.0606  0.2362 -0.0758
25844W        W45378  15.536  14.231  12.081  0.0894 -0.0572  0.0101
25845W        W45379   6.878   5.033  15.057  0.1627  0.1694 -0.0084
25846W        W45380  17.542   6.317   0.089  0.1540  0.1582  0.1136
25847W        W45381  17.797   5.911   2.828  0.0254  0.0868  0.2577
25848W        W45382   1.050   5.615   1.753 -0.0118 -0.0626 -0.0448
25849W        W45383  17.181   7.799  15.829 -0.0099 -0.2586  0.1041
25850W        W45384   2.533   3.456  12.699  0.0805 -0.0246  0.0134
25851W        W45385  13.754   6.260   4.401  0.0235 -0.2054  0.2734
25852W        W45386  16.761  15.718  13.564 -0.0704 -0.0356  0.1602
25853W        W45387   9.280   8.477   3.895 -0.1870 -0.0820 -0.3298
25854W        W45388   6.420   4.512   0.832  0.0335  0.0613  0.0556
25855W        W45389   9.652  13.456   2.702  0.3134  0.3316 -0.1489
25856W        W45390   7.128   0.715  15.072 -0.0552  0.2795  0.0587
25857W        W45391   8.357   4.618  12.901 -0.1041  0.1403 -0.1776
25858W        W45392  10.132   9.742  14.466 -0.3343  0.1780 -0.0059
25859W        W45393   3.051   5.208   1.431  0.2199 -0.1603  0.2947
25860W        W45394  10.291   9.619  12.690  0.3895  0.2642  0.0671
25861W        W45395   1.032   0.005   3.196  0.1768  0.2456 -0.1603
25862W        W45396  16.227   2.249  15.311 -0.0081  0.3347  0.1331
25863W        W45397   9.002   3.093  13.146  0.0138  0.0661  0.0857
25864W        W45398   7.517  10.135   2.791  0.2549  0.1194  0.0682
25865W        W45399  16.517  12.546  12.903 -0.0801 -0.0475 -0.1749
25866W        W45400  10.746  17.530   0.661  0.1383  0.3809 -0.1494
25867W        W45401  17.109   0.460  14.445 -0.1637  0.3124  0.2374
25868W        W45402   3.494  12.294   1.902  0.1843 -0.2224  0.1754
25869W        W45403   5.068   4.048   1.323  0.2549  0.2292  0.1517
25870W        W45404  11.665   8.547   2.770  0.3086  0.4750 -0.2144
25871W        W45405   1.058   6.176  13.417 -0.1744 -0.1089  0.2859
25872W        W45406  11.118   5.893  15.453  0.0919  0.1228  0.1368
25873W        W45407  12.757   0.638  13.710 -0.0510  0.1315 -0.3273
25874W        W45408   8.052   4.756  15.564 -0.2486 -0.1015 -0.3820
25875W        W45409  10.436  13.119   4.589 -0.2602  0.0840  0.1376
25876W        W45410  16.857   2.914  13.471 -0.0595  0.0066 -0.1697
25877W        W45411   9.871  11.525  13.873  0.4470  0.4384 -0.1472
25878W        W45412  11.661  13.167   1.624 -0.0736 -0.1630 -0.1519
25879W        W45413   8.205   5.597   2.516 -0.0095 -0.1792 -0.2936
25880W        W45414   8.800  15.784  15.438  0.0032  0.1578  0.3447
25881W        W45415   2.392  11.061   3.353 -0.1908 -0.0982  0.0493
25882W        W45416   0.329  14.554   0.012 -0.2236  0.1254 -0.0365
25883W        W45417   6.643   8.383  15.323 -0.0053  0.1719  0.2354
25884W        W45418  17.287  16.070  16.732  0.0959  0.0007 -0.0670
25885W        W45419  13.124   9.536  13.747 -0.0208 -0.0181  0.1753
25886W        W45420   4.966  16.432   2.654  0.2937 -0.0708 -0.0703
25887W        W45421  17.858   0.920   3.461 -0.2358  0.1517 -0.1197
25888W        W45422  15.053   2.582  15.569  0.3050 -0.0163 -0.0559
25889W        W45423  12.621  14.348   2.222 -0.0132 -0.1609  0.1406
25890W        W45424   2.787   8.266   5.014 -0.3920 -0.1773 -0.0271
25891W        W45425   1.460  15.879   0.308  0.2094  0.0640  0.2149
25892W        W45426   6.455   4.108   2.612 -0.0262  0.3449  0.1575
25893W        W45427  11.240  15.228  14.467  0.1095  0.0475 -0.0862
25894W        W45428  13.169   0.460   0.679  0.3470  0.0267 -0.2786
25895W        W45429   5.362  16.771  13.518 -0.2638  0.1195 -0.1164
25896W        W45430  15.435  15.692   0.014  0.1528 -0.0654 -0.2727
25897W        W45431   3.238   6.873   3.599 -0.1198 -0.3343  0.0329
25898W        W45432   6.322  17.496   1.804 -0.1397 -0.1102 -0.0140
25899W        W45433  13.567   5.910  13.550  0.2973  0.0770 -0.2175
25900W        W45434   0.031  17.428  12.285  0.1667 -0.3169  0.1846
25901W        W45435   7.919   4.172   0.535  0.3389  0.0276  0.1795
25902W        W45436   6.156   8.485   1.423  0.0187  0.3893 -0.1942
25903W        W45437  16.446  15.489   0.137  0.0408 -0.0656 -0.2166
25904W        W45438  13.210   0.350  15.320  0.1055  0.1748  0.1604
25905W        W45439  14.266   7.804  16.151 -0.0458  0.0025  0.1678
25906W        W45440   8.087  12.468  14.333 -0.1117 -0.1160 -0.0654
25907W        W45441   4.923  15.160  16.308 -0.0056 -0.2114 -0.3752
25908W        W45442   9.383  13.999   4.062  0.2518  0.1118 -0.2180
25909W        W45443  17.146  14.929   1.866 -0.1333 -0.0608  0.2380
25910W        W45444  16.170   5.416  13.047  0.0241 -0.0480  0.1700
25911W        W45445   3.307   5.353  11.662 -0.0332  0.1494 -0.1006
25912W        W45446  14.499  16.188  15.956 -0.0356  0.0032 -0.1602
25913W        W45447  15.475   5.345   0.938 -0.0098  0.3027 -0.1395
25914W        W45448  11.306   1.092  12.197  0.0327 -0.2346 -0.0729
25915W        W45449   7.561   0.262  16.596 -0.0219 -0.1962  0.0045
25916W        W45450   5.080  11.915   1.226 -0.0200 -0.3371  0.1442
25917W        W45451   6.918   7.918   0.390 -0.0394 -0.0779  0.0178
25918W        W45452  11.442  12.820  12.758 -0.1163  0.2270  0.1668
25919W        W45453  10.086  15.256  15.833  0.0573  0.1246  0.3785
25920W        W45454  10.063   1.495   2.510 -0.3579  0.0503  0.0132
25921W        W45455   4.302   3.379   3.232 -0.2067 -0.2033 -0.1060
25922W        W45456  14.861   8.633  15.141  0.2755 -0.0883 -0.0236
25923W        W45457   9.880   2.679   1.077 -0.1306 -0.0956  0.0433
25924W        W45458   3.896  15.283   4.326 -0.1034 -0.1264  0.2793
25925W        W45459   4.095  15.365  13.160 -0.2771 -0.1150 -0.0150
25926W        W45460   1.784  10.588  14.432 -0.0433  0.0859  0.2792
25927W        W45461   7.445   2.033  16.712  0.1428 -0.0656  0.6139
25928W        W45462  14.218   3.728  15.781 -0.3248  0.0998 -0.3091
25929W        W45463   2.474   1.820  16.086  0.0590  0.3275 -0.0111
25930W        W45464   6.455   6.774   3.622  0.1182 -0.0101  0.2008
25931W        W45465   2.104   8.766   0.124  0.0776 -0.2513  0.2789
25932W        W45466   0.453  12.756   0.730 -0.1615  0.1996 -0.1517
25933W        W45467   3.558   7.582   1.784 -0.1108  0.1195  0.2085
25934W        W45468  17.178   4.002   3.765 -0.0451 -0.0761  0.1026
25935W        W45469   5.484  15.612  13.207  0.0026  0.1148  0.1877
25936W        W45470  11.599   3.138  12.957  0.1669  0.1504  0.3068
25937W        W45471   6.888   4.334   2.424  0.2876  0.0988 -0.2575
25938W        W45472   0.953  10.431  12.495  0.0704 -0.0117 -0.0253
25939W        W45473  15.823   5.995  14.213  0.2685 -0.1432  0.0441
25940W        W45474   8.816   2.890  15.925 -0.2016  0.1081 -0.1835
25941W        W45475   4.103  11.299  14.573 -0.1998 -0.0940 -0.0865
25942W        W45476   6.813  16.888  15.548  0.0903  0.1117  0.2000
25943W        W45477  17.128  17.839  15.967 -0.0089  0.0237  0.0596
25944W        W45478  10.979   9.472   4.357 -0.0718 -0.0097  0.0139
25945W        W45479   6.608  14.418  12.529  0.0115 -0.1608 -0.1145
25946W        W45480  10.954   8.907  12.506 -0.0596  0.2938  0.0905
25947W        W45481   4.804   4.202  14.418 -0.0382  0.0109  0.0714
25948W        W45482  14.211   0.690  15.389  0.0819 -0.0155 -0.2097
25949W        W45483   9.081   5.352   2.421 -0.0948  0.1972 -0.2975
25950W        W45484   6.865   9.043   3.021  0.0440 -0.0593  0.0825
25951W        W45485  16.002   5.938   3.681  0.2864 -0.2204  0.1402
25952W        W45486   2.023   7.583  14.001 -0.2162 -0.0781  0.0971
25953W        W45487   8.320   3.625   5.225 -0.2989 -0.1887  0.1230
25954W        W45488   7.020   3.608  12.287  0.1641 -0.0377 -0.0242
25955W        W45489   4.315   9.216  14.696 -0.0466 -0.0107  0.0261
25956W        W45490  15.686  11.205  12.020  0.0157  0.0192 -0.3492
25957W        W45491   5.289  14.872   3.360 -0.3173  0.0601  0.1871
25958W        W45492   7.795  17.576  12.588 -0.1419  0.0666 -0.1996
25959W        W45493  15.256   3.619  13.662 -0.2623  0.0052 -0.1521
25960W        W45494   3.782   0.369   5.284 -0.1181 -0.0688  0.2291
25961W        W45495  12.593   4.028  12.648 -0.0435 -0.0856  0.1139
25962W        W45496  17.384   7.496   3.449 -0.1802  0.1243  0.0863
25963W        W45497  12.460  12.620  15.452  0.3157 -0.5318 -0.0267
25964W        W45498   0.633  10.500  15.277 -0.0314 -0.0233 -0.2329
25965W        W45499   0.038  10.751  13.288  0.0918  0.0218  0.0699
25966W        W45500   8.041   2.573  16.056 -0.1226 -0.0749  0.0637
25967W        W45501  15.934  13.459  16.068 -0.2034 -0.2571 -0.1168
25968W        W45502   5.117   0.569   4.440  0.2454  0.1991  0.0268
25969W        W45503  12.544  10.780  13.678 -0.0096 -0.0215  0.0987
25970W        W45504  14.027  16.449   0.559  0.1555  0.0569 -0.0871
25971W        W45505  10.047  14.960  14.663 -0.0975 -0.2041 -0.0279
25972W        W45506   7.988  10.658   2.661  0.1878 -0.0466  0.3699
25973W        W45507  15.876   4.448  16.589 -0.4389  0.0680  0.2498
25974W        W45508   6.679   4.179   0.533  0.2803 -0.1914  0.2736
25975W        W45509   5.009   3.578   2.824  0.0088  0.1314  0.1529
25976W        W45510  16.562   7.233  13.123  0.1400 -0.0585 -0.1610
25977W        W45511  16.556  17.650  14.576 -0.1595  0.0719 -0.0726
25978W        W45512  12.555  12.746  12.625  0.1291  0.3466  0.0069
25979W        W45513   3.947   6.982  16.747 -0.0890 -0.1385 -0.0510
25980W        W45514   7.885   1.586   4.781 -0.0583  0.0153 -0.0960
25981W        W45515  16.589   9.838  12.484 -0.1103 -0.0080 -0.0048
25982W        W45516   5.911   0.484   3.086  0.2790  0.0858 -0.2774
25983W        W45517   2.577  12.390  14.142 -0.1001 -0.1957  0.0044
25984W        W45518   3.764   6.072  12.571 -0.1014  0.0564  0.1438
25985W        W45519   9.178   4.667  12.256 -0.2147 -0.1726  0.0340
25986W        W45520  10.597   7.416   1.642  0.3170  0.0342 -0.3289
25987W        W45521   4.762   9.285  14.511  0.0498  0.1491 -0.2476
25988W        W45522   2.470   1.920  12.439 -0.0874  0.0086  0.0968
25989W        W45523  15.351  17.023   0.834 -0.0468  0.0570  0.0098
25990W        W45524  10.305  17.661  16.646  0.1567  0.1449  0.0153
25991W        W45525  12.107   6.503  16.451  0.1667 -0.1568 -0.0505
25992W        W45526   2.895   9.315   1.365  0.0016  0.2671 -0.1818
25993W        W45527   4.343  11.652  12.030 -0.1178  0.1482 -0.1251
25994W        W45528  11.111  10.425   5.491  0.3138  0.1474  0.0000
25995W        W45529   5.177  11.649  12.487 -0.0535 -0.3208  0.1636
25996W        W45530   4.186   3.771   4.877  0.1358  0.0537  0.3792
25997W        W45531   4.805  15.842  12.670 -0.0427  0.0370 -0.0096
25998W        W45532  13.022  10.843  16.533  0.0652 -0.0135  0.1701
25999W        W45533   5.473  13.463   0.677 -0.3475  0.1035  0.0160
26000W        W45534   4.673  17.428   2.563  0.1897 -0.1143 -0.0670
26001W        W45535  11.341   5.430  16.202  0.2503 -0.1866  0.1044
26002W        W45536  17.732  16.472  12.099  0.2698 -0.3244  0.4204
26003W        W45537  17.351  13.514   0.161  0.1834  0.2351 -0.0229
26004W        W45538  15.076  11.242   5.187  0.3823  0.0120 -0.0440
26005W        W45539   4.740   3.910  16.392 -0.4686 -0.0772 -0.0507
26006W        W45540  13.298   3.228  15.688  0.0956  0.2346 -0.0433
26007W        W45541   1.455  10.909   1.903  0.0481 -0.0007 -0.1375
26008W        W45542   2.554   4.055  13.023 -0.0848  0.0955  0.2101
26009W        W45543  16.901   1.326   1.249 -0.3162 -0.0606  0.0034
26010W        W45544  14.596   6.657   4.442 -0.2209  0.1059 -0.2793
26011W        W45545  12.509   9.105   1.491 -0.1874  0.1257  0.1779
26012W        W45546   9.256   7.073   3.492  0.0058 -0.1004  0.1747
26013W        W45547  11.415   7.772   1.239  0.1585 -0.3163  0.1057
26014W        W45548   5.805   3.980   4.346  0.1117 -0.0980 -0.0723
26015W        W45549   7.400  16.296  15.124  0.1705  0.1308  0.0741
26016W        W45550  12.078   0.053  16.290  0.0670 -0.2680  0.1268
26017W        W45551   7.638  16.868  15.136  0.1895  0.2436 -0.0115
26018W        W45552   6.547  15.130   0.410 -0.4725  0.1464 -0.2167
26019W        W45553   6.535   6.276   4.469  0.2050 -0.1130  0.1224
26020W        W45554  11.537  15.124  15.542 -0.1031  0.1616  0.1453
26021W        W45555   8.977  10.941   0.562 -0.0562  0.2176  0.2713
26022W        W45556   2.189  17.434  14.055  0.1323 -0.0759  0.2626
26023W        W45557  17.903   5.248   2.233 -0.1855 -0.0395 -0.0605
26024W        W45558   6.716   9.237  14.747  0.2325  0.1658 -0.0392
26025W        W45559   2.381  12.187   0.329 -0.0134 -0.0006 -0.0763
26026W        W45560   6.436   7.016  14.078  0.0777  0.0622 -0.0357
26027W        W45561   3.710   4.498  15.801  0.0046 -0.3460 -0.1665
26028W        W45562   8.715   9.991  13.325  0.1041 -0.0945  0.1074
26029W        W45563  12.633   6.954   0.587 -0.1985  0.0379  0.0598
26030W        W45564  13.433  11.063   3.379  0.1126 -0.2227 -0.4469
26031W        W45565  15.115   2.976  11.925 -0.4237 -0.1974  0.2797
26032W        W45566   4.174  13.238   1.105  0.1874  0.1248 -0.3242
26033W        W45567   2.617   2.521   0.861 -0.0242  0.1987  0.0112
26034W        W45568   1.543  12.984   1.003 -0.0334  0.0444 -0.2719
26035W        W45569  12.496  14.402   0.699  0.1146 -0.2604  0.1212
26036W        W45570   6.387   3.648   1.201  0.2017  0.3722  0.0653
26037W        W45571   6.050   6.838   4.019 -0.0900  0.0760  0.0245
26038W        W45572  12.195   3.120  14.974  0.5340  0.0043 -0.0120
26039W        W45573  10.941   8.238   0.055 -0.0614 -0.2189  0.3690
26040W        W45574   1.971  11.975  16.690  0.1713 -0.3046  0.0754
26041W        W45575  12.173   3.404  12.817 -0.0217  0.1536  0.1101
26042W        W45576   7.358  17.683  15.067  0.2932 -0.0515  0.3423
26043W        W45577   3.033   0.410   1.762  0.3158 -0.1330 -0.2721
26044W        W45578   8.736  15.432   1.659 -0.2161  0.1529  0.1410
26045W        W45579  13.627  14.152  13.633  0.2867  0.2638 -0.2406
26046W        W45580  15.310  10.587  16.126 -0.0081  0.1568 -0.2452
26047W        W45581   4.262   7.765  12.979 -0.0990  0.3823  0.1310
26048W        W45582   3.766  10.114  13.798  0.1831 -0.0735  0.3616
26049W        W45583  10.734  13.438  12.565 -0.5100 -0.2990 -0.2324
26050W        W45584   9.429   6.515   4.652  0.0142 -0.1847  0.2760
26051W        W45585  10.360   7.438   0.872 -0.1692  0.1234 -0.0638
26052W        W45586  12.828   3.022  14.494  0.0051  0.0973 -0.1324
26053W        W45587  10.254  14.851   1.942 -0.0352  0.0813  0.1802
26054W        W45588  14.796  10.528  13.018  0.0838  0.2593 -0.0128
26055W        W45589  14.968  16.383   0.993  0.1720  0.1426 -0.0157
26056W        W45590   5.802   3.228  16.538 -0.0956  0.5744 -0.1434
26057W        W45591   3.385  17.006   4.542  0.1305 -0.0505  0.0303
26058W        W45592  14.601   4.897   3.092  0.0468 -0.0667  0.2409
26059W        W45593  17.073  12.280   2.743  0.2578  0.0765  0.0231
26060W        W45594   6.300  16.095   2.169  0.2831  0.1002 -0.1164
26061W        W45595  14.757   6.300   2.149  0.0905  0.0550 -0.0034
26062W        W45596   2.464   5.682   4.886 -0.0196 -0.0452  0.0755
26063W        W45597  13.504  15.642   1.635  0.0982 -0.0043 -0.0023
26064W        W45598  13.493   1.155   5.024 -0.1498  0.2890  0.1586
26065W        W45599  16.849   9.238  13.373  0.2864  0.0237  0.2534
26066W        W45600   1.546   0.569  12.211 -0.0522 -0.0558 -0.0573
26067W        W45601   5.675  13.508   2.809  0.0558 -0.4746  0.1339
26068W        W45602  12.417   3.391  14.537 -0.1395  0.1105  0.1303
26069W        W45603   1.428   9.128   0.637  0.0157  0.0507  0.0540
26070W        W45604   3.359   2.686  14.501 -0.3414  0.1729 -0.0512
26071W        W45605  11.407  17.792   2.878  0.0852 -0.1332  0.0852
26072W        W45606   1.463   7.285  11.627 -0.2502 -0.0913  0.1568
26073W        W45607   7.047   7.666  14.400  0.2232 -0.0786  0.2446
26074W        W45608   3.657  12.526   0.437  0.1745  0.1107  0.1979
26075W        W45609   5.449  16.380   2.157  0.3115 -0.0840  0.0076
26076W        W45610   4.241   0.899  14.619 -0.2831 -0.1230  0.1668
26077W        W45611   9.406   0.167   1.200  0.2773 -0.1562 -0.0979
26078W        W45612  13.393   7.363   4.529  0.0466 -0.1211  0.0230
26079W        W45613   5.578   0.696  14.384 -0.2042 -0.0851 -0.2672
26080W        W45614   9.129   9.606  12.262  0.2663 -0.0689 -0.2057
26081W        W45615  16.230   0.840  15.785  0.1933 -0.1887  0.1741
26082W        W45616  10.618  11.158   0.177  0.2199 -0.2652  0.1708
26083W        W45617  17.299  17.277   1.379  0.1742  0.3281 -0.0094
26084W        W45618   1.960   1.323  13.050  0.0062  0.0919 -0.0841
26085W        W45619   3.656  14.631   1.926 -0.1496 -0.1678 -0.2105
26086W        W45620   5.485  14.247  13.904 -0.0650 -0.1152  0.1130
26087W        W45621  13.047   4.560  13.820 -0.2504 -0.0335  0.0633
26088W        W45622   5.259   3.220  16.623 -0.3201 -0.1049  0.1789
26089W        W45623   3.197   0.226  12.805  0.0118  0.1490 -0.0042
26090W        W45624   0.390   0.602   4.043 -0.1415 -0.1101 -0.1064
26091W        W45625  14.046   2.552  16.621 -0.0092  0.0239  0.2969
26092W        W45626   2.881   0.587   0.833 -0.0743  0.0623  0.2400
26093W        W45627   3.978   7.352   1.908  0.0242  0.2702  0.2025
26094W        W45628   1.224   0.974   2.735 -0.1048  0.0560 -0.0532
26095W        W45629   0.948  16.651  14.472 -0.1259  0.1161  0.2510
26096W        W45630   2.552   8.326  14.949  0.4051  0.0817 -0.1366
26097W        W45631  14.578   5.906   2.913  0.3989  0.1345 -0.0224
26098W        W45632  17.560  16.493   4.198 -0.1405 -0.2728 -0.0683
26099W        W45633  17.242   7.261  16.680 -0.3616  0.3554  0.0730
26100W        W45634  13.723   3.597  16.552  0.0521 -0.1144  0.0726
26101W        W45635   9.608  14.830   4.337 -0.2195  0.0645  0.2631
26102W        W45636  16.530   5.000  15.620 -0.0974  0.0584  0.0865
26103W        W45637   6.568   9.480   4.888  0.2266  0.0292  0.2575
26104W        W45638   3.086   8.660  12.307  0.1599 -0.1490 -0.2214
26105W        W45639   9.101  15.864   0.401  0.0054  0.3664 -0.1167
26106W        W45640   8.044  13.287   0.743 -0.0097  0.1461 -0.2713
26107W        W45641  16.830  13.998   2.606 -0.1882  0.0425 -0.0363
26108W        W45642  16.086  15.387  12.026  0.4065  0.1913 -0.0082
26109W        W45643  14.400   9.246  12.982 -0.0120 -0.0519 -0.1893
26110W        W45644   0.364  15.525   1.892 -0.2510  0.0517  0.0912
26111W        W45645  11.788   5.827   1.235 -0.1036  0.2072 -0.0030
26112W        W45646   0.908  11.980   0.449 -0.3163  0.2889 -0.2766
26113W        W45647   3.451  17.444   3.158  0.0112  0.2725 -0.0753
26114W        W45648  14.045   9.213  16.638 -0.1392 -0.0034 -0.1362
26115W        W45649  13.358   5.397  16.609 -0.0733  0.1489 -0.0328
26116W        W45650   7.998  14.337   1.558  0.0802  0.0321 -0.0787
26117W        W45651   9.556   9.715  11.877  0.0793  0.3527  0.0939
26118W        W45652   8.556   7.557  13.938  0.2834  0.1212  0.1975
26119W        W45653   2.497  14.050   4.989  0.0700 -0.0069  0.2868
26120W        W45654   2.612  16.324   4.265 -0.2776  0.3788  0.0995
26121W        W45655  11.428   0.791   2.540  0.2055  0.0014  0.1270
26122W        W45656   0.718  17.667  14.358 -0.2032 -0.2636  0.1920
26123W        W45657   6.688   9.272  15.260 -0.1540  0.1629  0.2721
26124W        W45658   2.025  11.443  13.196  0.3119  0.2127 -0.0414
26125W        W45659  12.236  14.147   3.153 -0.2522  0.1164  0.1348
26126W        W45660   6.582  13.729   0.095  0.0587 -0.0618  0.0092
26127W        W45661  14.350  12.138   4.408 -0.2564 -0.2442  0.0593
26128W        W45662  14.513   9.270   0.687  0.0323  0.2135  0.3253
26129W        W45663   2.214  10.083   3.288 -0.1295  0.3085  0.2125
26130W        W45664  10.960   0.297   4.181 -0.0419  0.2091 -0.1745
26131W        W45665   1.028  12.504   0.652  0.0357 -0.1302  0.0457
26132W        W45666  10.311   5.218   2.999  0.2778  0.2394  0.2076
26133W        W45667   8.060  16.199  16.394 -0.0868 -0.0804 -0.4109
26134W        W45668  16.091  10.291   2.030 -0.4213 -0.1880  0.2877
26135W        W45669  12.863  10.040  14.637 -0.2200  0.1625  0.3639
26136W        W45670   2.622   8.701   0.220  0.0844 -0.1023  0.2507
26137W        W45671   3.072   8.209  15.529  0.0747 -0.0403 -0.1561
26138W        W45672  14.340   1.264   0.992  0.0797  0.0715  0.2355
26139W        W45673   9.660   1.880  13.478  0.3276 -0.2378  0.1762
26140W        W45674  13.479   7.594   4.021  0.1914 -0.1557  0.0343
26141W        W45675  13.177   0.527  13.306  0.1845  0.0248  0.0409
26142W        W45676   5.262   4.017  14.887 -0.1918 -0.0765 -0.0308
26143W        W45677   3.805   0.888   5.263  0.1487 -0.0518  0.0002
26144W        W45678   8.890   3.310   1.615  0.1193  0.1369 -0.1980
26145W        W45679   3.091   5.785  13.741  0.1853 -0.0190  0.2996
26146W        W45680   7.486  12.336   0.020 -0.1806  0.1318 -0.1064
26147W        W45681  17.302  13.728  12.840  0.3986 -0.2508  0.3082
26148W        W45682   5.978   6.990  13.018 -0.0540  0.0300 -0.1194
26149W        W45683   4.843  14.623  14.488  0.3918 -0.1639 -0.2258
26150W        W45684   3.431  13.184  14.461 -0.1668  0.3434  0.0355
26151W        W45685   1.059  14.309   3.021  0.1163 -0.3315  0.0431
26152W        W45686  17.618  15.949  13.519 -0.3334  0.1639 -0.0160
26153W        W45687   7.075  13.490   4.609 -0.1142  0.2099 -0.0219
26154W        W45688   7.554   0.013  12.948 -0.2826 -0.2337 -0.0951
26155W        W45689   7.666   9.683  16.168 -0.2498 -0.3245 -0.0422
26156W        W45690   4.155   4.823   1.594  0.1385 -0.3671  0.1256
26157W        W45691  14.367  13.760   3.174 -0.2155 -0.0376 -0.0235
26158W        W45692   8.593   7.597  14.595 -0.0314  0.1750  0.1748
26159W        W45693   7.643  15.938   5.610  0.3518  0.0230  0.1256
26160W        W45694  15.014  16.900  16.457  0.1803 -0.0116  0.1620
26161W        W45695  15.427   9.500  15.039  0.0953 -0.0804 -0.1324
26162W        W45696  14.217   2.564   3.167  0.1092  0.1129  0.0696
26163W        W45697  13.712   0.857   2.758  0.1359 -0.0404  0.0995
26164W        W45698   8.846  13.142   0.087 -0.0484  0.1812  0.1313
26165W        W45699  17.312   5.658  13.083 -0.0605  0.0787 -0.3205
26166W        W45700   6.999   8.519  15.896 -0.0367 -0.0298 -0.0770
26167W        W45701   5.857   2.426  13.258  0.1103  0.0760  0.2226
26168W        W45702   3.364  17.686  13.506 -0.2052  0.2384  0.3244
26169W        W45703   9.994   4.373  14.640 -0.1083 -0.1514 -0.1726
26170W        W45704   6.070  10.526   2.622  0.2164 -0.0612  0.1254
26171W        W45705   6.846   7.950   4.820 -0.1236 -0.3079 -0.5384
26172W        W45706  16.612   6.522  14.045 -0.1736  0.0969  0.2174
26173W        W45707  13.651  16.117   2.786  0.1397 -0.2778  0.1449
26174W        W45708   9.187  14.539   0.191  0.1231  0.2760 -0.1732
26175W        W45709  12.768  11.820   0.830 -0.2630  0.0072  0.1125
26176W        W45710  15.065  11.493  13.074 -0.1240 -0.1257  0.3367
26177W        W45711  17.249   1.322  15.430 -0.3530 -0.0275 -0.2560
26178W        W45712  11.175  13.843   1.708  0.1085  0.2491  0.0913
26179W        W45713   4.620  13.505   1.313  0.0040  0.1492  0.2359
26180W        W45714   3.028   7.894   0.307  0.1070  0.2895 -0.0770
26181W        W45715   7.564  11.925   0.280  0.0949 -0.1477  0.0594
26182W        W45716   3.044   4.096  15.350  0.0526  0.2289  0.2459
26183W        W45717   1.514   3.608   3.206  0.0200 -0.0963 -0.0460
26184W        W45718   3.203  11.564  11.514  0.1364 -0.0012  0.1941
26185W        W45719   2.922   6.156  14.967 -0.0296  0.1528 -0.3149
26186W        W45720  15.615  17.166  12.809  0.0659  0.0899  0.2539
26187W        W45721  13.958  10.730  14.987 -0.1349 -0.2293  0.1786
26188W        W45722   4.427  12.485  13.458  0.3232  0.1882 -0.1001
26189W        W45723   0.655  13.748   2.346 -0.0290  0.1210 -0.1525
26190W        W45724  13.614  12.491   3.146 -0.1109  0.0745  0.3398
26191W        W45725   3.008   6.545   1.169 -0.0760  0.0637 -0.1501
26192W        W45726   7.578  15.335  11.857  0.1440  0.1352  0.0238
26193W        W45727  15.640  11.292  16.176  0.0990 -0.2901 -0.1951
26194W        W45728  11.357  16.439  12.541  0.3205 -0.3350  0.3095
26195W        W45729   6.091   0.397  15.430 -0.1461  0.1831  0.1411
26196W        W45730   2.725   8.738   3.851  0.0001 -0.0768  0.0368
26197W        W45731   5.146   4.571   4.457  0.2140 -0.0933  0.1797
26198W        W45732   6.640   4.929   4.535  0.1811 -0.0569 -0.1699
26199W        W45733  12.641   4.097  13.187 -0.1895 -0.2057  0.2149
26200W        W45734   8.812  12.762  15.793 -0.0078  0.0826  0.0183
26201W        W45735  12.548   0.702   0.549  0.1223 -0.0907  0.3822
26202W        W45736  16.257   8.203   4.089  0.0330  0.2309  0.0200
26203W        W45737   6.681  17.760  16.559  0.1537  0.0528 -0.1649
26204W        W45738  11.065  13.887   2.334  0.1322  0.1279  0.0224
26205W        W45739   0.362   2.624  15.721 -0.1759 -0.1442  0.1956
26206W        W45740  15.077  16.576  14.856  0.2828 -0.0055  0.0349
26207W        W45741  16.521   7.996   2.129 -0.1578 -0.1391  0.0129
26208W        W45742  15.981   8.652  11.572  0.4006 -0.0174  0.3841
26209W        W45743   6.796   0.541   3.347 -0.0584  0.1398 -0.2047
26210W        W45744   2.084   4.938  12.725  0.0113  0.1560 -0.1721
26211W        W45745   6.348   8.035  15.698  0.1319 -0.0519  0.1436
26212W        W45746  11.634   9.954  14.750 -0.1051  0.2297  0.0089
26213W        W45747  11.416   8.585  14.215 -0.1169  0.0640  0.1717
26214W        W45748  12.092  14.374  15.646  0.0626 -0.1968 -0.2889
26215W        W45749   5.879   6.060   1.140 -0.0317 -0.0055 -0.0991
26216W        W45750  12.898   9.365  12.447 -0.1836 -0.0499 -0.1740
26217W        W45751  15.003   6.086  14.646  0.0123  0.0425  0.1785
26218W        W45752   4.384  13.401  15.415 -0.0739 -0.2129  0.3250
26219W        W45753   9.938  13.000  12.661 -0.0847  0.0650 -0.4008
26220W        W45754   8.390   7.350   3.424 -0.3144  0.2915  0.3416
26221W        W45755  11.416  12.301  16.375  0.1589 -0.0741  0.3182
26222W        W45756  15.627   4.783  13.154 -0.0867 -0.0293 -0.0449
26223W        W45757   6.667  17.044  11.966  0.0360 -0.0049  0.3332
26224W        W45758  14.603   3.567  13.580  0.1227  0.0312 -0.0960
26225W        W45759   5.268  13.065   3.390 -0.0626  0.1790 -0.3490
26226W        W45760  12.573   3.250  13.677  0.1303 -0.0553  0.1196
26227W        W45761   3.379  10.435  14.624 -0.2755  0.0412  0.2053
26228W        W45762  16.653  11.950  13.067  0.1185  0.4215 -0.0754
26229W        W45763   6.873   9.577   3.044  0.1395  0.0695 -0.1046
26230W        W45764   6.827   6.359   1.984  0.1509  0.0792 -0.0345
26231W        W45765   8.492  13.759  15.569 -0.0382 -0.1284 -0.0424
26232W        W45766   5.828   0.407  13.157  0.2066 -0.0048 -0.0773
26233W        W45767   6.447  11.448   0.441 -0.0768 -0.6349 -0.1450
26234W        W45768   7.878   3.618   1.404  0.2606  0.0501  0.0040
26235W        W45769  14.638  15.833   4.172 -0.3330 -0.0077  0.0934
26236W        W45770   0.439  12.831  14.888  0.2263  0.2670 -0.2246
26237W        W45771   9.525  12.076  12.395  0.6095  0.1221 -0.1146
26238W        W45772   3.007   3.615  16.376  0.0362 -0.2015  0.0492
26239W        W45773  13.587  15.278   1.280  0.0100  0.2294 -0.4902
26240W        W45774  13.631   4.592  13.177 -0.1615  0.0327 -0.1350
26241W        W45775   9.806  11.230   0.445 -0.2499 -0.0430 -0.2993
26242W        W45776   4.772  13.005   1.360  0.1325 -0.0188  0.0499
26243W        W45777  14.361  14.697  12.257 -0.4260  0.1905 -0.0972
26244W        W45778   6.165   7.932  14.297 -0.1732 -0.0440 -0.0852
26245W        W45779   6.446  16.326  12.633 -0.0339 -0.0450 -0.0506
26246W        W45780   1.125   7.375   0.673  0.2822  0.1909  0.0807
26247W        W45781   8.702   8.188  13.269  0.0314  0.1010 -0.0381
26248W        W45782   5.742  16.690  15.271 -0.1818  0.0258 -0.0415
26249W        W45783  12.726   7.868  16.357  0.0169 -0.0896 -0.0203
26250W        W45784   5.292   5.309   5.433  0.4456 -0.1238  0.1570
26251W        W45785  11.840   8.036   0.579 -0.0823 -0.5327 -0.0823
26252W        W45786   7.212   3.724   5.568 -0.1226 -0.1435  0.2042
26253W        W45787   5.618   0.285   1.443 -0.0831 -0.4442  0.2137
26254W        W45788  11.032  13.946  15.562  0.0205  0.1547  0.2709
26255W        W45789   5.532   4.242   1.243 -0.1322  0.1043  0.1344
26256W        W45790   5.937  13.246   0.792  0.0090 -0.1007  0.0551
26257W        W45791   1.463  14.564   3.217 -0.0944  0.2135 -0.0299
26258W        W45792  16.564   3.407   3.581  0.1421  0.0581 -0.2095
26259W        W45793   5.450  13.430  14.275 -0.1661 -0.2803  0.4053
26260W        W45794   3.716  10.345  14.972  0.1405 -0.2230  0.1707
26261W        W45795  10.638   5.659  12.022  0.2430  0.2827  0.0150
26262W        W45796   8.150  13.933  12.605  0.2464 -0.0160  0.2087
26263W        W45797  12.897   4.378   1.217  0.4060  0.3457 -0.0912
26264W        W45798   0.931  15.450   1.516  0.0969  0.2387  0.0806
26265W        W45799  14.787  17.062   4.616 -0.1237  0.1726 -0.1461
26266W        W45800   9.039  14.026  16.595 -0.2043  0.0412  0.0223
26267W        W45801  16.487   6.948   4.594  0.0377 -0.0507  0.1028
26268W        W45802   7.635   7.332  12.459 -0.0458 -0.0970 -0.2581
26269W        W45803   0.974   0.504   3.196 -0.5182  0.0587 -0.0941
26270W        W45804   5.053  17.718  12.526 -0.0347 -0.3318  0.2516
26271W        W45805  13.800  13.049   1.977  0.1844 -0.4423 -0.0440
26272W        W45806   8.220  17.712   2.143 -0.1225 -0.3106  0.0634
26273W        W45807  16.596   3.560  11.527 -0.0957  0.1821  0.1042
26274W        W45808  14.028  11.119  13.305 -0.0145 -0.3541 -0.2116
26275W        W45809  12.883   0.065  15.635  0.1089 -0.0191  0.2710
26276W        W45810   6.711   4.617   1.285  0.1052 -0.1419  0.1719
26277W        W45811   1.274   5.316   1.063  0.1022 -0.1410 -0.3430
26278W        W45812   7.955   0.673  16.644 -0.2740  0.0547 -0.0019
26279W        W45813  12.270   4.642  13.319 -0.3680  0.2169  0.0440
26280W        W45814   5.532  16.293  14.890 -0.1099 -0.1834  0.0415
26281W        W45815   4.563   0.343  16.464  0.3407  0.1961 -0.0898
26282W        W45816  16.243   8.075  11.434 -0.0414 -0.1547 -0.1923
26283W        W45817   4.947  10.247   4.742  0.0722  0.0865  0.1608
26284W        W45818   2.284   4.036   3.984  0.1309  0.1063  0.1926
26285W        W45819  12.616   4.828   3.858 -0.0682 -0.1323 -0.1847
26286W        W45820   5.623  10.324  15.790 -0.1465 -0.0306  0.1654
26287W        W45821  16.736   3.809   3.829  0.2028 -0.2101  0.0787
26288W        W45822   7.144  10.449   2.575  0.0039 -0.2388 -0.0555
26289W        W45823   7.154  17.144  15.214 -0.0034  0.2259  0.2380
26290W        W45824  10.059   8.437  12.063 -0.0767 -0.0379  0.3228
26291W        W45825  16.648   1.035   2.502 -0.1304 -0.2168 -0.2172
26292W        W45826   2.783  15.603   4.745  0.0889  0.0370  0.0606
26293W        W45827  17.878   1.138  14.076 -0.0381 -0.3418  0.0227
26294W        W45828  15.452  13.477  15.964 -0.0687 -0.1359 -0.0711
26295W        W45829   1.483  15.403   1.442  0.0719  0.2181 -0.1466
26296W        W45830  17.860  10.710  13.800 -0.0372 -0.3204 -0.0725
26297W        W45831  17.371   1.074  16.500  0.2846  0.1444  0.2586
26298W        W45832  12.521   1.067   0.914 -0.2085 -0.2101 -0.2707
26299W        W45833   2.150   8.461  11.771  0.0911  0.2247 -0.0242
26300W        W45834  11.733  15.935   5.069  0.1174  0.2968  0.2726
26301W        W45835   7.492  11.620   1.973 -0.2935 -0.0983  0.0405
26302W        W45836  11.687  15.896   5.623  0.4359  0.0195 -0.1324
26303W        W45837  11.526   0.490  15.478 -0.1973 -0.0187  0.2106
26304W        W45838   9.590  13.326  12.908  0.1214 -0.1242 -0.1840
26305W        W45839  14.901  17.420  15.243 -0.2964  0.0920 -0.1072
26306W        W45840   0.182   6.308  15.024 -0.4509 -0.1100  0.0809
26307W        W45841  11.585   9.992   2.226 -0.1963 -0.0501 -0.2608
26308W        W45842   0.385  10.580   4.710  0.1609  0.0148  0.0229
26309W        W45843   0.438  12.091  12.168 -0.0034 -0.0661 -0.1287
26310W        W45844   6.187  16.328   3.034  0.0984  0.0258  0.0084
26311W        W45845   5.595  16.464  12.681  0.3062 -0.1520  0.0035
26312W        W45846   2.354  14.965  12.933  0.1008 -0.3646 -0.1546
26313W        W45847  10.236   4.862  12.473  0.1862 -0.3326 -0.0603
26314W        W45848   9.135  11.638  15.122  0.1880  0.1994  0.3689
26315W        W45849  11.446   0.558  13.532  0.0725 -0.3843  0.1480
26316W        W45850  13.076   5.782   4.218 -0.1006  0.1378  0.0902
26317W        W45851  12.218  13.185  12.643 -0.1385  0.3126  0.1174
26318W        W45852   7.965   5.957  14.662  0.0236 -0.0632 -0.2083
26319W        W45853   2.858   9.302  15.886 -0.0300  0.0828  0.0769
26320W        W45854   5.937  14.681   0.860  0.0170  0.0361 -0.2465
26321W        W45855  11.985   1.750  14.113  0.3090 -0.0074  0.1161
26322W        W45856   0.560   3.715  15.667  0.0484  0.0993  0.1035
26323W        W45857   2.873   4.292   5.077  0.0884 -0.1745  0.0090
26324W        W45858  15.800  14.311  16.345  0.0401 -0.1289  0.1410
26325W        W45859   0.285   3.624   1.541  0.0060  0.0637  0.1239
26326W        W45860  15.689   9.232   4.176  0.1831  0.0133  0.0200
26327W        W45861  11.676  14.990  13.666 -0.2691 -0.0660  0.1521
26328W        W45862   7.669   5.478  15.197 -0.0259 -0.1323  0.0238
26329W        W45863   6.576   0.714   5.402 -0.2306 -0.2119  0.0775
26330W        W45864  12.881  17.486   0.311 -0.1248  0.1104  0.1044
26331W        W45865  11.091   5.329   3.346 -0.2953 -0.0359 -0.0746
26332W        W45866   8.799  11.305   2.425 -0.0041 -0.0102 -0.3151
26333W        W45867  16.283   2.430   2.008 -0.0483 -0.1063  0.3063
26334W        W45868   6.729   3.253   1.097  0.0928 -0.4377 -0.4543
26335W        W45869   1.759  14.647  16.021  0.1269 -0.4176 -0.3449
26336W        W45870   9.607   6.564  14.147 -0.1701 -0.0242  0.0199
26337W        W45871  10.104  13.412   4.325 -0.1416 -0.2066  0.0764
26338W        W45872   2.002   6.570   4.289 -0.0838  0.1003  0.5190
26339W        W45873  14.225   1.000   2.912  0.0363  0.0916  0.1606
26340W        W45874  16.993  16.723  12.616 -0.0186 -0.0590 -0.1076
26341W        W45875  10.279  14.272  16.067  0.0870  0.0103  0.3234
26342W        W45876  10.156  11.394   0.881 -0.2350  0.1608  0.1111
26343W        W45877   7.327   9.375   2.887  0.3971 -0.1428  0.0929
26344W        W45878   9.465   0.735   2.171 -0.3164 -0.0146 -0.0816
26345W        W45879   7.429   4.358  16.045  0.1706 -0.0060 -0.0852
26346W        W45880  11.389  14.198   4.739 -0.3044 -0.4467 -0.1624
26347W        W45881   9.695   7.308   3.602 -0.4397 -0.1260  0.1214
26348W        W45882   7.895   0.725  11.605  0.0770  0.1795 -0.4068
26349W        W45883   8.627   1.320  16.323 -0.0876 -0.1545  0.0027
26350W        W45884   0.957   8.467  15.772 -0.0236 -0.0160 -0.0628
26351W        W45885  16.681  15.344  15.687  0.1218  0.1681  0.0401
26352W        W45886   6.066   4.550   1.880  0.1777  0.0319  0.1011
26353W        W45887  13.571   5.966   2.864  0.0388 -0.1195 -0.0992
26354W        W45888  14.174   0.447  14.953  0.2584  0.1778 -0.3741
26355W        W45889   3.642   2.928   4.273  0.0325  0.1396 -0.2683
26356W        W45890   9.386   9.528   2.723 -0.2512  0.0433  0.0303
26357W        W45891  10.450   4.334  13.711 -0.1923  0.2718  0.3573
26358W        W45892   6.923  11.318  15.853 -0.2095  0.2845  0.2585
26359W        W45893   5.451   6.060   1.537  0.1751  0.2543 -0.2350
26360W        W45894  12.238   5.212   2.711 -0.2338 -0.3469  0.0695
26361W        W45895   5.577  11.973  12.429 -0.0137  0.0972 -0.2373
26362W        W45896   0.573  10.068  12.696 -0.2199  0.1538 -0.0698
26363W        W45897   7.328   4.854  11.719 -0.1109  0.3353  0.3583
26364W        W45898   9.624   9.621  13.207  0.1407 -0.0592 -0.0461
26365W        W45899   7.053  15.686  14.530  0.0840 -0.1659  0.0630
26366W        W45900   8.497   1.210  14.534 -0.0095  0.0761 -0.0128
26367W        W45901   0.158   7.504  13.914  0.2183  0.0517 -0.0388
26368W        W45902  17.574   7.685  15.391  0.2063 -0.0386 -0.2339
26369W        W45903  10.875  10.183   0.952 -0.1176 -0.2909 -0.2281
26370W        W45904   9.253  13.530  13.458 -0.0262 -0.0159 -0.0388
26371W        W45905   7.269   1.911  14.216 -0.1036 -0.1371  0.0509
26372W        W45906  14.349   0.213  15.467  0.1761  0.0883 -0.1746
26373W        W45907   2.851  16.711  15.881  0.0852  0.0264  0.5213
26374W        W45908   4.741   2.827  15.157 -0.0057  0.1619 -0.3865
26375W        W45909  17.588   3.491  16.729 -0.2645  0.2353  0.0309
26376W        W45910   4.619  15.013   4.768  0.1283 -0.2010 -0.0984
26377W        W45911   8.770   7.691   2.934 -0.0418 -0.0837 -0.4555
26378W        W45912   8.241   8.191  14.223  0.0092  0.0835 -0.1589
26379W        W45913  16.095   1.423  13.402  0.0985 -0.0740 -0.0785
26380W        W45914  16.539   7.385  15.813  0.2047  0.0391  0.0307
26381W        W45915  10.507  10.943   1.639  0.2776 -0.0059 -0.0737
26382W        W45916   6.077   1.528  12.027 -0.1032 -0.0966  0.2611
26383W        W45917   5.379  12.440   2.367 -0.2398  0.1729 -0.0373
26384W        W45918  10.832   9.081  15.386 -0.2291 -0.2011 -0.1658
26385W        W45919  11.358   1.528   1.375  0.0238 -0.3282 -0.2298
26386W        W45920   8.731  14.825   5.004 -0.0298 -0.2391  0.0982
26387W        W45921  16.827   6.945   1.452 -0.3055  0.2135  0.4487
26388W        W45922   9.477   6.625  16.064  0.0012 -0.0444 -0.0185
26389W        W45923   6.263   6.275   2.547  0.0700 -0.0721 -0.1303
26390W        W45924   1.494  12.148  14.100  0.0924  0.1357 -0.3249
26391W        W45925  15.228  10.877  12.072  0.0204 -0.0255  0.2001
26392W        W45926   2.018  10.944   0.110 -0.0116  0.4678 -0.0740
26393W        W45927   0.260  12.626   4.352  0.0297  0.1892 -0.1545
26394W        W45928   2.634  15.339  16.742  0.0871 -0.3323 -0.0191
26395W        W45929   3.736  14.310  13.721  0.1365 -0.0971  0.4390
26396W        W45930   3.714   4.586  15.340  0.1031 -0.2231  0.2315
26397W        W45931   8.095   4.244   0.026 -0.2371 -0.1716  0.0906
26398W        W45932   2.638   1.332   1.919 -0.0313  0.2557 -0.0390
26399W        W45933   7.468   9.502   3.974  0.4146  0.0917  0.0769
26400W        W45934  12.346   4.236   2.014  0.3365 -0.3356  0.1156
26401W        W45935   9.861   9.514   1.454 -0.0795 -0.0441 -0.1908
26402W        W45936  11.230   6.726   1.083  0.1536 -0.0328  0.0987
26403W        W45937  15.324  16.018   1.214 -0.0527 -0.1562  0.2134
26404W        W45938  14.957  15.333   0.882  0.0008 -0.0390 -0.6283
26405W        W45939  14.501  16.505  14.322 -0.0277 -0.1571  0.0180
26406W        W45940  17.453   1.964   2.992 -0.2901  0.1385 -0.1879
26407W        W45941   2.207  15.836  14.282 -0.1573  0.1349  0.4086
26408W        W45942   3.775  13.004  13.699  0.1275 -0.0447 -0.1213
26409W        W45943   7.937   4.067  14.949  0.1515 -0.1753 -0.0171
26410W        W45944   2.943  11.056  16.721 -0.2436 -0.1045  0.1052
26411W        W45945   2.378   3.170  16.144 -0.3719  0.0546 -0.1013
26412W        W45946   0.384   4.053   0.269 -0.0283 -0.1280  0.1613
26413W        W45947   2.501  12.948  14.164 -0.5117  0.0943  0.2234
26414W        W45948   4.367   2.709  15.570 -0.1555 -0.2078  0.0862
26415W        W45949   3.314  13.281  16.637 -0.0423 -0.0750 -0.0202
26416W        W45950  12.128  17.882   3.421  0.0582  0.3100  0.2891
26417W        W45951   4.574  16.170   0.830 -0.0634  0.2610 -0.1397
26418W        W45952  16.954  17.027  14.317  0.1218 -0.2620  0.1666
26419W        W45953   1.040  16.761  16.378  0.1758 -0.0112  0.2130
26420W        W45954  14.006   0.587  11.859  0.1305  0.3037  0.3120
26421W        W45955  11.794   8.272   4.288 -0.2324  0.0318  0.2451
26422W        W45956   4.824   5.684   2.886 -0.1093 -0.3497 -0.1337
26423W        W45957  13.598   5.935   1.325  0.0191 -0.0844 -0.0901
26424W        W45958  16.685   9.711   0.059 -0.3566  0.1224  0.0014
26425W        W45959   4.234   1.264  16.516  0.1078 -0.1785  0.1578
26426W        W45960  16.204   9.139   3.911  0.1128 -0.0323  0.2432
26427W        W45961  10.620  17.076   1.239  0.3050 -0.1778 -0.1094
26428W        W45962   0.307   5.905  13.709 -0.3280 -0.2969  0.0101
26429W        W45963  11.053   9.496   0.665  0.2091  0.0252 -0.1732
26430W        W45964   1.701   1.734   3.078 -0.1494 -0.0120 -0.0199
26431W        W45965  15.128   4.585   3.179  0.3063 -0.0765  0.2463
26432W        W45966   8.693   1.289  12.785 -0.1075  0.4167  0.0240
26433W        W45967   7.689   4.529   5.263 -0.0121  0.0663  0.1865
26434W        W45968   3.316   1.133  14.922  0.1222 -0.0379 -0.2795
26435W        W45969   3.724  13.010   1.226  0.0252 -0.0746  0.3368
26436W        W45970   7.876   3.734   3.591  0.0994  0.1607  0.0083
26437W        W45971  16.092   7.398  13.235 -0.3348  0.0663 -0.2517
26438W        W45972   2.308  17.576  13.579  0.0971 -0.3841 -0.1088
26439W        W45973   9.690   8.062  11.300  0.3543 -0.1946  0.2046
26440W        W45974   2.368  11.703  16.104 -0.3017  0.0768 -0.1948
26441W        W45975  12.159  14.152  14.821 -0.2321 -0.0704  0.3692
26442W        W45976   2.023   6.167   0.412  0.3478 -0.1001  0.2029
26443W        W45977   5.519  17.818   0.800  0.0547  0.0284  0.1975
26444W        W45978  17.199  15.031  15.196  0.1004  0.0533 -0.0835
26445W        W45979  10.639  16.647  16.053  0.0213  0.0578  0.1147
26446W        W45980  16.937   1.685  12.760  0.0448  0.2827  0.1459
26447W        W45981  17.047  15.086   1.383  0.1807  0.2428  0.0146
26448W        W45982   6.571   3.455  13.803 -0.2351  0.1274  0.1847
26449W        W45983  17.900   6.780   2.919  0.0408  0.2805 -0.1159
26450W        W45984  11.891  12.479  16.685  0.0941 -0.1546 -0.0575
26451W        W45985  12.550  17.807   0.165  0.1311 -0.4473  0.3639
26452W        W45986   2.498  13.730  13.019 -0.1476  0.1661  0.2038
26453W        W45987   8.155  12.899  16.659 -0.0336 -0.3327  0.1066
26454W        W45988  14.196   7.857   0.662 -0.0121  0.0426 -0.1767
26455W        W45989  10.318  12.709  16.252  0.0994  0.3079 -0.0125
26456W        W45990   3.146  16.392   0.062 -0.0972  0.0654 -0.3814
26457W        W45991  10.047   7.524   4.128  0.0595 -0.0394  0.0426
26458W        W45992   4.985  16.612   4.343 -0.0474 -0.1123  0.1232
26459W        W45993   6.064   1.880  11.662  0.2193  0.1018  0.2056
26460W        W45994  14.155  12.173   0.546 -0.2888 -0.1272  0.1076
26461W        W45995   8.112   7.475   5.230 -0.2580 -0.2520 -0.0113
26462W        W45996   1.747  11.321  13.847 -0.2988 -0.6177 -0.0352
26463W        W45997  10.667   4.909  16.723  0.0077 -0.0375  0.0914
26464W        W45998   2.070  15.043  11.897 -0.2073  0.1367  0.0037
26465W        W45999  11.485   4.645  13.788 -0.3239  0.1472 -0.0755
26466W        W46000   2.394  10.816  16.489  0.1115  0.3196  0.2340
26467W        W46001   0.945   9.723   3.551  0.0961  0.0268  0.0130
26468W        W46002   3.293  14.056   1.850  0.0123 -0.2350  0.0525
26469W        W46003  13.442  13.534  16.240  0.1561  0.1852  0.2927
26470W        W46004   5.494   5.299  12.083  0.1337  0.1654 -0.0351
26471W        W46005   0.818  12.821  12.431 -0.1108 -0.3381 -0.2315
26472W        W46006  13.387   1.638   4.852 -0.1360  0.0705  0.2585
26473W        W46007  11.448  12.549   3.933  0.2480 -0.0738 -0.1691
26474W        W46008   0.440  17.208  12.224  0.0544  0.1850 -0.0514
26475W        W46009   5.529   6.898   6.004  0.1197  0.2538 -0.2285
26476W        W46010  17.117   2.443   4.876 -0.3288  0.2294  0.2261
26477W        W46011   0.196   8.847   3.314 -0.0952 -0.1153 -0.1841
26478W        W46012   3.189  12.876   4.393 -0.1022  0.1294 -0.1394
26479W        W46013  10.187   2.705  16.417 -0.2879 -0.0810  0.0157
26480W        W46014   0.378   6.130   4.503  0.1721 -0.0849 -0.1210
26481W        W46015  12.288   2.929  14.510 -0.1246  0.3381  0.0905
26482W        W46016   6.624   2.088  14.858 -0.3698  0.1441  0.0266
26483W        W46017  10.728  15.422  12.318 -0.0163  0.4453 -0.3869
26484W        W46018  12.881   5.638  14.400 -0.0348 -0.1096  0.5324
26485W        W46019  17.023   7.726   5.194  0.1753  0.2238  0.2352
26486W        W46020  17.487   8.529  12.251  0.0809  0.0546 -0.4484
26487W        W46021   0.425   7.975   3.555  0.0602 -0.1718 -0.1029
26488W        W46022   2.027   2.050  12.221 -0.0519  0.0386 -0.1455
26489W        W46023   3.099   0.453  14.388 -0.1888 -0.1931 -0.1137
26490W        W46024  16.637   3.408  14.746 -0.0142  0.0057 -0.1220
26491W        W46025   0.532  11.583  13.071 -0.0028  0.0289  0.0377
26492W        W46026   3.116  13.294   4.610  0.0173 -0.2166  0.0770
26493W        W46027   6.925  14.401  15.077 -0.2348  0.2037 -0.2580
26494W        W46028   6.597   1.448  14.191  0.3806  0.1261 -0.0460
26495W        W46029  17.853  13.673   0.270  0.4646 -0.0882  0.1636
26496W        W46030  10.990  15.201  15.365  0.1427 -0.2582  0.0349
26497W        W46031   9.817  13.590   2.227 -0.2514  0.3452  0.0999
26498W        W46032   4.595   2.266  15.628 -0.2475 -0.1167 -0.3649
26499W        W46033   6.334  11.287   3.016  0.0464  0.2380 -0.4477
26500W        W46034  10.355  17.080   3.661 -0.1344 -0.0778  0.4653
26501W        W46035   7.907  12.314  14.805 -0.1379 -0.0608  0.1355
26502W        W46036  13.597   7.202   0.589 -0.2809 -0.1448 -0.2283
26503W        W46037  14.827   8.597   2.401  0.0475 -0.2220  0.0399
26504W        W46038   8.064   3.294   3.350  0.0208  0.1844 -0.2013
26505W        W46039   4.295   8.290  14.719  0.1021  0.0991  0.5740
26506W        W46040   3.635   3.422  13.293  0.1051 -0.2955 -0.0452
26507W        W46041   3.998  14.229  14.331 -0.0717  0.2377  0.0454
26508W        W46042   2.703   4.386   1.365  0.0062 -0.0924  0.0924
26509W        W46043  17.825   7.842   0.473 -0.1828 -0.0780  0.3047
26510W        W46044   6.720   9.688  12.515  0.4846 -0.0776  0.3285
26511W        W46045   9.472   4.662   5.578  0.0310  0.1006  0.0589
26512W        W46046   7.691   9.281  15.551 -0.2075 -0.1724  0.1956
26513W        W46047   3.181   4.626  15.575 -0.1376 -0.2609  0.0669
26514W        W46048  14.612  11.851   0.298 -0.0895 -0.0384  0.3931
26515W        W46049  15.775  16.130   0.909 -0.1319 -0.0085 -0.2025
26516W        W46050   6.939   1.963   5.296 -0.0457  0.0017 -0.0729
26517W        W46051  16.955  17.892  12.254 -0.0170 -0.0578  0.2471
26518W        W46052  15.371  15.544   1.021  0.0004  0.1575  0.1269
26519W        W46053   8.541   0.271  12.630 -0.4187 -0.3532 -0.0924
26520W        W46054   4.125  17.105  12.984  0.2581 -0.1482 -0.1747
26521W        W46055   3.923  12.875   0.712 -0.1296 -0.0726  0.0466
26522W        W46056   6.710   9.166  12.864 -0.2851  0.0778 -0.0952
26523W        W46057   7.318  16.846   2.322  0.2721  0.3317 -0.0541
26524W        W46058  16.546   7.407   3.093  0.2128  0.0409 -0.1578
26525W        W46059   4.998   3.698  12.395  0.0904  0.2127  0.0138
26526W        W46060  13.645   8.488  12.863 -0.0863  0.0449  0.4063
26527W        W46061   7.500   9.722  12.994  0.3595 -0.3496  0.3116
26528W        W46062   6.666   5.942  16.132  0.3205 -0.0259 -0.4872
26529W        W46063   3.052   1.940   0.586  0.1846 -0.0824 -0.0904
26530W        W46064  10.392  13.744  13.325 -0.1104  0.1268  0.1943
26531W        W46065  17.480  11.243   0.737  0.2698  0.1727 -0.2840
26532W        W46066  17.402   6.051   3.212 -0.4122 -0.0896 -0.0207
26533W        W46067   8.394   0.043   3.825 -0.0655 -0.0707  0.2516
26534W        W46068   0.211   4.734  14.363  0.3202  0.0289 -0.0126
26535W        W46069  12.818   4.419  14.286  0.0289  0.0820  0.1807
26536W        W46070   4.781   0.301  13.320 -0.0672  0.1068  0.2851
26537W        W46071   3.530   3.195  12.275 -0.0803  0.0296  0.2650
26538W        W46072  10.964  10.047  12.077 -0.3649  0.1347  0.1919
26539W        W46073   6.802  10.369  15.164 -0.1153  0.0381  0.0833
26540W        W46074  10.789  12.791  15.984 -0.0864  0.0784  0.3017
26541W        W46075   9.875  15.994   3.226 -0.0807 -0.4348  0.0690
26542W        W46076   8.481   1.830   1.727 -0.0517 -0.1892 -0.1295
26543W        W46077   8.971  15.944   4.213 -0.0005 -0.0851 -0.0482
26544W        W46078  11.280   2.396  16.500  0.0230 -0.3606 -0.0323
26545W        W46079   4.127   9.221   0.248 -0.0455 -0.0715 -0.0704
26546W        W46080  16.754  15.082  16.738  0.1705 -0.0850 -0.5207
26547W        W46081  15.577   5.424   1.739 -0.1062  0.0449 -0.2193
26548W        W46082   0.997   5.400  16.618 -0.0727  0.0007 -0.0401
26549W        W46083   8.876  15.909  12.231 -0.0762  0.0698  0.0326
26550W        W46084   5.115  15.338   1.764 -0.1577 -0.1115  0.1218
26551W        W46085   6.899   1.326  15.778 -0.2757 -0.2203  0.1404
26552W        W46086   3.314  15.190  13.762 -0.0339  0.0950 -0.0096
26553W        W46087  15.270   4.369   4.656 -0.1949  0.0626 -0.3696
26554W        W46088   3.408   5.844  11.601 -0.2902 -0.1228  0.1635
26555W        W46089  14.147   1.093   3.445 -0.0874  0.1520  0.5108
26556W        W46090   6.220  10.248  16.631 -0.0114 -0.1471  0.1274
26557W        W46091   8.440   5.838   4.495 -0.1030 -0.2288  0.1478
26558W        W46092   9.768   3.037   2.012  0.1054 -0.1971  0.0485
26559W        W46093   2.967   7.750  15.746 -0.0508  0.1131 -0.1545
26560W        W46094  11.926  17.894  15.745  0.0358 -0.1402 -0.0568
26561W        W46095   2.521   9.159   3.699 -0.0018 -0.1851  0.2408
26562W        W46096  10.453  16.159  13.072  0.2303 -0.1598  0.2309
26563W        W46097  11.478   6.799  12.189  0.0338  0.0243 -0.0928
26564W        W46098  12.725   4.762  13.122 -0.0264 -0.3458 -0.0746
26565W        W46099   1.685  17.376  13.461 -0.2295 -0.2748 -0.0275
26566W        W46100   8.800   4.194  13.953 -0.4002  0.1639 -0.0206
26567W        W46101   7.642   8.482   3.754 -0.0856 -0.2448 -0.0227
26568W        W46102  12.032  15.969  14.975  0.0422  0.2248  0.0652
26569W        W46103  15.776   9.215  15.311  0.2432 -0.2668  0.2340
26570W        W46104   7.403  15.672   3.454 -0.1070  0.0327  0.1326
26571W        W46105   0.631  16.469   2.710  0.1347 -0.0510  0.0492
26572W        W46106  13.003  11.282   3.506  0.1429 -0.0875  0.0725
26573W        W46107   0.786  15.733   3.698  0.3474  0.0007 -0.1255
26574W        W46108  15.316  15.455  15.902 -0.2534 -0.1280 -0.0830
26575W        W46109   2.019   4.185  13.203  0.0241 -0.0349  0.0607
26576W        W46110   6.027  12.686   1.497  0.0752  0.0278  0.1909
26577W        W46111   7.373   8.450   0.977  0.3959  0.1808  0.0106
26578W        W46112   9.858  17.408   1.714 -0.1963  0.0816  0.1544
26579W        W46113   4.122   0.022   5.422  0.3661 -0.3407  0.0310
26580W        W46114  10.469  12.369   1.884  0.3070 -0.0125  0.1328
26581W        W46115   4.129  12.609  15.448 -0.5038 -0.2234  0.0501
26582W        W46116   3.422   0.877   2.863  0.3137  0.0997 -0.1619
26583W        W46117   0.394  10.572  12.474  0.0953  0.0557 -0.0294
26584W        W46118   4.307  10.889   2.028  0.1350 -0.1103 -0.0460
26585W        W46119   9.099  11.100  12.641  0.2285  0.1715  0.3158
26586W        W46120   2.632  15.938   2.477  0.0539 -0.0868  0.2550
26587W        W46121  17.860   0.289  16.007 -0.1203  0.0330 -0.4663
26588W        W46122  15.868   6.506  14.662 -0.1580 -0.0132 -0.0043
26589W        W46123  12.887  13.777  16.586 -0.0807 -0.0381 -0.1320
26590W        W46124  14.828   9.301  15.281  0.0618  0.0252  0.1048
26591W        W46125  13.341  17.330  16.196 -0.1669 -0.0660 -0.0377
26592W        W46126  15.167   1.480   3.548 -0.0901  0.4759  0.0077
26593W        W46127   9.079   1.261   3.190  0.0285 -0.1776  0.0916
26594W        W46128   3.018   3.173   2.444  0.3071 -0.1037 -0.1228
26595W        W46129  17.189   8.849   1.755  0.0046  0.1303  0.1116
26596W        W46130   1.644  11.475   1.307  0.4266  0.1880  0.1942
26597W        W46131  15.780   0.982  13.451  0.2844  0.0645  0.1279
26598W        W46132  12.706   1.196   0.366 -0.0949 -0.2230 -0.2044
26599W        W46133   0.290   9.935  16.254  0.2637 -0.0184  0.0864
26600W        W46134   6.012  15.430  13.876  0.2220  0.1663  0.0485
26601W        W46135   4.026  15.392   3.324 -0.1553  0.0879 -0.1637
26602W        W46136  10.181   4.783   3.834 -0.0083  0.0725 -0.2152
26603W        W46137   6.123  14.418   1.826  0.4253 -0.0765  0.1146
26604W        W46138   3.175  12.208   4.805  0.3999  0.1986  0.3276
26605W        W46139   5.066  13.695   1.460 -0.0456  0.1128  0.0797
26606W        W46140   8.745   7.509   2.435 -0.2165 -0.3004 -0.1964
26607W        W46141  10.621  17.827   3.393  0.1737 -0.1647 -0.2221
26608W        W46142   8.115  12.656   2.608  0.0687 -0.0769  0.1635
26609W        W46143   8.486  10.950   0.139  0.0051 -0.1485 -0.1118
26610W        W46144  10.603   3.821   1.081  0.0725 -0.0300 -0.1262
26611W        W46145  15.010   3.571   1.856 -0.1076 -0.1868 -0.1773
26612W        W46146   1.347  11.898  15.678 -0.2507  0.1920 -0.0938
26613W        W46147  13.256  15.031   3.249  0.1505  0.0000 -0.0071
26614W        W46148   7.841  15.438   1.160 -0.0929  0.0632 -0.2743
26615W        W46149   1.155  15.954   2.853  0.1986  0.0032  0.1605
26616W        W46150   9.562  15.919   0.555  0.0077 -0.2096 -0.4114
26617W        W46151  13.130   0.663   3.019 -0.3075 -0.1988  0.0845
26618W        W46152   8.933  10.502  15.859  0.1213 -0.0144 -0.1237
26619W        W46153   1.267  13.730   4.623  0.1358  0.1661  0.0939
26620W        W46154   7.176  13.850   0.649 -0.3389 -0.0435  0.1586
26621W        W46155   9.299   2.813   2.117 -0.2879  0.0156  0.0699
26622W        W46156   0.853   8.932  12.843 -0.2409 -0.1539 -0.1519
26623W        W46157  14.617   3.481   0.306  0.1429 -0.2618 -0.1853
26624W        W46158   5.614  15.730   3.180 -0.0309 -0.0036  0.2033
26625W        W46159  11.054   6.019   1.817  0.1935  0.0267  0.2195
26626W        W46160   9.971   0.810  11.975 -0.1514 -0.1023  0.1059
26627W        W46161   0.934   3.130  15.339 -0.3241  0.0346 -0.1706
26628W        W46162   3.677  16.096  15.345  0.2630  0.3183  0.0938
26629W        W46163  10.774   2.437  14.054 -0.3285 -0.1197  0.2223
26630W        W46164  12.783   8.654   3.445  0.1813  0.2718  0.0170
26631W        W46165  10.674   5.032  16.230  0.1541 -0.1141 -0.0457
26632W        W46166  17.745   7.730   3.971 -0.0483  0.1637 -0.0551
26633W        W46167   4.968  13.194  13.926 -0.0341  0.1288 -0.0117
26634W        W46168  13.461   5.349   0.377  0.1654  0.0729  0.0017
26635W        W46169   4.363   5.121   1.975  0.0881  0.0499  0.2776
26636W        W46170  11.051  17.415   2.149 -0.2683  0.2272 -0.2646
26637W        W46171  17.235   0.138  16.539 -0.1069  0.0910 -0.0095
26638W        W46172  13.736   7.436  12.869 -0.0380  0.0311  0.2330
26639W        W46173  13.993   4.158   4.824 -0.2760 -0.1213  0.2993
26640W        W46174   8.634  10.848   2.075  0.1070  0.0436 -0.0366
26641W        W46175  17.686   7.390   0.317 -0.0475  0.2634  0.1931
26642W        W46176  14.444   5.532   2.195 -0.3321  0.0390  0.2015
26643W        W46177   8.037   8.381  12.757 -0.0585  0.0540 -0.2496
26644W        W46178   9.769  10.679  12.067  0.4489  0.0414  0.1699
26645W        W46179   8.401  11.829   1.960 -0.0502 -0.1546 -0.0426
26646W        W46180   2.046   5.029  12.224  0.0552  0.0291 -0.1010
26647W        W46181   9.773   1.827   0.074  0.0501  0.3178  0.1288
26648W        W46182   6.723  12.026  12.793  0.1833  0.1415  0.0161
26649W        W46183  13.784   8.955   3.484 -0.4014 -0.0141 -0.0941
26650W        W46184   3.947  15.055   1.546 -0.1903 -0.1719  0.0159
26651W        W46185  17.340  13.382  13.953  0.1297 -0.0951 -0.2355
26652W        W46186   9.503   3.917   0.405  0.1072 -0.0631  0.2141
26653W        W46187   5.698  14.359  14.486  0.1755 -0.2940 -0.1986
26654W        W46188  12.702   9.483   3.969  0.3450  0.0129 -0.3355
26655W        W46189   5.339  13.974   0.683  0.2569  0.0866  0.0057
26656W        W46190   0.802   0.866   0.298 -0.0463  0.1919  0.2549
26657W        W46191   8.855  10.393   0.936 -0.0318  0.0020  0.0295
26658W        W46192  17.430  10.720   0.814  0.1207  0.0424  0.3273
26659W        W46193   7.310   1.547  16.537 -0.1819  0.1218 -0.2723
26660W        W46194  14.362  13.615  14.427 -0.0940  0.1114  0.2790
26661W        W46195   1.344  13.397  15.286  0.2585 -0.0154 -0.2207
26662W        W46196   2.682   8.258   0.541  0.1183  0.0112  0.1085
26663W        W46197  10.449  16.888   0.273  0.1240  0.3107  0.0748
26664W        W46198   5.053  16.182  14.956 -0.0771 -0.2798 -0.2191
26665W        W46199   0.047  12.688   2.954  0.0962 -0.0542 -0.0326
26666W        W46200  10.539  11.097  14.601  0.0877  0.1688 -0.0518
26667W        W46201  16.022   3.414   0.673 -0.0291  0.1725 -0.2170
26668W        W46202   8.746  16.949  16.273  0.0116 -0.0441 -0.0794
26669W        W46203   2.851   4.229  14.227 -0.1984 -0.0648 -0.1952
26670W        W46204  10.157   2.772   1.947  0.1945 -0.0728  0.2111
26671W        W46205   8.394   7.333  16.463 -0.3183 -0.0884  0.0874
26672W        W46206   5.451  16.378   3.603  0.2425  0.1507  0.1561
26673W        W46207  13.685  10.397   1.637  0.1467  0.2140  0.1610
26674W        W46208   2.311   9.018  14.334 -0.1532 -0.0978  0.0884
26675W        W46209   5.958   1.626  16.398 -0.0704  0.0355 -0.1703
26676W        W46210  17.274  10.260   4.620 -0.2866  0.0865  0.1024
26677W        W46211   7.572   6.884   0.739  0.0780  0.0761  0.1232
26678W        W46212  11.870   4.673  12.307 -0.0780  0.2651  0.2456
26679W        W46213   5.297  10.957   2.151 -0.0606  0.2445  0.0487
26680W        W46214  17.539  15.419  14.959  0.0932  0.2322 -0.1956
26681W        W46215  10.941  16.175  15.955  0.1476 -0.2063  0.2697
26682W        W46216  14.681   3.151   1.783  0.2590 -0.0758  0.2464
26683W        W46217  12.697   5.526   0.581 -0.1646  0.2515  0.2890
26684W        W46218   0.611   2.350   3.959 -0.0041  0.1491  0.0187
26685W        W46219   9.799  12.816  16.180 -0.0815 -0.2222  0.0865
26686W        W46220  12.331  12.861   3.488 -0.0505  0.2366  0.3582
26687W        W46221   4.230   9.746  14.594  0.3246  0.2468  0.4660
26688W        W46222  16.771   6.158   0.292 -0.1955  0.0548 -0.0964
26689W        W46223   6.660  17.893  13.452  0.1522  0.0530  0.0327
26690W        W46224  15.459   1.868   3.834  0.2920  0.0160 -0.2484
26691W        W46225  12.211  10.801  16.228 -0.4263 -0.1231  0.0378
26692W        W46226  10.734  14.102  15.903  0.1177 -0.0721  0.1394
26693W        W46227  10.755  15.067  13.332  0.0410 -0.0335  0.0717
26694W        W46228  14.873  12.923   2.630  0.0397  0.1837 -0.0069
26695W        W46229  13.810   2.201   2.641 -0.0528  0.2497  0.1156
26696W        W46230  16.953   1.747   0.482 -0.1749 -0.0541  0.1300
26697W        W46231  13.596  16.573   1.904  0.0016 -0.1640 -0.1562
26698W        W46232  15.535   8.281  14.122  0.1323  0.3221 -0.2265
26699W        W46233   5.954   7.580  14.048  0.0481  0.3057 -0.1202
26700W        W46234   6.899   6.157   3.400  0.2399  0.0390 -0.0060
26701W        W46235   7.354   6.391   3.629  0.0148 -0.0866 -0.0985
26702W        W46236   9.051   0.222  15.461 -0.0997 -0.0572  0.1194
26703W        W46237   1.258  10.011  14.374 -0.0881  0.2304 -0.0103
26704W        W46238  14.473  14.851  15.260  0.1418 -0.0736 -0.1768
26705W        W46239  13.233   2.186   2.391 -0.1217  0.2291 -0.1300
26706W        W46240  17.456  10.685   4.500 -0.0036 -0.1140 -0.1373
26707W        W46241   6.945   6.607   1.202  0.2269 -0.0975 -0.0292
26708W        W46242   4.151  13.745  16.234  0.3666 -0.0684  0.0117
26709W        W46243  11.183  14.233  16.005  0.0921  0.0406 -0.0628
26710W        W46244   8.585  11.781   3.778 -0.2019  0.2026  0.2296
26711W        W46245  12.428   4.792  15.765  0.1276 -0.1771  0.2946
26712W        W46246   0.872  13.260  15.228  0.2590  0.1235 -0.2080
26713W        W46247  14.495  10.259  14.365  0.0943  0.2207  0.0415
26714W        W46248   7.996  15.571   2.255  0.3288 -0.1575  0.1127
26715W        W46249   5.653  11.311   3.868  0.1629 -0.0431 -0.1472
26716W        W46250   8.097  15.248  12.804  0.0909  0.0082  0.0370
26717W        W46251   9.596   2.316  14.572 -0.0162  0.1467  0.1956
26718W        W46252   2.030   3.318  16.487 -0.0829  0.0103  0.0836
26719W        W46253   4.692  14.248  14.815  0.1105  0.0954 -0.0644
26720W        W46254   1.893  17.748   1.052 -0.2865 -0.3447  0.2304
26721W        W46255   2.818   0.043  14.197 -0.0507 -0.2344  0.4045
26722W        W46256  11.481   9.071  12.265 -0.1344  0.2476  0.0530
26723W        W46257   1.645   1.019   3.652  0.1830  0.0026  0.2547
26724W        W46258   9.281   5.950  14.968  0.1234  0.1461 -0.0463
26725W        W46259   6.356  13.967   1.694 -0.0236  0.0057  0.0037
26726W        W46260   2.525   6.075  12.711  0.0768 -0.1403 -0.1770
26727W        W46261  17.122   2.868   3.983  0.1738 -0.0941 -0.1370
26728W        W46262   9.737   0.590  15.122  0.0408  0.0147 -0.2343
26729W        W46263   1.694   4.661   0.170  0.0617  0.1165  0.2423
26730W        W46264   0.879   7.358   2.044 -0.0807 -0.0478 -0.1109
26731W        W46265   5.894   6.186  14.135 -0.1970 -0.0048 -0.2007
26732W        W46266   7.177   4.204  12.906 -0.2786 -0.0381  0.1246
26733W        W46267   5.635   8.273   0.892 -0.0425 -0.0600  0.3221
26734W        W46268   3.600   5.109   3.649 -0.0204 -0.2071  0.2576
26735W        W46269   0.378   4.779   0.187 -0.5721  0.0544  0.0859
26736W        W46270   3.230   3.049   5.161  0.0416 -0.0054 -0.3278
26737W        W46271  12.865  17.124  14.076  0.0431  0.1365  0.0440
26738W        W46272  16.148  15.377  14.239  0.0739  0.2446 -0.1557
26739W        W46273  11.054  12.263   4.047  0.3186  0.1422 -0.0436
26740W        W46274  14.026   2.814   4.947 -0.3941 -0.3013  0.1524
26741W        W46275  13.988  10.604  15.891  0.0317 -0.0860  0.2139
26742W        W46276   2.763   3.149   3.653  0.1531 -0.2422  0.1465
26743W        W46277  12.723  10.223  12.998  0.1631  0.2568 -0.0122
26744W        W46278   6.193   2.491  12.259 -0.1216  0.2151 -0.1074
26745W        W46279   0.311  10.429   4.191  0.0911 -0.0030 -0.0822
26746W        W46280  10.210   9.419  14.806 -0.2257 -0.0704  0.0843
26747W        W46281   1.035   8.660   0.581 -0.0566 -0.0957 -0.0148
26748W        W46282   8.511  16.328   3.175 -0.4229 -0.0078 -0.0686
26749W        W46283   9.517   5.983   4.345  0.1907  0.1539  0.1776
26750W        W46284   1.410   4.253   1.680 -0.1313 -0.3127  0.4224
26751W        W46285   2.938  11.965   1.487  0.3387 -0.0963  0.3159
26752W        W46286  13.928  12.828   2.478  0.0322  0.4186  0.3179
26753W        W46287   5.510  14.045   4.484 -0.2564  0.1022  0.1712
26754W        W46288   0.201  14.309  12.565 -0.0868  0.0920 -0.0497
26755W        W46289  17.007  12.190  13.430  0.0273  0.1736  0.2195
26756W        W46290  17.161   2.611  13.692  0.1084  0.2302 -0.1508
26757W        W46291  16.943  16.282  13.759 -0.0559  0.4270  0.0048
26758W        W46292   9.897  14.966  12.039  0.1393 -0.2081 -0.0314
26759W        W46293   7.686   2.000   2.916 -0.0685 -0.0221 -0.3588
26760W        W46294   9.554   4.405  15.795 -0.2577 -0.2719  0.0116
26761W        W46295   3.184   9.624   4.140 -0.0604 -0.0234  0.1090
26762W        W46296  15.322  15.046   1.107  0.2274  0.4824  0.0674
26763W        W46297   8.635   2.502   0.569  0.1989  0.1637  0.1578
26764W        W46298   4.512  10.192  14.806  0.2532  0.1768 -0.4024
26765W        W46299   4.583   2.568  16.014 -0.2811  0.1546  0.2532
26766W        W46300  13.537  12.173   0.925  0.3191 -0.2028  0.0110
26767W        W46301  11.868  11.302   2.131  0.3380  0.0290  0.0625
26768W        W46302  13.489   2.749  12.760 -0.0159  0.1648  0.0621
26769W        W46303   9.275  10.616  14.240 -0.2722 -0.1875 -0.1525
26770W        W46304   0.138   2.942  14.254 -0.1271  0.1581 -0.0890
26771W        W46305   2.496   8.976  15.590  0.2051 -0.3716 -0.0606
26772W        W46306  16.912  13.516   1.429  0.0270 -0.2190 -0.2179
26773W        W46307   5.172  13.297   4.838  0.2463  0.2542 -0.0244
26774W        W46308  15.345   6.678   0.936  0.0367  0.2052 -0.1844
26775W        W46309   0.990   6.551  12.142 -0.3329  0.2506  0.3090
26776W        W46310   0.129  17.115  13.306 -0.0682  0.3651  0.3755
26777W        W46311   1.851   2.134   3.314 -0.3015 -0.0697  0.3136
26778W        W46312   6.598  12.214  15.848 -0.2764  0.1235 -0.1616
26779W        W46313   9.695  13.568  16.454 -0.0809  0.1521  0.1878
26780W        W46314  15.583   5.383   3.551  0.0808  0.1395  0.0729
26781W        W46315  11.915   8.474  15.030 -0.1333 -0.0429 -0.1225
26782W        W46316   8.707   2.107   3.362 -0.0311  0.3213 -0.0747
26783W        W46317   1.860   6.988  13.816 -0.0850  0.1904 -0.1426
26784W        W46318   7.192   4.600  13.363  0.1870  0.0381  0.3020
26785W        W46319   1.492   5.585   0.038  0.0088  0.2431  0.0578
26786W        W46320  15.691   6.383   1.954  0.0549  0.1102 -0.0851
26787W        W46321   1.812  15.122  15.685  0.2099 -0.2785 -0.2562
26788W        W46322   8.847  11.591   4.582 -0.0964  0.2095 -0.3489
26789W        W46323  13.937   0.865  12.650 -0.2358 -0.1593  0.1333
26790W        W46324   9.494   7.961   4.748 -0.0993 -0.1609  0.0384
26791W        W46325   5.036   3.239   5.240 -0.0772  0.0970  0.3689
26792W        W46326  15.025   3.682   4.328 -0.0429 -0.5402  0.3405
26793W        W46327   2.616   9.154   1.757 -0.0248 -0.2978  0.2616
26794W        W46328  11.757  11.171  14.306  0.2333  0.2074 -0.1186
26795W        W46329  10.332   0.406  13.495  0.2364  0.4178  0.0786
26796W        W46330   0.202  14.956   5.895 -0.6101 -0.1495 -0.1649
26797W        W46331  12.569   0.104  16.320  0.2692  0.2832  0.0690
26798W        W46332   4.190  15.847   0.937  0.1544  0.3049  0.0585
26799W        W46333   2.323  15.289  12.314 -0.3175 -0.1408 -0.0043
26800W        W46334   6.307   1.183  15.189  0.1352  0.0332 -0.2728
26801W        W46335   2.799   6.817   5.521  0.2457  0.0577  0.0303
26802W        W46336   7.547   7.266   2.329  0.4271  0.0655  0.1421
26803W        W46337  15.517   4.315   0.706 -0.1784 -0.2772 -0.1268
26804W        W46338   3.811   1.108  13.193  0.0797  0.0961 -0.1178
26805W        W46339  13.465   8.297  13.274  0.0440  0.0812 -0.3750
26806W        W46340   4.887   5.030   1.257  0.3823  0.0200  0.1357
26807W        W46341   3.234   7.348   2.072  0.1584 -0.0961  0.1651
26808W        W46342   1.709  13.771  15.272  0.3465  0.1328 -0.1814
26809W        W46343   8.944  13.953   2.172 -0.1290  0.0916  0.2129
26810W        W46344  16.036   4.625   4.176  0.2212 -0.2317  0.1694
26811W        W46345   6.476   7.163   0.715  0.2092 -0.1523  0.3089
26812W        W46346   6.225   2.057   0.851 -0.0800 -0.0162  0.0986
26813W        W46347   7.878   4.743   0.777 -0.1358 -0.0287  0.2867
26814W        W46348  17.163  14.279  15.992 -0.1741 -0.0665 -0.2186
26815W        W46349   5.835  16.877   2.339  0.2362 -0.6261  0.2935
26816W        W46350  10.883   0.742  12.107  0.1383  0.0251 -0.0602
26817W        W46351   4.979   7.779   0.871 -0.0108  0.0125 -0.0860
26818W        W46352   6.282  14.608  15.919 -0.0244  0.0895 -0.0950
26819W        W46353  10.828   8.173  15.865  0.2033 -0.1113 -0.0154
26820W        W46354   9.214   3.969  14.222 -0.1446 -0.1958 -0.1461
26821W        W46355  10.948  16.935   1.539 -0.2464  0.3736  0.2061
26822W        W46356  12.778  13.852  15.689 -0.1243 -0.0130  0.0952
26823W        W46357  13.046  15.826  14.076 -0.2815 -0.1259 -0.3100
26824W        W46358   7.773  10.203   3.848  0.1211 -0.1379 -0.1953
26825W        W46359  16.193  14.366  12.915  0.1950 -0.4217 -0.2068
26826W        W46360  10.455   9.099  12.741  0.1502 -0.0816  0.0175
26827W        W46361  16.024  15.815  13.442 -0.0843 -0.2528 -0.3458
26828W        W46362   3.316   6.777  12.535  0.1798 -0.0483 -0.3447
26829W        W46363   5.085   4.827  12.436 -0.1289 -0.1843 -0.1063
26830W        W46364  10.943   4.246   3.742  0.0300 -0.0984  0.2810
26831W        W46365  13.630   1.303  12.088  0.2910  0.1926  0.1844
26832W        W46366   0.133   5.468   3.859 -0.1735 -0.0376 -0.0122
26833W        W46367  10.330  14.973   4.606  0.2053 -0.0577  0.1432
26834W        W46368   1.686   7.434  14.306 -0.1616 -0.1661 -0.0440
26835W        W46369   2.516   1.248   0.198  0.2992 -0.1307 -0.0859
26836W        W46370  13.580   9.332   2.552 -0.1381 -0.1861  0.0607
26837W        W46371  10.991   4.928   0.639 -0.0628 -0.0763  0.0979
26838W        W46372  12.048  16.491   0.529  0.1611  0.0225  0.0593
26839W        W46373  10.360   0.832   0.117  0.1187  0.0021  0.1897
26840W        W46374   9.899  13.837  16.063 -0.0960 -0.2834 -0.1938
26841W        W46375  14.523   8.455  12.771 -0.2189  0.0355 -0.0985
26842W        W46376   4.398   9.440   2.879  0.0067 -0.2468 -0.1785
26843W        W46377  10.912  15.542   1.920 -0.1212  0.2179 -0.1291
26844W        W46378  15.327  12.825  16.175  0.2633  0.0570  0.0239
26845W        W46379  15.690   2.017   0.614 -0.0125 -0.2346 -0.2180
26846W        W46380   2.586   2.081  14.190  0.2253 -0.2867  0.1912
26847W        W46381   1.956   7.695   0.188 -0.3791  0.2701  0.0345
26848W        W46382  15.084   0.457   5.180  0.1285  0.1746  0.3161
26849W        W46383  14.093  14.645   3.579  0.2067  0.1373 -0.1511
26850W        W46384   0.613  16.377   1.178 -0.1234  0.0686  0.0406
26851W        W46385   4.931   1.100   1.755  0.4755 -0.2937 -0.1424
26852W        W46386   4.655  14.215  13.009 -0.2084 -0.3884  0.2929
26853W        W46387   4.481  12.653   1.002  0.0407 -0.1978  0.0258
26854W        W46388   4.593   9.769  15.794 -0.0179 -0.1268  0.3118
26855W        W46389   7.041   5.529   3.725  0.1221 -0.0426 -0.0793
26856W        W46390   6.919   5.778  15.724 -0.3801 -0.0010 -0.0273
26857W        W46391   9.645   7.119   2.566 -0.1129 -0.4736 -0.0910
26858W        W46392   7.822  13.989   3.760  0.0671  0.2717 -0.2236
26859W        W46393  17.411  10.543  14.015  0.1233 -0.2012 -0.0490
26860W        W46394   6.417  10.478  12.624 -0.1628  0.0220  0.0422
26861W        W46395  14.341   6.944  16.216 -0.2062  0.0495 -0.0805
26862W        W46396  14.268  13.270  12.271  0.3898 -0.1032  0.1317
26863W        W46397   1.333  17.695  13.222  0.2630 -0.0403  0.0651
26864W        W46398   0.212   8.964  13.613 -0.0121 -0.2567  0.0494
26865W        W46399   3.401   0.105   1.487  0.0747  0.1163 -0.0321
26866W        W46400  17.209  13.464  14.451 -0.0800  0.0582  0.1728
26867W        W46401   1.870  17.108   2.280  0.1768  0.2157  0.0404
26868W        W46402   7.698  15.042   0.901 -0.1705  0.0702  0.1228
26869W        W46403   8.571   1.644   0.453 -0.0798 -0.2469 -0.1183
26870W        W46404   3.176   2.737  16.054 -0.2712 -0.1731 -0.0374
26871W        W46405   7.956  13.489  15.483  0.1115 -0.3865  0.0454
26872W        W46406  17.808  17.235  13.815  0.0063 -0.2020  0.0093
26873W        W46407   5.829   0.884  15.511  0.2698  0.1783  0.1729
26874W        W46408   1.183   3.907  14.356 -0.3598  0.1052 -0.5198
26875W        W46409  10.724   6.261  12.392 -0.5241 -0.0294  0.1215
26876W        W46410  17.651  13.514   0.869 -0.0808  0.0685 -0.0798
26877W        W46411  17.254   5.322  14.295 -0.4064 -0.1581  0.0000
26878W        W46412   5.580  12.511  12.290  0.2624 -0.0881 -0.0311
26879W        W46413   0.613   3.889  15.134  0.2349 -0.2186 -0.2188
26880W        W46414   4.234   2.827   5.089 -0.0790 -0.0894  0.0821
26881W        W46415  12.110   8.648   1.529  0.0320 -0.0167 -0.0368
26882W        W46416  13.052   7.937   2.858  0.0023  0.0650 -0.2163
26883W        W46417   7.742   7.634  11.664  0.1047 -0.3900  0.1089
26884W        W46418   8.120  12.090  15.697 -0.0685 -0.2771 -0.3376
26885W        W46419   1.963   3.330  14.653  0.1071 -0.5832 -0.1783
26886W        W46420  12.701   3.178  14.978  0.2075  0.1556 -0.1582
26887W        W46421  10.544   9.927  15.797  0.3444 -0.0391  0.0617
26888W        W46422  14.880   4.763  13.312  0.0434 -0.3929 -0.0211
26889W        W46423   0.511  16.219   0.675  0.2018  0.1639  0.4034
26890W        W46424  11.701  11.696  12.760  0.0786 -0.0337 -0.1351
26891W        W46425  15.236  14.443  12.682  0.0116 -0.1891 -0.0923
26892W        W46426  16.313  13.285  14.854  0.1306 -0.0088 -0.0636
26893W        W46427   3.685  17.838  15.064  0.1984 -0.0455  0.0582
26894W        W46428   6.720  14.564   3.024 -0.0110 -0.1307  0.1217
26895W        W46429   4.235  11.781   4.021 -0.1528  0.1551 -0.1383
26896W        W46430  10.032  10.496  12.936 -0.0971  0.0318  0.0418
26897W        W46431   9.482  14.130  14.643  0.2450  0.1264 -0.0832
26898W        W46432   0.263   5.794   4.866 -0.2655  0.1532 -0.0722
26899W        W46433  17.574   5.346  14.762 -0.0600  0.3241 -0.3172
26900W        W46434  14.676  16.758   4.181  0.0020  0.0164 -0.0165
26901W        W46435   5.428   0.358   3.609  0.0510 -0.0000 -0.1852
26902W        W46436  10.276  14.389  16.538 -0.1652 -0.2836 -0.0528
26903W        W46437  15.313   1.343   0.647  0.4424 -0.0792 -0.1488
26904W        W46438   4.965   0.064  16.383  0.0772  0.1816 -0.0587
26905W        W46439  13.301   4.658   2.744  0.1340 -0.1610 -0.1245
26906W        W46440  13.701   9.212   3.089  0.0055  0.2666  0.0098
26907W        W46441   0.869   3.098   3.392  0.1983  0.1540 -0.4832
26908W        W46442  10.464   3.661   0.036 -0.0671  0.1080 -0.0468
26909W        W46443  16.529  11.564   3.267 -0.1138  0.1867  0.2716
26910W        W46444  15.159   5.604  15.311 -0.1169 -0.1055  0.0954
26911W        W46445  12.942  15.343   0.021  0.2265  0.1644  0.0500
26912W        W46446   4.233   1.035   5.504  0.0248  0.3592  0.3023
26913W        W46447   3.212  16.895   3.971 -0.1368 -0.1859 -0.1403
26914W        W46448  16.898  10.581  15.675 -0.1693  0.2655 -0.3811
26915W        W46449   1.023   1.346  13.686 -0.0347 -0.2238  0.0389
26916W        W46450  14.234   5.129   3.453  0.1014 -0.1552 -0.4432
26917W        W46451  10.614   0.209  15.559  0.0257 -0.1312 -0.1852
26918W        W46452   1.100   1.064  13.113  0.0724 -0.0248 -0.2640
26919W        W46453  10.437  11.671  15.622 -0.5135 -0.0193  0.1390
26920W        W46454  14.298  12.458   0.974  0.0250  0.1851 -0.3668
26921W        W46455   5.142  11.042   1.647  0.0283 -0.1197  0.0754
26922W        W46456   5.143  10.613   4.037  0.1170 -0.4147  0.1314
26923W        W46457  12.711  15.111  15.791 -0.0984  0.4136 -0.2444
26924W        W46458  12.346   4.407  12.297  0.0236 -0.0744 -0.0726
26925W        W46459  16.724  16.200   1.810  0.2243  0.2791 -0.0160
26926W        W46460  14.852   5.305   0.827  0.1250  0.0211 -0.0465
26927W        W46461  12.914   4.728   2.370  0.1200 -0.2937 -0.0927
26928W        W46462   2.250  13.692  13.850 -0.2359 -0.0758 -0.0153
26929W        W46463  11.720   7.142  13.447  0.1430 -0.3124 -0.0055
26930W        W46464  11.812   2.449   1.484  0.1867 -0.0268  0.0838
26931W        W46465   1.025  16.290   3.277  0.1552  0.2227 -0.0571
26932W        W46466   9.964   5.428  11.452  0.2785  0.2581  0.2236
26933W        W46467   0.413   9.391  13.404 -0.0108 -0.1935 -0.3802
26934W        W46468  14.730   3.966  14.360  0.1304 -0.1141 -0.1372
26935W        W46469  12.898   3.177  12.203 -0.0260 -0.1194 -0.2193
26936W        W46470  10.168   2.299   2.972  0.0329  0.0259  0.2353
26937W        W46471   6.717   1.821   0.758  0.1358  0.2008  0.0787
26938W        W46472  16.447  16.868   1.250 -0.2976 -0.2392  0.2898
26939W        W46473   7.467  17.266  14.781 -0.0875 -0.0489 -0.0795
26940W        W46474   8.421   2.319  12.613 -0.0773 -0.2705  0.1918
26941W        W46475  12.479   6.030  12.441 -0.2046 -0.3016 -0.0159
26942W        W46476   1.531  12.289   2.012  0.1790 -0.1248 -0.0526
26943W        W46477   6.303   6.796  13.650  0.2882  0.0965  0.0007
26944W        W46478   3.576   1.287  14.521 -0.2368 -0.2012 -0.0686
26945W        W46479   7.125  17.147   2.715 -0.1539  0.1746  0.4182
26946W        W46480   7.613   4.916   5.648 -0.1812 -0.1454 -0.0356
26947W        W46481   4.742  15.210   2.704  0.0827 -0.1372  0.0182
26948W        W46482  16.397   5.412  11.778  0.0779  0.2627  0.0153
26949W        W46483  17.275   8.232  11.852 -0.3631  0.0308  0.0152
26950W        W46484   4.658   2.376   1.919 -0.2062  0.2238  0.0786
26951W        W46485  14.791  14.303  16.475  0.0591 -0.3975  0.3828
26952W        W46486   5.686   4.551   1.604 -0.2585 -0.1860 -0.1441
26953W        W46487   7.713   2.493  15.304  0.0130 -0.2387  0.0595
26954W        W46488   8.251   5.167   4.349  0.0456 -0.1101  0.0990
26955W        W46489   7.799   6.529   4.446  0.0746 -0.0224 -0.1218
26956W        W46490   0.733  10.849  14.909 -0.4148 -0.0405  0.0548
26957W        W46491   3.914   6.807   2.128  0.1237 -0.0321  0.0266
26958W        W46492   3.435  16.197   1.442 -0.3815 -0.0597 -0.1478
26959W        W46493   8.249   0.921   1.698  0.0432  0.1067  0.1528
26960W        W46494  11.663  17.285  13.904 -0.3264 -0.0494  0.1803
26961W        W46495   2.953   6.782  16.523 -0.0853  0.0942  0.0793
26962W        W46496  15.622   4.355  13.492  0.1673 -0.1291  0.3941
26963W        W46497  15.443   1.074   6.155  0.1922 -0.0599 -0.2126
26964W        W46498   2.993  10.657   5.058 -0.1270 -0.0301  0.0426
26965W        W46499  17.488   2.540  15.539  0.0134  0.3689  0.1288
26966W        W46500  14.520   9.580  16.253 -0.0559  0.0795  0.0210
26967W        W46501   8.187   0.717  15.763  0.0075  0.1567 -0.1739
26968W        W46502   6.504   4.729  14.512  0.1808 -0.0277  0.3332
26969W        W46503  11.200   8.380   1.782  0.3171 -0.0276  0.1820
26970W        W46504   1.073   3.826   2.421 -0.2648  0.2226  0.0127
26971W        W46505  15.565   0.937   4.240  0.0351 -0.4863 -0.1142
26972W        W46506   0.270   4.118  14.811 -0.0940 -0.3763  0.2978
26973W        W46507   5.625  12.332  15.566 -0.2529  0.0610  0.2294
26974W        W46508   1.425  16.387   2.903  0.3166  0.4488 -0.1193
26975W        W46509  10.573  10.973   4.606 -0.1268  0.1064 -0.0686
26976W        W46510  13.296   4.373  16.650 -0.1014  0.1719 -0.1344
26977W        W46511  12.285   4.734  16.245  0.0109  0.0748 -0.2819
26978W        W46512  16.118   6.919  16.521 -0.2121  0.0816  0.1421
26979W        W46513  10.095   4.858  16.323  0.2995 -0.1238  0.0977
26980W        W46514   7.444  15.743  14.989 -0.1096  0.2197  0.0340
26981W        W46515  15.479   5.817   0.847 -0.0739  0.1354  0.1807
26982W        W46516   3.763  16.049  13.659 -0.0474 -0.0246 -0.0823
26983W        W46517   3.722   4.013  13.457 -0.0285  0.1984  0.1724
26984W        W46518  13.282  17.555   0.004 -0.0055  0.0380  0.0591
26985W        W46519  15.413   5.820  15.827  0.0594  0.2662 -0.1248
26986W        W46520  12.606  15.813  12.288  0.2140 -0.0282 -0.2209
26987W        W46521   4.053  15.409  12.190 -0.1890 -0.0081  0.0420
26988W        W46522  15.890  13.433   1.232 -0.0485  0.0423 -0.2477
26989W        W46523  14.083   4.446  14.697  0.1582 -0.2655 -0.2662
26990W        W46524  11.516  14.643  11.999  0.1291 -0.2133  0.2670
26991W        W46525   8.580   7.168   2.068 -0.1101  0.2286  0.2830
26992W        W46526   8.218   1.513   3.759 -0.3034  0.1555  0.0893
26993W        W46527  14.563  15.736   2.644 -0.1078  0.1101 -0.1024
26994W        W46528   1.070   1.362  15.662 -0.1563  0.0093 -0.5141
26995W        W46529   3.955   8.197   3.411 -0.2038  0.2086 -0.0682
26996W        W46530  16.031   8.179   3.131  0.2199 -0.0074 -0.0650
26997W        W46531   4.518   0.219  12.890 -0.0497  0.0316  0.4317
26998W        W46532   6.641   8.111   2.905 -0.2804 -0.0048  0.0507
26999W        W46533  10.085   9.225  13.110 -0.0748 -0.1961  0.0435
27000W        W46534  12.879   0.495   0.102  0.0441  0.1129  0.0411
27001W        W46535   8.065   6.583   0.105 -0.1628 -0.0820 -0.0601
27002W        W46536  15.060  15.578   2.545 -0.1187 -0.2414  0.1210
27003W        W46537   0.177  15.610   3.962 -0.1669  0.0993  0.3900
27004W        W46538   4.472   2.202   6.728  0.5930  0.0997 -0.1050
27005W        W46539  13.584   1.923  13.701  0.1311 -0.0507 -0.2570
27006W        W46540  13.740  17.400  15.373 -0.2262  0.2079  0.2388
27007W        W46541  12.202  13.241   0.802  0.0356  0.2911 -0.1513
27008W        W46542   2.255   3.157   4.029  0.0355 -0.3584  0.0469
27009W        W46543  12.525   2.149  12.931  0.0027 -0.2848  0.3303
27010W        W46544   2.834  16.781   2.311  0.0948  0.2542 -0.2533
27011W        W46545  12.016   6.308   1.216 -0.1549  0.1853  0.3159
27012W        W46546   7.341  15.477   1.562  0.3759 -0.0363  0.0484
27013W        W46547  14.523   6.362   3.163  0.1132  0.0249  0.1433
27014W        W46548  10.707   7.598   1.196 -0.0808  0.2213  0.0378
27015W        W46549   0.638   5.854   1.753  0.0581  0.0149 -0.1719
27016W        W46550   3.457   6.525   1.942 -0.0764 -0.0890 -0.3467
27017W        W46551   7.584  15.459  14.027 -0.0202  0.2020 -0.0407
27018W        W46552  15.335   8.533  14.680  0.1717 -0.0630 -0.1872
27019W        W46553   5.862  15.938   1.352 -0.0800 -0.1906 -0.5354
27020W        W46554   7.496  13.444  13.029 -0.0447 -0.0857 -0.3440
27021W        W46555   4.308   6.184  12.771 -0.0457 -0.1397  0.0494
27022W        W46556  13.195   5.783  15.588  0.1065 -0.0468  0.2356
27023W        W46557  17.892  12.355  13.239 -0.0397 -0.1105 -0.1038
27024W        W46558  17.693  16.537   1.264  0.1853 -0.1621  0.0978
27025W        W46559   5.285   7.279   0.625 -0.1417  0.0654  0.1210
27026W        W46560  12.687   3.310   2.279 -0.2840 -0.2182  0.3564
27027W        W46561  10.141   5.448  14.235 -0.0287  0.0923 -0.0324
27028W        W46562   2.112  15.506   0.814  0.1285  0.1204  0.0565
27029W        W46563   9.330  15.566   1.955 -0.0996 -0.2314 -0.1306
27030W        W46564  10.008  12.798   3.578 -0.0404  0.0219  0.0865
27031W        W46565   9.708  13.121   0.563 -0.1919 -0.0198 -0.4087
27032W        W46566   4.070   0.853   2.276 -0.2033 -0.0777  0.1015
27033W        W46567   5.332  17.520   4.673  0.1484 -0.1655  0.0276
27034W        W46568   1.465   5.982   4.112  0.2228 -0.0257 -0.2543
27035W        W46569  14.223   3.994   0.377  0.1006 -0.0018 -0.1520
27036W        W46570  15.861   0.505  13.580  0.0921  0.0231  0.4448
27037W        W46571  17.067  11.792   2.621 -0.0383 -0.0214  0.0857
27038W        W46572   2.031  15.592  15.454 -0.1888  0.0866 -0.0390
27039W        W46573   9.325  14.495  16.459 -0.1577 -0.0946  0.0228
27040W        W46574  16.563   2.376   1.555  0.1424  0.1883 -0.1997
27041W        W46575  16.600  16.754   1.868  0.1399 -0.2139 -0.0953
27042W        W46576   6.821  17.195   5.214  0.2621 -0.1412 -0.0891
27043W        W46577  13.662  11.992  13.152 -0.0553  0.1076  0.1200
27044W        W46578  15.999   1.173   0.167 -0.0640 -0.1849 -0.1211
27045W        W46579   6.885   5.066  10.258 -0.1046 -0.2887 -0.1667
27046W        W46580   7.172  17.132  12.415 -0.1824 -0.0133 -0.3115
27047W        W46581   2.578   2.446  14.722 -0.0980  0.0777 -0.0529
27048W        W46582  10.320   1.486  14.188 -0.0022  0.2439  0.1244
27049W        W46583  16.325  14.626  14.318  0.2697 -0.1710  0.3139
27050W        W46584   8.482   1.107  15.085  0.0847 -0.0344  0.4323
27051W        W46585  10.835   9.836   3.507  0.0335 -0.0589  0.0564
27052W        W46586  10.332   5.438   4.270 -0.1504  0.1162 -0.0654
27053W        W46587   4.567  12.045  15.660  0.3032 -0.1618  0.0566
27054W        W46588   2.683   9.425  16.369 -0.0155 -0.0259 -0.0680
27055W        W46589   4.662  17.689   3.426 -0.0587  0.2326 -0.0710
27056W        W46590  13.266   3.229  11.872  0.0058 -0.0121 -0.0804
27057W        W46591  11.374   3.231   0.052 -0.1646 -0.0977  0.0747
27058W        W46592   6.166   4.855   0.150  0.1088  0.2390  0.1786
27059W        W46593   4.773   7.654  13.191  0.1869 -0.0359  0.1578
27060W        W46594  15.670  16.415  16.074  0.3296 -0.0324 -0.0528
27061W        W46595  10.085  17.644  13.417 -0.0907 -0.0954 -0.0194
27062W        W46596  11.418   5.413  13.797 -0.0852  0.0876 -0.1429
27063W        W46597   6.422  12.148  16.719  0.1887  0.2885 -0.1406
27064W        W46598   7.565  14.670   2.887 -0.4940 -0.0844  0.0800
27065W        W46599   1.025  16.372  12.962 -0.2202  0.0835  0.0105
27066W        W46600   1.192   1.292   4.821  0.3074  0.1308  0.0962
27067W        W46601   9.554   1.876  14.385 -0.0241  0.0635  0.1901
27068W        W46602  12.185  11.352   0.687  0.1107  0.2392 -0.1399
27069W        W46603  10.294  16.511  14.224 -0.0412 -0.2293 -0.1060
27070W        W46604  15.018   1.275  15.600  0.2988 -0.2048 -0.0745
27071W        W46605   6.183  11.686  12.188  0.2364 -0.1343  0.1867
27072W        W46606   3.200   4.805   4.567  0.4468 -0.4268  0.4094
27073W        W46607   6.596  12.176  14.000  0.4713  0.1998  0.2283
27074W        W46608  14.977   1.547  14.700 -0.3056 -0.0681 -0.0866
27075W        W46609   3.908  10.165   1.199 -0.1098  0.0855 -0.0192
27076W        W46610   3.632   6.416   3.600  0.0569 -0.1601 -0.3162
27077W        W46611   8.703   9.395  12.025 -0.0314 -0.1919  0.1452
27078W        W46612  14.603   4.644   4.173 -0.2002  0.1630  0.4500
27079W        W46613  12.955  14.535   1.528  0.0944  0.2050  0.2261
27080W        W46614   2.994   1.934  15.523 -0.1639 -0.3357 -0.4080
27081W        W46615   3.509   0.694   3.414  0.2546 -0.1892 -0.0962
27082W        W46616   8.701  16.182   0.489  0.1014  0.1753  0.2282
27083W        W46617   1.801  16.511   0.277 -0.0033  0.0253 -0.0754
27084W        W46618   4.445  13.376  16.004 -0.0474 -0.0648  0.1877
27085W        W46619   8.013  10.048   2.465 -0.1679 -0.0504 -0.1752
27086W        W46620   7.612   2.752   1.035  0.0150 -0.2184 -0.1282
27087W        W46621  12.823   3.238  11.652 -0.2728 -0.1371  0.1036
27088W        W46622  15.093  15.649  12.232 -0.0617  0.0159 -0.0296
27089W        W46623  14.503  15.578  13.477 -0.3425  0.1652  0.0605
27090W        W46624   9.998   7.290  15.291 -0.1876 -0.0174  0.1416
27091W        W46625   3.290  11.882   0.470  0.1713  0.0224  0.0336
27092W        W46626   7.547   9.400   4.567  0.0225  0.1810 -0.0691
27093W        W46627  10.902   6.793   2.492 -0.1579 -0.0551  0.3032
27094W        W46628  11.752   0.988   4.466  0.2796  0.0215  0.2517
27095W        W46629   6.284   9.222  13.579 -0.0530 -0.0095  0.1178
27096W        W46630   2.414   9.199  14.778 -0.3758  0.0744  0.2287
27097W        W46631   7.168  12.903   3.358 -0.1654 -0.3117  0.1095
27098W        W46632  10.349   2.974   0.658  0.1021  0.3055  0.0301
27099W        W46633  12.622  17.635  14.909 -0.2315 -0.0040  0.1363
27100W        W46634  14.393   0.276   0.103 -0.0944 -0.0390  0.0722
27101W        W46635   0.460   1.439  12.484 -0.3131  0.1791 -0.1680
27102W        W46636   9.887  10.250   3.702  0.2084  0.0851  0.2049
27103W        W46637  15.484  11.378   3.382  0.0548 -0.2337  0.0930
27104W        W46638   2.571  15.733   1.033  0.0374 -0.0514  0.1170
27105W        W46639   3.719  10.945  15.135 -0.1858 -0.0957 -0.2561
27106W        W46640   4.896   3.034  13.057  0.0358 -0.0566 -0.2642
27107W        W46641  15.350   1.948  16.371  0.0226 -0.1658 -0.2000
27108W        W46642  17.560   9.200  16.614 -0.1682 -0.0508 -0.0490
27109W        W46643  12.331   3.415   2.543  0.5599 -0.1776  0.1672
27110W        W46644  17.472   7.068   1.578 -0.0668  0.0786 -0.0275
27111W        W46645   3.719   9.565  14.365  0.1471  0.2408 -0.0858
27112W        W46646  13.268  10.652  16.156 -0.0177  0.2811  0.1723
27113W        W46647   1.274   2.751   4.231 -0.4208 -0.0641 -0.0617
27114W        W46648   9.660  15.166   1.942 -0.1198  0.2924  0.1051
27115W        W46649   5.510  12.988   2.882 -0.1259  0.1605  0.2532
27116W        W46650   6.469  15.952   4.257  0.3136  0.0356  0.0628
27117W        W46651   5.717  12.926  15.595  0.2012 -0.1002 -0.0180
27118W        W46652   7.779   1.077   2.651 -0.1017  0.1254  0.2803
27119W        W46653   3.022  11.303  15.133 -0.0379  0.0438  0.0811
27120W        W46654  12.712   9.537   1.707 -0.4262 -0.0277 -0.1487
27121W        W46655   1.839  16.992   1.619  0.3520 -0.0454  0.0094
27122W        W46656  16.413   3.159   2.130  0.2843 -0.3171 -0.2719
27123W        W46657  12.877   0.577  15.694 -0.1576  0.3996  0.2164
27124W        W46658  16.662   9.273  12.420 -0.2012 -0.1049  0.2766
27125W        W46659   7.761   6.641   3.448  0.0007 -0.1533 -0.1198
27126W        W46660   2.932   6.126   0.911  0.0745 -0.0361 -0.1881
27127W        W46661   1.925  12.900   0.295 -0.0436  0.3359  0.1377
27128W        W46662   9.856   9.515   2.361 -0.2706 -0.1663  0.0393
27129W        W46663   6.333  16.575   1.576  0.0226 -0.1577  0.0555
27130W        W46664   3.119  10.060   0.295  0.0651 -0.4298  0.0874
27131W        W46665  17.037  11.036   0.069 -0.0041 -0.0893  0.1409
27132W        W46666   5.440  17.728   3.701 -0.0560 -0.1508 -0.0314
27133W        W46667   6.588   5.761  14.034  0.1879  0.1578  0.0807
27134W        W46668  10.025   4.509  12.151 -0.0621 -0.0597  0.0130
27135W        W46669   7.884  11.647   2.965  0.1208  0.1996 -0.1761
27136W        W46670   1.900  10.189  12.734  0.3581  0.2044  0.0469
27137W        W46671   5.216   8.602   5.074  0.4774 -0.1498  0.2637
27138W        W46672  13.038  14.816  15.439  0.1138  0.1017  0.1411
27139W        W46673   0.476   4.359   2.776  0.0292  0.0655 -0.0100
27140W        W46674   2.840  17.294   0.107  0.2825  0.0617 -0.2529
27141W        W46675  14.932   1.328   2.089 -0.3573 -0.1496 -0.1429
27142W        W46676  10.670  12.818   4.264  0.0330 -0.0517 -0.3523
27143W        W46677  15.349   2.283  13.118  0.1543  0.1406  0.0930
27144W        W46678  11.756  17.543   1.574 -0.0653 -0.2376 -0.0275
27145W        W46679  12.230   8.151   4.556 -0.1256 -0.2805 -0.2468
27146W        W46680   5.502  10.872   3.300 -0.1825 -0.1172  0.0076
27147W        W46681   1.235  13.261  14.330  0.4354  0.0615  0.0046
27148W        W46682   6.724   2.629  13.736  0.0677 -0.3294  0.0898
27149W        W46683  12.030  14.506   1.409  0.0963  0.0249 -0.1796
27150W        W46684  10.548  13.413  15.311  0.0086 -0.3018  0.0868
27151W        W46685   8.369   5.776   0.125 -0.1777  0.2242  0.3653
27152W        W46686  12.770   5.836  13.297 -0.4038 -0.3887 -0.0029
27153W        W46687   3.556   7.618  14.701 -0.0247  0.0387 -0.1525
27154W        W46688   3.269   2.556   4.390 -0.1227 -0.1518 -0.1094
27155W        W46689  16.064  16.456   4.331 -0.1965 -0.0876 -0.0219
27156W        W46690  10.043   8.410   2.902 -0.1300 -0.4404  0.1059
27157W        W46691  12.267   0.942  12.369 -0.1385 -0.0680  0.2280
27158W        W46692  14.003  15.414   0.585  0.0860  0.0453  0.3244
27159W        W46693  14.291  13.235   2.030 -0.0365 -0.0059 -0.2807
27160W        W46694   9.201   4.072  15.670  0.2096  0.0864 -0.1517
27161W        W46695   8.489   5.316   4.811  0.0403 -0.2561  0.0988
27162W        W46696   5.590  11.066   0.298  0.2543  0.2083 -0.1855
27163W        W46697   9.102   9.324   3.086  0.0117  0.1964  0.0654
27164W        W46698   7.950  13.788  13.063  0.1363 -0.1763 -0.2191
27165W        W46699   7.533  10.054  12.584  0.3716 -0.1291  0.2434
27166W        W46700  10.613  11.363   3.011  0.1885 -0.0855 -0.0327
27167W        W46701  10.337   2.610  13.816  0.3451 -0.0877  0.2320
27168W        W46702   8.149   1.762  14.489  0.0074 -0.1626 -0.0941
27169W        W46703  11.226   6.005   2.366  0.4282 -0.3429  0.1741
27170W        W46704  16.417  14.053   2.860  0.0343  0.2080  0.0328
27171W        W46705  10.940  11.669  13.855  0.2021 -0.1905  0.0032
27172W        W46706   5.327   9.929   2.452 -0.2068  0.0659  0.0966
27173W        W46707   6.310   9.578  15.655  0.1228  0.2767 -0.0339
27174W        W46708  13.640  16.170   0.702  0.1943  0.0467 -0.1311
27175W        W46709  13.731   6.043  16.269  0.1701  0.3532  0.0962
27176W        W46710  15.904   7.164   2.533 -0.0945 -0.1614 -0.0601
27177W        W46711  12.494  11.254   3.420 -0.0116 -0.0213 -0.0609
27178W        W46712  10.645  11.364   1.419 -0.1253  0.0646  0.4064
27179W        W46713   2.076   3.939  14.466 -0.1934  0.0142 -0.0282
27180W        W46714  12.399  17.037  12.208  0.2257 -0.2701  0.0818
27181W        W46715   4.732   3.473   5.588 -0.3167 -0.0846 -0.1731
27182W        W46716   3.880   1.869  11.424  0.2881 -0.0838  0.1176
27183W        W46717  12.534   0.020   3.053 -0.1723  0.0608 -0.0471
27184W        W46718  14.134   9.894  11.858 -0.0964  0.0314  0.0071
27185W        W46719  11.715   7.990   3.579 -0.2021 -0.4539 -0.0270
27186W        W46720  17.394  13.302   2.496 -0.3594 -0.0633 -0.2511
27187W        W46721   8.672   1.753   1.287 -0.3235 -0.4204  0.2415
27188W        W46722   7.486   4.391   0.608  0.4013 -0.1481 -0.2632
27189W        W46723   2.426  17.277   4.206 -0.1831 -0.4350 -0.0620
27190W        W46724  17.371  13.877  13.985  0.0985  0.0626 -0.0148
27191W        W46725  15.233   4.328  13.812 -0.0850 -0.0310 -0.0516
27192W        W46726  14.883  11.865  12.088  0.1702 -0.0061  0.2962
27193W        W46727   7.720   6.442  16.387 -0.0430  0.0549 -0.0854
27194W        W46728   9.731   1.225   0.877  0.1771 -0.3635  0.3413
27195W        W46729   7.694   5.396  12.865 -0.1293  0.3351 -0.1177
27196W        W46730   9.986   7.075   4.272  0.1146  0.2438  0.2046
27197W        W46731   7.879   8.388   4.217 -0.0933 -0.0486  0.2886
27198W        W46732   6.239   1.233  12.356  0.1881 -0.2049 -0.0752
27199W        W46733   3.523   5.499   0.391  0.1653  0.1218 -0.2354
27200W        W46734   6.593  16.321   5.090  0.0487 -0.1350  0.2693
27201W        W46735  17.146   5.578   1.369  0.0027  0.1921 -0.2727
27202W        W46736   4.777   5.000  15.737 -0.2394  0.1035  0.1817
27203W        W46737   9.315   4.811   2.336 -0.1400  0.0108  0.0014
27204W        W46738   8.863   5.797  11.599  0.0373 -0.0416 -0.1503
27205W        W46739   8.031  10.358  13.480  0.3266  0.1259 -0.0019
27206W        W46740  11.679   4.927   2.849 -0.0339 -0.1448 -0.0647
27207W        W46741   6.559  10.211   0.735  0.1940  0.2786 -0.1660
27208W        W46742  15.795  11.837  12.676  0.1808 -0.2485  0.0750
27209W        W46743   4.125  13.469   0.066  0.1593  0.2076 -0.1096
27210W        W46744  11.015   6.742  16.363 -0.1394 -0.0480  0.0011
27211W        W46745  12.415   2.106  14.270 -0.3375 -0.1071 -0.1829
27212W        W46746   3.031  10.075   4.316  0.3091  0.3662 -0.2339
27213W        W46747   1.093   8.896   2.774  0.3107 -0.1490 -0.0239
27214W        W46748  11.947   3.162  13.260 -0.0450 -0.3245 -0.0580
27215W        W46749  13.340  15.825   2.505 -0.1098 -0.3867 -0.0407
27216W        W46750  17.376   8.803   3.813  0.0089  0.0272 -0.0184
27217W        W46751   1.739  11.541   3.070  0.0501  0.1758 -0.0180
27218W        W46752   4.616   6.496   1.766 -0.2901  0.0950  0.1507
27219W        W46753   0.756   6.792  15.734 -0.2250 -0.1803 -0.0382
27220W        W46754   5.002   4.234  16.190 -0.0232  0.0525  0.0656
27221W        W46755   9.708  15.977   5.891  0.4268 -0.1864 -0.2327
27222W        W46756  10.471   4.015  14.758 -0.0432 -0.1944 -0.1732
27223W        W46757  15.076   1.427   3.048  0.1168 -0.2009 -0.0033
27224W        W46758   5.682   9.319  16.524 -0.1790 -0.0373  0.0020
27225W        W46759   0.418   1.491  14.719 -0.3067  0.1306  0.0711
27226W        W46760  14.040  12.260   3.986 -0.3489  0.1257 -0.2127
27227W        W46761  17.899  11.005   0.993 -0.1820 -0.1507 -0.2146
27228W        W46762  10.893   9.503  13.622  0.4204 -0.1828  0.2131
27229W        W46763  10.597   4.547   4.023  0.1923  0.2568  0.0977
27230W        W46764  11.420   9.504   0.327 -0.1586 -0.5114 -0.2417
27231W        W46765  11.660  12.062   2.695 -0.2383  0.2240 -0.3035
27232W        W46766   1.124  16.649   1.661 -0.0203  0.3025 -0.0028
27233W        W46767   7.681   6.986  15.488 -0.4016 -0.2418 -0.0586
27234W        W46768  12.902  16.943   4.919  0.1159  0.3362 -0.0654
27235W        W46769   3.415  12.900   0.778  0.1258 -0.0761  0.3002
27236W        W46770  13.160  15.235  13.100  0.1614  0.1593  0.2699
27237W        W46771  17.031  12.378  12.959  0.0372 -0.2697  0.2329
27238W        W46772  11.276  13.916   3.773 -0.2237  0.0538 -0.0696
27239W        W46773   7.524   7.750   2.914 -0.1876 -0.0883 -0.1156
27240W        W46774  16.096  15.060   1.734  0.0412  0.2608  0.1028
27241W        W46775  16.296  15.838   2.274  0.2346 -0.3272  0.1043
27242W        W46776   7.370   7.599  14.776 -0.1539  0.1520 -0.2237
27243W        W46777   0.803   6.019   0.867  0.0852  0.4905 -0.1685
27244W        W46778  15.273  14.940  12.601  0.2263  0.2209 -0.0602
27245W        W46779   6.197  17.058   4.124  0.3021 -0.0648  0.1707
27246W        W46780   9.903  11.654   1.814 -0.1100 -0.1688 -0.4169
27247W        W46781  11.572   9.498  12.635  0.0708 -0.0389  0.2863
27248W        W46782   9.794   0.880  14.596  0.2945 -0.0291 -0.1063
27249W        W46783   8.721   4.290   3.686 -0.2863 -0.0355 -0.1978
27250W        W46784  13.140  15.516  12.644  0.3554 -0.0257 -0.1471
27251W        W46785  15.854   8.158  15.573  0.0531 -0.0811  0.1968
27252W        W46786  12.061   7.850  14.142  0.0503 -0.0784 -0.0169
27253W        W46787   2.899  10.875  16.259  0.1816  0.0298 -0.0616
27254W        W46788   0.281  16.429   3.795  0.0919 -0.0156 -0.1574
27255W        W46789  11.574   6.247  13.765 -0.2954 -0.2307 -0.1518
27256W        W46790   3.354  15.889   4.810  0.3226 -0.2838 -0.0065
27257W        W46791   1.208  13.698  16.123 -0.0411  0.2177 -0.1485
27258W        W46792  11.793   5.323  14.228 -0.0874  0.1964  0.4182
27259W        W46793   6.350  12.281  13.025 -0.0184 -0.0542 -0.3671
27260W        W46794  14.210   0.030   5.949 -0.3749  0.0146 -0.1471
27261W        W46795   3.264   2.303  16.383  0.2386  0.2159 -0.3317
27262W        W46796   7.201   9.354  14.330 -0.0695 -0.0975  0.2369
27263W        W46797   0.565  17.005  14.537 -0.0342  0.0583 -0.1110
27264W        W46798   6.387   9.528  12.940 -0.0834 -0.3196 -0.1214
27265W        W46799   1.496  17.688   2.853 -0.0220  0.2936  0.0899
27266W        W46800  11.155  15.381   0.824  0.0109  0.0529  0.1182
27267W        W46801  14.156   3.229   4.543  0.0586  0.0345  0.1417
27268W        W46802   7.636   7.482   4.663  0.1221 -0.0569 -0.0421
27269W        W46803   9.239  16.423   3.433 -0.0822 -0.1692 -0.2333
27270W        W46804   0.090   1.638  16.398  0.1030  0.2362  0.0481
27271W        W46805   2.350   8.970   2.161 -0.0067 -0.1172 -0.1505
27272W        W46806   9.688   3.788  13.963 -0.1899  0.1268  0.2135
27273W        W46807   8.303  10.210   1.425 -0.0222 -0.0840  0.1925
27274W        W46808  12.644   0.727  12.549 -0.1032 -0.1020  0.3791
27275W        W46809  11.040  15.771   3.308 -0.2452  0.4105 -0.0358
27276W        W46810  14.897   1.051  14.611 -0.1607 -0.1791 -0.0789
27277W        W46811   4.452   3.583  16.096  0.3123 -0.4047 -0.2688
27278W        W46812   3.423   9.519  12.242  0.0734  0.1529  0.3401
27279W        W46813   5.557   6.072   0.682  0.0229 -0.1368  0.1879
27280W        W46814  10.032  10.712  14.663  0.0610 -0.1750  0.0557
27281W        W46815  13.386   6.893  11.992 -0.3999 -0.1276 -0.1326
27282W        W46816   1.704   8.296  15.324  0.2589 -0.1022  0.0198
27283W        W46817   6.525  11.693   1.323  0.0079 -0.0960 -0.0179
27284W        W46818   1.466   9.118  14.388  0.0601 -0.3257  0.0335
27285W        W46819   0.204  10.547  11.950  0.0467  0.3492  0.0846
27286W        W46820   3.352   3.975   4.974 -0.1124  0.1357 -0.0262
27287W        W46821  15.695   5.974   4.102 -0.0088  0.2880  0.0366
27288W        W46822  13.606  11.287  14.172  0.3538  0.1380  0.1356
27289W        W46823  11.773   6.664   0.916 -0.1080  0.0232 -0.0575
27290W        W46824   3.985   2.706   2.676  0.2345 -0.3092 -0.2698
27291W        W46825  10.908   0.984  16.117 -0.0415 -0.2009 -0.2048
27292W        W46826  10.836  11.627   1.744  0.2105 -0.1691 -0.2411
27293W        W46827   8.907  13.112  12.639 -0.2093 -0.3035  0.0332
27294W        W46828   8.611   7.402   5.801  0.3594 -0.2340  0.2356
27295W        W46829  16.735   2.127  12.051  0.0941  0.4110 -0.0681
27296W        W46830  15.915  16.178   2.093 -0.0053  0.2749 -0.0329
27297W        W46831   2.763   4.081   3.145 -0.1891 -0.0537 -0.0468
27298W        W46832  15.518  13.857  15.245  0.1494  0.1723 -0.1183
27299W        W46833   2.955  13.971   0.992 -0.0350  0.1445  0.0323
27300W        W46834  15.488   2.710   4.536  0.1235  0.1119 -0.1211
27301W        W46835  12.779  14.326   3.196 -0.0345 -0.2206 -0.0121
27302W        W46836   7.056   9.375   4.703  0.0809 -0.1776 -0.0853
27303W        W46837   7.695  15.544  15.507  0.1116 -0.0318  0.0893
27304W        W46838  10.130  12.584   2.230  0.0798  0.0538 -0.0449
27305W        W46839  17.374   3.111  15.316 -0.3074 -0.0322  0.0167
27306W        W46840   8.833   6.848   0.193  0.3468 -0.0096  0.0292
27307W        W46841  14.311  16.882   4.520 -0.0326  0.3209 -0.3963
27308W        W46842  17.244  16.013   3.909  0.2558 -0.0954  0.1863
27309W        W46843   9.959  13.234   1.881 -0.2981 -0.1010  0.0894
27310W        W46844  12.756  10.479  16.239 -0.0018 -0.0471 -0.0048
27311W        W46845  16.782   5.928   1.468 -0.0689 -0.2761  0.0667
27312W        W46846  14.854  15.293  16.033  0.0101 -0.0238 -0.0431
27313W        W46847   8.075  15.756  14.237  0.1042 -0.3918 -0.0195
27314W        W46848  13.299   5.379   3.477 -0.1958  0.2210  0.2782
27315W        W46849   2.677   1.988  12.858 -0.1544 -0.1941  0.3126
27316W        W46850   8.489  16.203   1.968  0.0255  0.0934 -0.2744
27317W        W46851  14.845  15.271   0.348 -0.1525  0.0116 -0.2265
27318W        W46852  13.409   8.123   4.033  0.1480  0.1799  0.0001
27319W        W46853  12.550  16.615  12.493  0.0005 -0.1606 -0.1927
27320W        W46854  14.608   9.932  14.727  0.1337 -0.0861 -0.1073
27321W        W46855  12.508  10.024   1.085 -0.1001 -0.0866  0.1410
27322W        W46856   9.274  12.976   4.156 -0.1556  0.0664 -0.1339
27323W        W46857  15.031  10.759   1.271 -0.1023 -0.0136  0.2592
27324W        W46858   5.047  15.954   0.868 -0.0708  0.1401 -0.1082
27325W        W46859   7.299   9.738   1.607 -0.2658 -0.0085 -0.5235
27326W        W46860   5.337   7.769  16.677  0.0318 -0.2658 -0.0885
27327W        W46861  17.431   2.678   3.112  0.2310  0.3055  0.0594
27328W        W46862  14.125  17.840  13.979 -0.1359  0.0361  0.3304
27329W        W46863  15.555   6.349   2.920  0.2061  0.0785 -0.0734
27330W        W46864   9.854  16.956  12.209  0.1497 -0.0033 -0.0504
27331W        W46865   7.607   8.492   3.074  0.3731  0.0497 -0.1299
27332W        W46866  10.197   3.959   0.351  0.0838 -0.0393  0.3706
27333W        W46867   7.059  16.041  15.433  0.0019  0.0725  0.1456
27334W        W46868   6.494  13.584   2.920 -0.0157  0.0692 -0.0381
27335W        W46869   1.598  12.262  14.590  0.0424  0.0293  0.1830
27336W        W46870   1.641   2.933   4.553  0.2325  0.1221  0.0912
27337W        W46871  10.051  14.852   0.106  0.2649 -0.2446  0.0203
27338W        W46872   8.931  12.896   4.680  0.2102 -0.2786 -0.2479
27339W        W46873  11.638   9.083   1.752  0.2598  0.2884 -0.0285
27340W        W46874   6.239   5.988  14.482 -0.0230 -0.0571  0.1372
27341W        W46875  16.033  11.479   0.224  0.0336  0.1794  0.1280
27342W        W46876  12.070  10.423  16.610  0.0083  0.0829 -0.1495
27343W        W46877   2.920   2.495  12.591 -0.1667  0.1694 -0.0231
27344W        W46878   1.756   1.219  13.537 -0.1573 -0.2212  0.2252
27345W        W46879  15.805   6.770  12.731 -0.0947 -0.2638  0.0454
27346W        W46880  10.584   3.889   3.435 -0.2168  0.1707  0.1524
27347W        W46881   8.590   8.920  12.445  0.2762  0.0394  0.1762
27348W        W46882  10.906   5.639   2.130 -0.0919 -0.2405  0.1679
27349W        W46883  13.386   8.476  14.686  0.1300 -0.0792 -0.0083
27350W        W46884   0.341   0.197   3.713 -0.2335 -0.1833  0.3787
27351W        W46885   9.833  16.490   4.141 -0.1123  0.1335  0.0438
27352W        W46886  17.198   6.567   3.616  0.1420 -0.1889  0.0399
27353W        W46887   5.477   0.041  12.885  0.0070 -0.2789  0.2332
27354W        W46888   3.876   4.156  12.967  0.1805 -0.0872 -0.0230
27355W        W46889  14.176   9.776   2.464  0.1638  0.1736  0.0364
27356W        W46890  13.867  13.412   1.279  0.3147  0.0487  0.0729
27357W        W46891   3.293   5.535   1.201  0.0757  0.1488  0.4705
27358W        W46892   5.218   2.914   6.643 -0.0946  0.1082 -0.0010
27359W        W46893  17.882  10.922  11.408 -0.0915  0.2045 -0.0799
27360W        W46894   3.740  14.409   3.327  0.1093  0.1152 -0.1832
27361W        W46895   3.452   7.875  14.218  0.0989  0.0834  0.1876
27362W        W46896  11.162  15.639  15.154 -0.0663 -0.1035  0.0387
27363W        W46897   7.632   2.892   4.262 -0.2711 -0.3080 -0.1761
27364W        W46898  12.684  17.442  14.415 -0.2142  0.1442 -0.1527
27365W        W46899  17.181   5.230   2.909 -0.0794  0.1251  0.0099
27366W        W46900  15.106   9.696   3.605 -0.0663 -0.3304  0.3227
27367W        W46901   5.191  17.737   0.394 -0.2254 -0.0617  0.1972
27368W        W46902  13.933  11.740  12.424 -0.1276  0.2191 -0.0335
27369W        W46903  11.182   6.361  12.179  0.1657  0.0023  0.0098
27370W        W46904  17.857   7.365  14.665 -0.0081 -0.1345 -0.3526
27371W        W46905   9.588   2.553  12.925  0.1296  0.2498  0.2047
27372W        W46906   4.623   8.033  13.645  0.0860  0.1354  0.0911
27373W        W46907   8.520  15.697   4.150 -0.1949  0.0488  0.4097
27374W        W46908  14.429   8.724  15.888 -0.1349 -0.0948 -0.1122
27375W        W46909  13.330   4.850  15.841  0.0449  0.0895  0.4120
27376W        W46910  12.652  15.978   0.280 -0.0662  0.2294  0.4716
27377W        W46911   5.350   0.135  15.706  0.0302 -0.1562 -0.2605
27378W        W46912   6.150   1.292   0.896 -0.0698  0.1475 -0.4390
27379W        W46913   4.419   6.253   4.115  0.1388  0.2461  0.0912
27380W        W46914   6.561   4.853  13.484  0.1133  0.1636 -0.0663
27381W        W46915  10.651   4.982   4.979  0.1950  0.1174  0.3826
27382W        W46916  14.382   2.602   2.640 -0.0949  0.2472  0.0736
27383W        W46917   5.995  10.221  16.175 -0.0662  0.0872 -0.0524
27384W        W46918  15.505   5.573  12.685 -0.0044  0.0309  0.2587
27385W        W46919   0.850   8.787   4.515  0.2670 -0.2478  0.1471
27386W        W46920   4.476  13.776  15.711 -0.0261  0.1087  0.0922
27387W        W46921  10.196  17.824  11.966  0.2305 -0.0074 -0.0238
27388W        W46922  17.345   3.000   1.703 -0.0706  0.3302  0.0764
27389W        W46923   9.115   5.904   5.043  0.3328 -0.1106 -0.1521
27390W        W46924  13.792   3.238   0.245  0.1348 -0.0516 -0.0264
27391W        W46925  13.035  13.374   4.189 -0.0464 -0.0405  0.2063
27392W        W46926   4.739   1.005  14.613  0.0065  0.0279 -0.0119
27393W        W46927  11.988  13.421  16.595 -0.3751  0.0024 -0.0132
27394W        W46928   5.424   1.735   2.205  0.0022 -0.0214  0.2945
27395W        W46929   0.888   5.184  16.127 -0.1922 -0.0164 -0.0359
27396W        W46930  13.860  17.533   1.497  0.0802 -0.2133 -0.2076
27397W        W46931   0.007   2.486   1.058  0.2378  0.0244 -0.0815
27398W        W46932  12.578  16.610  15.455  0.1400 -0.2133  0.1976
27399W        W46933  15.784  17.473   3.606 -0.0789  0.4114  0.0070
27400W        W46934   8.307   7.752   0.153 -0.0248  0.0500  0.3105
27401W        W46935   6.768   3.009  15.402 -0.4290 -0.1542  0.0224
27402W        W46936   3.519   4.455  13.383 -0.1085 -0.1177 -0.3573
27403W        W46937   8.943   7.111  16.442 -0.0329 -0.4266 -0.3986
27404W        W46938   4.506  15.964  13.378  0.1504 -0.0025  0.2099
27405W        W46939  15.685   8.214  16.053 -0.0038  0.0754  0.0850
27406W        W46940   3.981   4.905   1.128  0.0658  0.3636  0.2050
27407W        W46941  17.223   2.424  15.063  0.1454 -0.1873 -0.3014
27408W        W46942   6.159   7.257   1.710 -0.1836  0.2549  0.1886
27409W        W46943   6.549  14.272   0.556 -0.1716 -0.1163 -0.3082
27410W        W46944   1.002  17.065  13.452 -0.0290  0.0312 -0.0907
27411W        W46945   0.783   4.624  13.854  0.2148 -0.3080 -0.2124
27412W        W46946  10.314  12.012   4.077  0.0057  0.0910  0.3424
27413W        W46947   7.914   3.058  13.901  0.1314  0.0947  0.1981
27414W        W46948  17.434   0.661  14.792 -0.0246  0.0641  0.2519
27415W        W46949   7.653  16.932  14.226  0.1508  0.1272 -0.1432
27416W        W46950  10.736   9.270  13.995 -0.1390 -0.0377 -0.2332
27417W        W46951  11.651  14.500  12.486 -0.0578 -0.0388 -0.2214
27418W        W46952  14.960   0.623  12.707 -0.0817  0.0722  0.6752
27419W        W46953  11.241  13.081  11.652  0.0451 -0.0743 -0.0729
27420W        W46954   8.352  11.340   2.264  0.0782 -0.1606  0.1682
27421W        W46955   3.158  16.357   0.907  0.5649  0.1112  0.0343
27422W        W46956  11.761   5.453  15.202 -0.1564  0.0135  0.2190
27423W        W46957  10.020   6.427   2.534  0.0879 -0.0233 -0.1725
27424W        W46958  17.574  16.855   4.889  0.1740  0.1683  0.1462
27425W        W46959   7.844  16.616   2.620 -0.2010 -0.1934 -0.0752
27426W        W46960  17.169   1.532   0.920  0.0623 -0.1308 -0.1854
27427W        W46961  14.548   7.225   4.313  0.0692 -0.0464  0.1779
27428W        W46962   5.168  12.015   2.622 -0.2204  0.0438 -0.0766
27429W        W46963  13.382   7.567   0.992  0.1247 -0.1006 -0.1078
27430W        W46964  11.501  16.285   4.843  0.3238  0.0374  0.0497
27431W        W46965  11.863  16.413  14.755  0.2097 -0.0423 -0.0813
27432W        W46966   9.547   9.440  16.155  0.1212  0.0223 -0.1674
27433W        W46967  16.870  14.839  16.232 -0.1533  0.2209  0.1243
27434W        W46968   7.933   9.456  14.852  0.2467  0.0909 -0.1221
27435W        W46969   2.685  15.033  12.507  0.0993  0.0250  0.0295
27436W        W46970   0.681  12.959  12.883 -0.1005 -0.2563 -0.0649
27437W        W46971   7.918   7.671   1.531  0.1257 -0.1099 -0.1790
27438W        W46972   0.965   6.208   1.568  0.0076  0.3943 -0.0751
27439W        W46973  17.178  14.553   0.920 -0.0129  0.1756 -0.0177
27440W        W46974   6.243   4.028  13.946  0.2113  0.0237 -0.1451
27441W        W46975  13.064   7.293   2.748  0.3947 -0.3692 -0.1942
27442W        W46976  17.321  13.634  14.905  0.0594 -0.3383 -0.2412
27443W        W46977  17.079   5.941   2.810 -0.0143  0.3698 -0.1310
27444W        W46978   9.340   8.115   3.526 -0.0020 -0.1340  0.0043
27445W        W46979   4.720   7.181  15.405 -0.4423 -0.1215  0.0480
27446W        W46980  11.601  15.545  14.627  0.1726  0.2654  0.1549
27447W        W46981  15.693  15.248   0.819  0.1769  0.0368  0.1522
27448W        W46982   9.620   8.563   2.830 -0.0896 -0.0761  0.1756
27449W        W46983   7.338  14.847  12.321  0.1872 -0.0687  0.0769
27450W        W46984  15.427   8.478  11.651 -0.1107 -0.1213 -0.3535
27451W        W46985  12.406   7.767   1.194 -0.0914  0.1576 -0.0878
27452W        W46986   9.203  13.047  13.054  0.0274  0.0425 -0.0419
27453W        W46987   4.056  13.260  16.318  0.0162  0.3162 -0.0383
27454W        W46988   7.338   6.280   4.180  0.5535  0.1258 -0.2322
27455W        W46989   1.330   8.662   1.005  0.0777  0.0918 -0.4352
27456W        W46990  12.986  14.293  14.384 -0.1771  0.0836 -0.0103
27457W        W46991   2.980  10.421   2.239  0.0711 -0.1716  0.0825
27458W        W46992  12.231   8.967   0.273 -0.2981 -0.2781 -0.1569
27459W        W46993   1.016   0.116  13.568  0.2309  0.0974 -0.0195
27460W        W46994  11.297   5.442  15.455 -0.2061 -0.0123  0.0185
27461W        W46995  12.266   7.583   4.583 -0.0772 -0.2253 -0.0362
27462W        W46996   7.804   4.069   5.014 -0.2247 -0.0419 -0.2639
27463W        W46997  10.597   4.090   0.608  0.1112 -0.1973  0.2136
27464W        W46998  12.189  12.076  14.869  0.1368 -0.2200  0.0227
27465W        W46999  17.563   1.388  16.091 -0.0419  0.0301  0.1665
27466W        W47000   7.002   2.245   3.316 -0.2365  0.0036 -0.1368
27467W        W47001  11.713  12.734   1.937  0.0399 -0.1650 -0.0054
27468W        W47002  11.485  13.300   0.076  0.2495  0.2384 -0.3002
27469W        W47003   0.055   7.644   3.462  0.0157 -0.1169 -0.0621
27470W        W47004   5.734   7.221  13.402 -0.2904  0.1789 -0.2423
27471W        W47005  14.140  10.813  12.003 -0.0824  0.0946 -0.2817
27472W        W47006   1.957   6.767   3.797  0.2265  0.0613  0.2478
27473W        W47007   1.121   9.991   2.234  0.0732 -0.2673  0.1578
27474W        W47008  10.345  14.631   4.256  0.1421  0.1751 -0.0238
27475W        W47009   5.940   1.768   2.055  0.2256 -0.0536 -0.2015
27476W        W47010   6.176  15.645   2.424 -0.4010 -0.1263  0.0587
27477W        W47011   3.047  14.821  16.289 -0.0589  0.1282 -0.4645
27478W        W47012   3.779   4.545   1.381  0.0618 -0.1996 -0.1825
27479W        W47013  13.804  12.952   3.915 -0.1403 -0.1582 -0.2416
27480W        W47014   7.853   3.736  16.555  0.0406  0.4362 -0.0875
27481W        W47015  10.721   2.419  16.587 -0.0809 -0.0586  0.2389
27482W        W47016  12.449  10.222   4.322  0.0262  0.0029  0.0135
27483W        W47017   9.293   3.491  13.981  0.1559  0.0083  0.1132
27484W        W47018   3.268  16.517  13.101 -0.0004  0.0945  0.2501
27485W        W47019   1.581  16.580  16.590 -0.0864  0.4529  0.2949
27486W        W47020  14.765   5.970  12.697 -0.0250 -0.1629  0.1168
27487W        W47021  12.120   9.437  15.360 -0.1710  0.2614  0.1702
27488W        W47022   4.875   4.029   0.779 -0.1379  0.2038 -0.0045
27489W        W47023  13.296  12.370  13.772  0.4410 -0.3649  0.3776
27490W        W47024   5.099  14.288   1.618  0.4486 -0.0441 -0.5664
27491W        W47025  15.227  13.632   1.469 -0.1675 -0.0177 -0.2046
27492W        W47026   6.796  14.390  13.409  0.1085 -0.1893  0.3784
27493W        W47027  15.447  11.497  13.445 -0.3489  0.0423 -0.0806
27494W        W47028  10.704  14.771  15.307 -0.2042 -0.2803  0.1201
27495W        W47029  10.833  13.605   3.803  0.1474 -0.2622 -0.1544
27496W        W47030   9.869   4.060   4.076 -0.1666  0.2909  0.2859
27497W        W47031   1.407  11.248   2.765  0.0166 -0.2135 -0.1352
27498W        W47032  12.508  13.410  16.534 -0.3209  0.0077  0.2607
27499W        W47033   1.307   6.797   2.812 -0.0550 -0.0014 -0.2400
27500W        W47034   5.842  16.726   4.477  0.0985  0.2666  0.0028
27501W        W47035   3.953   8.192  15.086 -0.0581 -0.0058 -0.2379
27502W        W47036  12.212   0.677   5.082 -0.2341 -0.3714 -0.1662
27503W        W47037   5.556  15.841   3.727  0.0466 -0.5779  0.5285
27504W        W47038  13.073   4.599   3.281  0.2435 -0.1209 -0.1080
27505W        W47039  17.353  14.195  15.549 -0.2444  0.1659 -0.2092
27506W        W47040  12.137   7.002  13.675  0.1030  0.0038 -0.1985
27507W        W47041   6.696  17.626   3.507  0.1383 -0.1547 -0.3679
27508W        W47042  14.608  13.574   1.133 -0.0369 -0.0316 -0.0162
27509W        W47043   8.319   3.977   1.244 -0.3145  0.2642  0.2597
27510W        W47044  13.148  12.183   3.833  0.3082  0.0193 -0.0480
27511W        W47045  13.256   4.703  15.026 -0.1111 -0.0423  0.1232
27512W        W47046   0.748   2.350  15.377 -0.0725  0.3070 -0.0180
27513W        W47047  14.999  14.792  16.028 -0.2322  0.4904 -0.0447
27514W        W47048  10.114  13.824  14.697 -0.2764 -0.2791  0.1847
27515W        W47049   6.029   0.184  13.568 -0.1775 -0.0935 -0.0304
27516W        W47050  11.735   3.353   3.908 -0.1410  0.1601  0.0960
27517W        W47051  10.250  12.040   2.296 -0.3381  0.1159  0.0530
27518W        W47052  16.170   8.119  16.132 -0.0773 -0.0481 -0.1162
27519W        W47053   1.934  11.263  11.919 -0.1991 -0.2337 -0.1463
27520W        W47054   5.687   0.012   2.574  0.0953  0.0069  0.1077
27521W        W47055  10.231  15.530  13.913  0.1994 -0.2630  0.0943
27522W        W47056   9.898  13.799   1.685 -0.1852  0.0382  0.1504
27523W        W47057   2.130  13.837   0.112  0.0294 -0.1733  0.0574
27524W        W47058   4.225  15.748  14.665 -0.0961 -0.2069 -0.0074
27525W        W47059   2.747  15.657   3.762  0.2570  0.0972  0.0485
27526W        W47060   8.659   6.791  13.293 -0.1079  0.1238  0.1161
27527W        W47061   7.899   8.992  13.855  0.3338 -0.0426 -0.1545
27528W        W47062  15.644   4.028   4.622  0.0044 -0.0628  0.0033
27529W        W47063   8.348  13.398  16.480 -0.1329 -0.0671 -0.1100
27530W        W47064  10.593  17.399  16.360  0.3185  0.1745  0.2056
27531W        W47065  15.243  11.500   2.972  0.0528  0.4122 -0.0954
27532W        W47066   8.607  10.081   4.826  0.0491 -0.1446  0.3973
27533W        W47067   8.702   7.380   1.579 -0.0750 -0.0752 -0.1526
27534W        W47068   5.502   9.547  14.619  0.1732  0.4067 -0.0711
27535W        W47069  17.188   8.729  11.871 -0.0860 -0.0359  0.0422
27536W        W47070  10.387  14.841   0.911 -0.4360 -0.0897  0.1726
27537W        W47071   4.793   7.831   4.402  0.2364  0.1367  0.1371
27538W        W47072  15.072  10.932   4.323  0.0011  0.1190  0.0176
27539W        W47073  14.834   6.194   4.678  0.0706 -0.3824  0.0745
27540W        W47074  14.304  16.190  14.632  0.1179 -0.2288  0.0608
27541W        W47075   5.202   8.238   2.857 -0.1066 -0.0764 -0.1018
27542W        W47076  14.276  12.980   3.947 -0.1757  0.0673  0.2645
27543W        W47077  14.750   9.626  12.994  0.0810  0.1672  0.1670
27544W        W47078  13.854  16.027   1.704 -0.1171 -0.0943 -0.2318
27545W        W47079  12.374  10.064  12.319 -0.0024  0.3882  0.2345
27546W        W47080   6.258   0.541   0.593  0.2003  0.2085 -0.1166
27547W        W47081   5.148  13.965  16.170  0.2351 -0.0862 -0.1066
27548W        W47082   4.805   1.155   0.884  0.0086  0.2443  0.1011
27549W        W47083  11.037   5.624  11.636  0.0681  0.0355 -0.1842
27550W        W47084  17.861  15.224  12.826  0.1627 -0.7277 -0.1760
27551W        W47085  15.380  14.505   4.158  0.1901  0.0405  0.1114
27552W        W47086   0.739   2.610  12.247 -0.1976 -0.3516 -0.0336
27553W        W47087  17.433   2.926  12.832 -0.4559 -0.0368  0.0912
27554W        W47088   6.302   2.202  15.210 -0.1949 -0.0086 -0.1593
27555W        W47089   3.511  15.199   3.300 -0.0002  0.0393  0.1251
27556W        W47090  14.719  10.032  13.948 -0.3448 -0.0255 -0.1042
27557W        W47091   7.261   3.281  15.447  0.2229 -0.2439  0.3116
27558W        W47092   1.153  13.890  12.964 -0.0469 -0.1725  0.1508
27559W        W47093  13.980   9.305  12.736 -0.2533 -0.1467  0.2903
27560W        W47094   6.212   6.296  12.562 -0.3114 -0.0409 -0.0389
27561W        W47095  11.047  10.222   2.922 -0.0680 -0.1964 -0.1889
27562W        W47096   1.454   2.375  16.571 -0.2287 -0.1991 -0.1723
27563W        W47097   8.342   0.928   1.154 -0.0182 -0.1464  0.1447
27564W        W47098  10.625  12.548  13.525  0.1237 -0.2747  0.0885
27565W        W47099   8.766  14.774  13.417  0.0216  0.0108 -0.0626
27566W        W47100   0.634   2.717  13.029 -0.3133  0.0712  0.2715
27567W        W47101   5.495   2.179  13.041 -0.1965  0.1669  0.2136
27568W        W47102   8.476   8.245   0.168 -0.2676 -0.3635  0.1406
27569W        W47103  16.484   8.830  12.610 -0.1367  0.1029  0.0689
27570W        W47104   5.134   4.139   3.624  0.2593 -0.0635 -0.1463
27571W        W47105  10.341  11.253   3.780 -0.0411  0.2703  0.1329
27572W        W47106   0.696   1.030   0.921  0.1397 -0.0437 -0.0072
27573W        W47107  13.468   1.300   3.875  0.0388 -0.0063 -0.1486
27574W        W47108   6.450   4.222   1.568 -0.0857  0.0155 -0.0920
27575W        W47109   3.842  17.258   3.358 -0.3038  0.0268  0.1876
27576W        W47110   7.757   6.053   2.143 -0.1829 -0.1020  0.1409
27577W        W47111   7.863   0.534   4.577 -0.0034  0.1733 -0.0285
27578W        W47112   5.098   9.577  14.228  0.2576  0.4750  0.1211
27579W        W47113   7.923  16.080  12.393 -0.2659 -0.0755  0.3664
27580W        W47114   9.307  10.057   2.677 -0.1373 -0.1078 -0.0359
27581W        W47115  13.113   6.200  13.319  0.0366  0.0169  0.2009
27582W        W47116   6.855  10.876  13.305  0.2422  0.1116 -0.1659
27583W        W47117   3.105  11.730  14.857 -0.0522  0.1552 -0.2364
27584W        W47118  15.499   3.189   4.061  0.0501 -0.1246  0.1661
27585W        W47119  12.843   5.044  13.673  0.1661 -0.4756  0.1668
27586W        W47120   6.521   5.357   4.810  0.0792 -0.0164  0.3429
27587W        W47121  11.886  14.586   2.835  0.3210 -0.2334 -0.3659
27588W        W47122  16.056  14.680  16.016  0.0529  0.1080  0.2416
27589W        W47123   5.851   5.293   0.912 -0.1113 -0.0938  0.0623
27590W        W47124  17.509  15.554   2.182  0.0117 -0.0396  0.2198
27591W        W47125   7.919  17.666   5.030 -0.0872 -0.3215 -0.0490
27592W        W47126   4.409  15.180   1.765 -0.1876 -0.0908  0.2018
27593W        W47127  17.722   1.884   3.401  0.0194 -0.0982  0.2761
27594W        W47128   5.146   1.681  15.096 -0.2950 -0.0417 -0.2985
27595W        W47129   8.661  14.167   0.382 -0.0090  0.2334  0.1048
27596W        W47130  13.851  12.539   0.735  0.0401  0.0859  0.0652
27597W        W47131   0.136   5.273  12.777 -0.1380 -0.1617  0.0256
27598W        W47132   1.225  14.921  14.057  0.0231  0.3498 -0.0990
27599W        W47133  17.043   1.873   2.215 -0.2306  0.3034 -0.4241
27600W        W47134   8.496  10.727   3.512 -0.1466 -0.3053  0.0552
27601W        W47135   7.239   9.778   2.607 -0.2323  0.1601 -0.1266
27602W        W47136  12.174  16.465  13.536 -0.3788 -0.0946  0.1916
27603W        W47137   6.272   2.047   3.933 -0.1176 -0.0417  0.1507
27604W        W47138   0.912   8.523  11.932  0.0608 -0.1741  0.1401
27605W        W47139  15.631  16.582   2.622 -0.0297  0.0140  0.3981
27606W        W47140  17.451   7.169  13.125 -0.2914  0.2411  0.0217
27607W        W47141  16.266   6.432   3.128  0.2977 -0.2419 -0.1787
27608W        W47142   0.962   4.135   3.107 -0.1998 -0.1698  0.1101
27609W        W47143   5.221  12.198  15.950  0.0954 -0.1141  0.2573
27610W        W47144  11.316  17.015  15.085  0.0215  0.1270 -0.3003
27611W        W47145  12.841  16.559   4.535  0.0190  0.0552  0.1085
27612W        W47146  16.988  15.303  14.705 -0.0251  0.0583 -0.0467
27613W        W47147  16.330   1.718   3.774  0.3961 -0.1863 -0.0836
27614W        W47148   4.477   5.256   1.484 -0.1496  0.1140 -0.0757
27615W        W47149  12.123  15.635   3.228  0.3582  0.1254 -0.3148
27616W        W47150   7.102  11.236  14.555  0.1072  0.1597 -0.4119
27617W        W47151   3.088   5.524  14.262  0.1211  0.4608 -0.0758
27618W        W47152   2.112   5.016  14.640  0.1203 -0.1254 -0.1154
27619W        W47153   7.575  12.133  14.359  0.0931  0.2773  0.0812
27620W        W47154   7.697   6.331  12.322  0.2133  0.0041  0.1030
27621W        W47155  10.310   9.755   2.607 -0.2090 -0.1942 -0.1164
27622W        W47156   7.984  15.603  16.003  0.0113 -0.0579  0.1908
27623W        W47157  13.653  13.506   2.217 -0.0073  0.2262 -0.0635
27624W        W47158   7.630  14.123  16.450 -0.3427 -0.1589 -0.0281
27625W        W47159   4.044  11.635  13.507 -0.0192  0.0808 -0.0286
27626W        W47160   9.830  10.303   1.943 -0.2653 -0.1079  0.1066
27627W        W47161   5.374  14.934   0.842 -0.0943  0.3735 -0.1696
27628W        W47162  11.515   1.067   1.333 -0.0549 -0.2395 -0.2398
27629W        W47163   6.342   5.665  12.176 -0.0455 -0.0795 -0.2056
27630W        W47164   3.402  15.037  12.413  0.0133  0.0502 -0.2177
27631W        W47165  16.111  15.010  12.604 -0.0044  0.1936 -0.1524
27632W        W47166   8.651   3.478   2.346 -0.0617 -0.1489 -0.1098
27633W        W47167   6.977  10.632   4.164 -0.1279  0.1547 -0.2141
27634W        W47168   7.326  13.576  14.570 -0.2982  0.1270  0.3748
27635W        W47169   5.904   7.805   0.723  0.0702  0.2311  0.0624
27636W        W47170   8.277  14.834   5.208  0.1576  0.2376 -0.0085
27637W        W47171  16.787   3.869  12.721 -0.1610 -0.3411 -0.2943
27638W        W47172  16.482   4.993   1.921 -0.1520 -0.1662  0.0296
27639W        W47173  16.936   9.708   3.306  0.3780 -0.2325  0.1371
27640W        W47174   4.981   8.475   4.213  0.3146  0.2601  0.0173
27641W        W47175  13.841   4.196   4.356  0.0578 -0.3437 -0.2544
27642W        W47176  16.927  10.534  14.272 -0.1913  0.2784 -0.0758
27643W        W47177   2.966  14.246   2.913  0.0867 -0.1305 -0.0129
27644W        W47178   4.837   6.729   6.126 -0.1891  0.2131  0.0910
27645W        W47179  13.622  13.885   1.894  0.0649 -0.2474 -0.0219
27646W        W47180  12.763   5.327  12.433 -0.0190  0.0882 -0.3467
27647W        W47181   4.942  16.466   3.819 -0.0523  0.0303  0.0765
27648W        W47182   8.854   2.324   1.362  0.0419 -0.0797  0.2556
27649W        W47183  10.795  15.212   4.495  0.1202  0.1010 -0.0280
27650W        W47184  12.394  13.171  15.325 -0.2520  0.2028  0.2525
27651W        W47185  17.125  12.939  16.177  0.0225  0.3670 -0.0296
27652W        W47186   2.074  16.137   1.096 -0.0398  0.3508  0.0477
27653W        W47187   4.697   4.640  13.869  0.1038 -0.1357  0.1165
27654W        W47188  10.141  11.020   2.281 -0.1226 -0.0484 -0.2815
27655W        W47189  16.351  14.608  12.488  0.1395  0.1935  0.1870
27656W        W47190   7.808  12.116  15.227  0.4548 -0.1992 -0.2803
27657W        W47191  16.736  10.856   2.260  0.1323  0.1433  0.0521
27658W        W47192   6.861   9.734   5.686  0.0004  0.1393 -0.0405
27659W        W47193   1.875   4.564  15.956  0.0632  0.1532 -0.1289
27660W        W47194  11.587  10.440   2.604  0.2717  0.0670 -0.1946
27661W        W47195  10.357   2.489  14.344  0.0583 -0.1447  0.0844
27662W        W47196   0.188   9.449   3.936 -0.7282  0.1553 -0.0475
27663W        W47197   3.609   2.305   4.651 -0.1065 -0.0780 -0.1228
27664W        W47198  15.816   5.037   3.149  0.0401  0.0051 -0.3386
27665W        W47199   1.697  13.298   2.207  0.2657 -0.1369 -0.1161
27666W        W47200   4.260   9.508  12.059  0.0574  0.0247 -0.2066
27667W        W47201  14.296   3.250  15.681 -0.1231  0.0489  0.2539
27668W        W47202   7.750   8.031   3.316 -0.1013  0.4235 -0.0261
27669W        W47203   7.591  17.456  14.054 -0.1036 -0.0749 -0.2292
27670W        W47204  12.394   9.486   0.123 -0.1676 -0.0622 -0.0299
27671W        W47205   5.432  11.395  15.523  0.0064  0.1936 -0.1569
27672W        W47206   8.076  16.529  13.362 -0.1649  0.0590  0.0960
27673W        W47207   6.442   2.018   0.303 -0.0167 -0.2822  0.0060
27674W        W47208  12.795  16.975   0.168 -0.0423  0.1156 -0.0223
27675W        W47209   3.500  10.492   1.170  0.2333  0.0184  0.2366
27676W        W47210   8.856  11.803   0.619 -0.0685 -0.0830 -0.1273
27677W        W47211   4.714   0.826  16.337 -0.1854 -0.3152 -0.4009
27678W        W47212  15.847   7.657  12.489  0.1830  0.0111 -0.1427
27679W        W47213  14.371  14.441   1.491 -0.0929 -0.1963  0.0689
27680W        W47214  14.961   3.781   5.679 -0.2031  0.1129  0.0654
27681W        W47215  10.376   0.845  15.865  0.1468 -0.0185 -0.0120
27682W        W47216  14.232  10.559   0.904  0.1082  0.2749  0.0515
27683W        W47217   9.600  17.717  16.060  0.0747 -0.0084 -0.0021
27684W        W47218  10.003   5.713   4.847  0.3034  0.6127 -0.1239
27685W        W47219   1.263  10.909   1.430 -0.2765  0.1540  0.1329
27686W        W47220   1.759  10.257   2.135  0.0096 -0.1353  0.2209
27687W        W47221   6.795  14.879   3.437 -0.1780 -0.0124 -0.0896
27688W        W47222  10.726  11.539   4.667 -0.2468  0.0558 -0.1803
27689W        W47223  12.967   7.516   4.141 -0.0057  0.0892  0.1888
27690W        W47224   6.519   6.642   4.114  0.0713  0.0871 -0.3919
27691W        W47225   3.246  10.457   2.647 -0.2640  0.1624 -0.1346
27692W        W47226  16.634  16.695  13.697 -0.0900  0.0890 -0.0814
27693W        W47227  10.673  14.665   2.987  0.1529 -0.2343  0.0498
27694W        W47228   8.839   3.674  13.867  0.0994 -0.1538 -0.1529
27695W        W47229  16.368   7.374   0.486 -0.0317  0.1016  0.3114
27696W        W47230   3.331   9.111   4.266 -0.1333 -0.0733 -0.2940
27697W        W47231   5.167  10.822  12.650 -0.2154 -0.1782 -0.3385
27698W        W47232   2.330   3.494   1.062 -0.0076 -0.1231 -0.0442
27699W        W47233   4.038  10.025   2.043 -0.1457  0.3575 -0.1201
27700W        W47234  13.515  16.377  14.069 -0.0276 -0.2433 -0.1190
27701W        W47235   0.213   2.856  14.962  0.0335 -0.1761 -0.1403
27702W        W47236  16.246  13.945   0.896  0.2063 -0.0795 -0.2235
27703W        W47237  13.492  13.905   0.901 -0.1702 -0.1221 -0.0349
27704W        W47238  17.736  10.288   4.309 -0.0786  0.3631  0.1766
27705W        W47239   2.924  14.468   0.818  0.0380  0.4478  0.0678
27706W        W47240  12.035  16.998   4.744 -0.3339 -0.2871  0.0484
27707W        W47241  17.042  11.567   0.802  0.3659  0.0404 -0.3417
27708W        W47242   7.061  12.025   3.153 -0.3556 -0.1864  0.2627
27709W        W47243  12.040   3.739  16.431  0.1941  0.0132 -0.2381
27710W        W47244  15.778  16.090  14.309  0.1974 -0.1308 -0.2406
27711W        W47245   7.718   3.139   1.425  0.2727  0.0652  0.1136
27712W        W47246   8.975   6.487   5.034 -0.0116 -0.2445  0.0703
27713W        W47247   0.170  16.624  15.254  0.2275 -0.1348  0.4268
27714W        W47248  16.489  16.814  12.416  0.0239 -0.1092  0.1070
27715W        W47249   5.848  14.540  12.194  0.0033 -0.0065 -0.0220
27716W        W47250  15.996  12.017   0.122 -0.1842  0.2032 -0.5768
27717W        W47251  16.724  17.618  13.666  0.2740 -0.2789 -0.2011
27718W        W47252   8.021  15.879   0.940 -0.0400  0.1401  0.0976
27719W        W47253   3.778   4.145  16.727 -0.0435  0.2878 -0.1053
27720W        W47254   8.374   6.357   0.902  0.0152  0.0532 -0.5387
27721W        W47255   0.473  11.753  14.000  0.4517  0.0809  0.0742
27722W        W47256   8.091   3.327   1.062 -0.0045 -0.0362  0.2189
27723W        W47257   4.139   2.688  16.082  0.0344  0.3039 -0.0448
27724W        W47258  16.734   9.252   0.314 -0.2072 -0.0257 -0.0465
27725W        W47259  15.226   3.284  16.653 -0.0226 -0.0660 -0.3168
27726W        W47260   9.486  11.634   3.965  0.0055  0.0359  0.3658
27727W        W47261   6.967  11.102  11.085  0.2737 -0.0961 -0.0330
27728W        W47262   1.331  17.820  16.076 -0.1094  0.1932 -0.0050
27729W        W47263   5.115  11.565  16.195 -0.0996 -0.0622  0.0677
27730W        W47264  13.539   6.954  13.587 -0.1427  0.1816 -0.3167
27731W        W47265  14.432  15.346  16.299  0.3044  0.0001  0.0310
27732W        W47266  14.808  15.480   3.033  0.1894 -0.1791 -0.0116
27733W        W47267   9.893   1.614  13.075  0.0048 -0.0587 -0.0252
27734W        W47268   7.818  14.049   5.082  0.0315  0.3352  0.0124
27735W        W47269   5.988  13.785   3.084  0.3096  0.0993 -0.2143
27736W        W47270  14.097   9.952   4.102 -0.0393 -0.0281 -0.4610
27737W        W47271  14.890   7.623  14.362 -0.1440 -0.1691 -0.2704
27738W        W47272   5.698   5.742  14.321  0.0364 -0.2800  0.1775
27739W        W47273   8.278   5.926  11.663 -0.1238 -0.1631  0.0129
27740W        W47274  16.845   7.637   0.662 -0.0356  0.0182 -0.1926
27741W        W47275  13.612   1.445   4.335  0.1049  0.0603 -0.0017
27742W        W47276  11.961  11.268  15.443 -0.0931  0.0806  0.0557
27743W        W47277  12.308   4.805   0.846  0.1418  0.2515  0.1665
27744W        W47278   0.098   6.822  14.981  0.1618  0.0599 -0.0554
27745W        W47279   9.961   4.357   3.489  0.1971  0.3804 -0.0686
27746W        W47280  10.100  13.305  16.210  0.0816  0.2947 -0.1638
27747W        W47281  16.397   8.972  11.532  0.0466  0.1731 -0.2107
27748W        W47282  13.124   5.397  13.407  0.1723 -0.1314 -0.3180
27749W        W47283   6.706   5.450  16.325 -0.0920  0.3710  0.0447
27750W        W47284  10.727  12.687   4.791 -0.0422  0.2274 -0.1913
27751W        W47285  11.023   2.251  13.216  0.1089  0.0519 -0.2122
27752W        W47286  17.311   8.554  13.595 -0.3103  0.3119  0.1720
27753W        W47287  13.557  14.491   2.062 -0.2273  0.1417 -0.0551
27754W        W47288   9.700   4.583   5.138 -0.0048 -0.0388  0.0640
27755W        W47289   4.858   6.426   3.848  0.1649 -0.1239  0.0659
27756W        W47290   9.010   2.037   2.078  0.0370 -0.0711  0.0558
27757W        W47291   5.326   1.657  13.735 -0.1048  0.3657  0.1111
27758W        W47292   1.511   3.432   2.649 -0.4195 -0.1140  0.0346
27759W        W47293  15.122  11.980  15.513  0.0869 -0.1753  0.0885
27760W        W47294   6.849  10.070  15.577  0.3996 -0.1838 -0.1977
27761W        W47295   9.872   0.369   1.283  0.0942 -0.2865  0.2206
27762W        W47296  11.480   1.644  16.415 -0.1223  0.0755 -0.2098
27763W        W47297  11.253  11.883   2.462 -0.1625  0.3112  0.0023
27764W        W47298   2.879   5.173  12.041 -0.1496  0.2290 -0.2199
27765W        W47299   7.026   3.341   4.835 -0.0627  0.0563  0.3051
27766W        W47300  17.741  10.443  12.318  0.1737  0.1413  0.0699
27767W        W47301  10.153  12.382  13.554 -0.1547 -0.0064 -0.2022
27768W        W47302  14.315   6.637   1.851 -0.0763  0.1528 -0.0673
27769W        W47303   7.428   0.740  10.695 -0.0965 -0.0817 -0.0009
27770W        W47304  11.097   9.589   2.103 -0.1330 -0.1989  0.1004
27771W        W47305  11.990  17.441  16.185 -0.2008 -0.1666 -0.1241
27772W        W47306   5.060   9.899  12.458 -0.0628  0.0048  0.0032
27773W        W47307  10.735   2.783  15.846 -0.0744  0.0756 -0.2272
27774W        W47308   8.133   1.390  14.825 -0.0737 -0.2050 -0.0939
27775W        W47309   3.899  12.136   4.146 -0.0986 -0.0604  0.0107
27776W        W47310  13.279   6.184   4.045  0.2720 -0.2116  0.0601
27777W        W47311   9.397   3.740   3.268 -0.2504  0.0145  0.3476
27778W        W47312   6.530  13.124  12.871  0.0497  0.0171  0.0878
27779W        W47313   2.634   4.011   4.491  0.2695  0.2293 -0.3125
27780W        W47314  13.094   8.974  13.203  0.1292 -0.1931  0.0228
27781W        W47315   5.563  16.630  14.517 -0.0184  0.1888 -0.2761
27782W        W47316   4.935  15.165  14.916  0.4249 -0.1637  0.0514
27783W        W47317  15.341  13.191  11.815 -0.0124 -0.3563  0.0463
27784W        W47318  11.540  15.958  12.584 -0.1774 -0.0614 -0.2339
27785W        W47319   2.943  16.332  12.662  0.1838 -0.1430  0.1474
27786W        W47320   6.723   6.663   3.256 -0.0146 -0.1520 -0.1118
27787W        W47321   2.914  13.805   1.542 -0.3185 -0.0890 -0.0889
27788W        W47322   4.743  13.102  12.723  0.0267 -0.2044  0.0196
27789W        W47323  16.567   8.914  15.400 -0.1255 -0.2653  0.0051
27790W        W47324   2.588  15.878   3.372  0.1855  0.0203 -0.0009
27791W        W47325   4.723  16.315  13.089 -0.0949  0.1754  0.1024
27792W        W47326  16.538   2.979  12.394 -0.0806  0.2065 -0.3304
27793W        W47327  17.393  10.478  16.030  0.2082 -0.1280  0.2577
27794W        W47328  10.967  15.372   3.649 -0.0155  0.0781  0.2564
27795W        W47329  12.500   4.080   4.615 -0.0200  0.0689 -0.1445
27796W        W47330   8.039   2.772   3.382  0.4917 -0.1714  0.1177
27797W        W47331   8.853   1.738  16.517 -0.4340  0.1370 -0.2025
27798W        W47332  17.036   8.660  15.417  0.0001 -0.0321  0.2328
27799W        W47333   3.887   8.208   1.513 -0.2101  0.0698 -0.1888
27800W        W47334   7.676   1.210  10.686  0.0698 -0.1914 -0.1565
27801W        W47335   7.191   0.556  12.356 -0.0470  0.3243 -0.0181
27802W        W47336  12.186   7.954  13.412 -0.0978 -0.2714  0.1185
27803W        W47337  13.635   3.270  11.526 -0.0693  0.1580 -0.0674
27804W        W47338   2.632   9.676   4.155 -0.1908 -0.1526  0.1589
27805W        W47339   3.595   2.594   2.214 -0.1347 -0.4635  0.1279
27806W        W47340   2.353  16.732   1.506  0.1296 -0.1431 -0.2114
27807W        W47341  10.434  12.400  12.704  0.1126  0.1754  0.0187
27808W        W47342  10.847   0.733   4.370 -0.0343  0.1040  0.2715
27809W        W47343   6.131   2.400  11.789  0.1833  0.4505  0.3089
27810W        W47344  13.157   3.793   4.344 -0.0947 -0.1762 -0.0819
27811W        W47345   3.690  12.716   1.659  0.0211  0.0740 -0.3968
27812W        W47346   2.757  12.473   3.288  0.2196  0.0214  0.1083
27813W        W47347   6.448   5.587   1.918  0.2977  0.0618 -0.1241
27814W        W47348   7.465  12.348  12.170  0.2301 -0.1469  0.2229
27815W        W47349  17.459  16.009   4.334  0.2772 -0.0299 -0.2098
27816W        W47350  13.795   0.921  14.146  0.1113  0.1665  0.1076
27817W        W47351   2.717   3.948  16.146  0.1862  0.1403 -0.2302
27818W        W47352   1.776   2.261   1.413  0.0191  0.0737 -0.0537
27819W        W47353  16.275  15.442   1.986 -0.0571 -0.3079  0.2767
27820W        W47354   3.856  14.415  16.532 -0.0962 -0.2270  0.3707
27821W        W47355   6.809   0.640  12.053  0.1322  0.0938 -0.0090
27822W        W47356   5.677   2.715  13.814 -0.2354  0.1893 -0.1233
27823W        W47357  12.249   1.493  14.995 -0.0167 -0.1419 -0.0560
27824W        W47358  14.847   6.325  15.111 -0.0754 -0.0518 -0.1087
27825W        W47359   6.836   1.947  12.169 -0.4460  0.0198  0.2357
27826W        W47360  15.401   4.866   2.805  0.1042  0.0858  0.0125
27827W        W47361  11.420   0.068   4.300  0.0658  0.0604  0.1221
27828W        W47362   4.818   4.160  12.605 -0.1379  0.1023  0.1085
27829W        W47363   9.914   7.720   0.827 -0.1436  0.0683  0.0787
27830W        W47364  17.677   6.531  13.964 -0.3631 -0.1388  0.2678
27831W        W47365  10.411  15.366   4.897 -0.0237 -0.0903 -0.1683
27832W        W47366  15.674  16.971   4.971  0.3423 -0.2361  0.2529
27833W        W47367  15.247   5.962  12.830 -0.1845  0.1203 -0.0006
27834W        W47368   4.068   2.212   2.915 -0.2126  0.1041 -0.0749
27835W        W47369   3.143  17.208   1.671 -0.0392 -0.2265  0.2646
27836W        W47370   7.821  11.201  16.043 -0.1606  0.2776 -0.2150
27837W        W47371   0.236   2.060   2.722 -0.0573  0.0598 -0.3071
27838W        W47372  12.063  17.695  13.000  0.2057  0.0680 -0.0228
27839W        W47373  13.673  17.450  12.711 -0.4443 -0.0663 -0.0095
27840W        W47374  16.715  16.531   0.934  0.2208  0.2230  0.0061
27841W        W47375  15.671   4.692  12.668 -0.0703 -0.4804 -0.0335
27842W        W47376   2.995  10.186   5.302 -0.1814  0.0474 -0.1417
27843W        W47377   9.513   0.573   3.158 -0.2948 -0.0213 -0.1441
27844W        W47378  12.947  16.805  13.105  0.3900 -0.2283 -0.3501
27845W        W47379   7.100  15.228   4.928  0.1965 -0.2558  0.0731
27846W        W47380  14.068  16.914   0.361  0.0046  0.1285  0.1525
27847W        W47381   8.488  13.317  15.453 -0.0173  0.3873  0.2713
27848W        W47382   1.315   7.768  15.111  0.0831  0.0756 -0.0788
27849W        W47383   4.818   7.022  14.769  0.0456 -0.0258 -0.0084
27850W        W47384   8.945  16.473  16.242 -0.0630 -0.0231  0.1878
27851W        W47385   8.718   5.736   3.136  0.0733  0.0132  0.2751
27852W        W47386   0.217  15.291  14.282  0.1827 -0.0915  0.0684
27853W        W47387  13.886   5.968  13.964  0.1350  0.0211 -0.0620
27854W        W47388   5.208   2.190   2.321  0.0629  0.1979  0.0448
27855W        W47389   1.981  16.492  13.688 -0.0979  0.0236 -0.0054
27856W        W47390   5.037   9.067   0.521 -0.1819 -0.1631  0.0560
27857W        W47391   0.529   1.217  13.866  0.1467  0.1403 -0.1443
27858W        W47392  16.806  13.886  12.565  0.2444  0.0494  0.0973
27859W        W47393  15.620  12.878   3.160  0.3613  0.2179  0.2064
27860W        W47394  12.600  17.231   3.985  0.0322 -0.4862  0.1323
27861W        W47395  15.943  15.263   4.123 -0.1304 -0.2135  0.0376
27862W        W47396  11.481   3.559   0.494 -0.0718 -0.2359  0.2050
27863W        W47397  13.883   7.326   1.114 -0.2439  0.0932  0.2540
27864W        W47398   8.098   9.613  16.514 -0.1195 -0.3277  0.0286
27865W        W47399  14.310  11.980  14.057  0.3613 -0.0327 -0.1410
27866W        W47400   1.712   1.963   1.771  0.0138 -0.0029  0.3965
27867W        W47401   0.720  15.608   4.860  0.1524  0.1101  0.1105
27868W        W47402  11.767   5.990  11.646 -0.0953 -0.0406  0.1150
27869W        W47403   4.504  13.621   0.807  0.3072 -0.3028 -0.0623
27870W        W47404   9.065  16.971  12.584  0.0183 -0.2438  0.2341
27871W        W47405   4.610  14.240   3.498  0.0280  0.1963 -0.0458
27872W        W47406   2.472  11.754   1.729  0.0883  0.0104 -0.0292
27873W        W47407   9.569   5.528   3.320 -0.2346 -0.4141 -0.0611
27874W        W47408  13.740   7.124  16.287  0.2110 -0.1463  0.1354
27875W        W47409  12.162   1.237  16.729 -0.0340 -0.1251  0.0309
27876W        W47410  16.333   8.542   4.427  0.1677  0.2722 -0.1078
27877W        W47411   6.770   3.274  12.784  0.2005 -0.1338 -0.1031
27878W        W47412  11.709   0.839  12.309  0.0332  0.2601 -0.0866
27879W        W47413   7.213  12.290   2.526  0.3365  0.0751  0.0757
27880W        W47414   6.035   3.126  13.696  0.1756  0.4820  0.0205
27881W        W47415  15.449   7.903   2.158  0.4230  0.0492 -0.2565
27882W        W47416   1.645   6.588   4.832  0.1337 -0.0341  0.1582
27883W        W47417   8.296   4.440   4.329 -0.1456 -0.1268  0.4045
27884W        W47418  14.025   4.276  13.817 -0.0424  0.1390  0.0013
27885W        W47419   8.133   2.130   1.940 -0.2406 -0.0555 -0.1266
27886W        W47420  17.016  16.499   0.105  0.1465  0.1101 -0.2837
27887W        W47421  14.750   1.764   3.272 -0.1973 -0.0168 -0.0258
27888W        W47422   5.565   6.250  14.462  0.4189 -0.1906  0.0254
27889W        W47423   8.328  16.837   2.994  0.3542 -0.0673  0.1785
27890W        W47424  11.578   0.578   2.993 -0.0226 -0.2038 -0.0323
27891W        W47425  17.041   3.321   1.405 -0.2224 -0.0445 -0.0115
27892W        W47426   0.645  15.043  16.740  0.2135  0.1235  0.0925
27893W        W47427   6.792   1.109   5.289 -0.0154 -0.1957 -0.1206
27894W        W47428  15.528  16.578  15.132  0.0102  0.2938  0.0944
27895W        W47429   8.201   9.276  12.745  0.0025 -0.1335  0.0049
27896W        W47430  12.176   5.582  12.423 -0.2167  0.0117 -0.1513
27897W        W47431  13.405  13.090  15.945  0.1383  0.0837 -0.0676
27898W        W47432   3.630  10.997  12.437  0.1051 -0.0371  0.2064
27899W        W47433  10.805   9.218   4.733 -0.0994  0.2014 -0.0385
27900W        W47434  17.906  15.240  12.259  0.0887 -0.1469 -0.0340
27901W        W47435  14.985  16.930   5.089  0.0823  0.2727  0.0931
27902W        W47436  12.718  17.572   2.673 -0.1840 -0.2448  0.2933
27903W        W47437   0.575   1.802   1.437 -0.0475  0.3385  0.1909
27904W        W47438   2.119   3.191   1.979 -0.0730 -0.1082  0.0665
27905W        W47439  13.378   3.103   1.248  0.1310  0.2074  0.2233
27906W        W47440   5.293   7.729   4.329 -0.2149  0.0816  0.1710
27907W        W47441  17.595  12.644   3.598  0.2383  0.0133  0.1005
27908W        W47442  16.575   7.750  13.907 -0.2586 -0.1504  0.0733
27909W        W47443  11.550  13.956   0.786  0.1230 -0.0278  0.0753
27910W        W47444  14.115   7.196  12.668  0.0208  0.0165  0.1514
27911W        W47445   3.588   9.923  14.758 -0.2189 -0.2550  0.1595
27912W        W47446   2.142  14.293   1.508 -0.2299  0.0721 -0.1076
27913W        W47447  17.499   7.329  14.135  0.3853  0.2926  0.3063
27914W        W47448  14.414   2.100   4.707  0.2120  0.2575 -0.0057
27915W        W47449  13.036   9.078   1.278 -0.0131  0.0463  0.1830
27916W        W47450   3.557   0.705  12.210 -0.1354 -0.0944  0.0426
27917W        W47451  17.202  15.773  13.356  0.1818 -0.0254  0.0846
27918W        W47452  17.082   3.270  12.948  0.0220 -0.0569  0.0362
27919W        W47453  13.113  14.007   2.844  0.0547  0.2266  0.0109
27920W        W47454   4.128   0.535   3.838 -0.0467 -0.1385  0.1326
27921W        W47455  14.950  14.546   3.839 -0.3135  0.1498  0.0387
27922W        W47456   5.220   2.774   1.214 -0.1674 -0.0114 -0.0498
27923W        W47457   1.673   3.003  14.938  0.0773  0.3027 -0.2920
27924W        W47458   9.516   2.772   0.084  0.1772 -0.1555  0.1478
27925W        W47459  17.313   3.077  13.988  0.1283 -0.2222 -0.0405
27926W        W47460  12.496   9.196   3.559  0.3760 -0.0747 -0.1518
27927W        W47461   2.477  11.299   2.497 -0.2173 -0.0560 -0.1839
27928W        W47462   0.360  11.872   4.047 -0.3527  0.2921 -0.2105
27929W        W47463   6.885   0.565  15.871 -0.1244  0.1099 -0.2208
27930W        W47464   4.714   8.216   1.000 -0.1974 -0.0033 -0.1091
27931W        W47465  11.179  14.116   3.302 -0.4371  0.0405 -0.2342
27932W        W47466  16.445   4.321  13.571 -0.0126  0.2734 -0.1207
27933W        W47467  11.088  16.014   4.418  0.2468 -0.1090 -0.2933
27934W        W47468  15.203   5.216   3.812  0.2495 -0.1165  0.0921
27935W        W47469  11.391   0.461  10.953  0.3314 -0.1840  0.0115
27936W        W47470  12.377   0.561  15.365  0.0343  0.4602  0.3602
27937W        W47471  16.811   9.940  13.082  0.0927  0.0360  0.2421
27938W        W47472  16.199   5.388  12.235 -0.3774 -0.1491 -0.3952
27939W        W47473  17.071  15.433   2.039 -0.1739 -0.3605  0.2745
27940W        W47474   3.312   0.425  15.624  0.2037  0.6297  0.0653
27941W        W47475  10.148   6.936  15.020 -0.1024  0.1011  0.2789
27942W        W47476  17.898  11.308  14.906  0.0058  0.4673 -0.2201
27943W        W47477  10.723  13.705   0.480  0.1145  0.0200 -0.0279
27944W        W47478   3.284  12.767   2.569  0.1638  0.2442  0.3697
27945W        W47479   1.840  10.663  16.466 -0.1128  0.1147  0.0310
27946W        W47480   7.007  15.929   3.274 -0.1239 -0.2953 -0.1607
27947W        W47481   9.633  14.654  12.424 -0.1034 -0.0724  0.0267
27948W        W47482   9.127  16.457   4.012 -0.0991  0.0173  0.1214
27949W        W47483   0.528   5.981  15.439  0.0936 -0.4245 -0.3362
27950W        W47484   7.561   8.310   5.177  0.2046 -0.0360 -0.2431
27951W        W47485   5.985  10.963   3.009 -0.1373 -0.0913 -0.1911
27952W        W47486   7.062   7.799   4.343  0.0385  0.1227  0.1956
27953W        W47487  16.449  13.505  16.321 -0.1056  0.2169 -0.4382
27954W        W47488  13.242  10.054   3.344  0.0135 -0.1217  0.0088
27955W        W47489   6.320  15.646  15.923 -0.0120 -0.3418  0.1100
27956W        W47490   0.326   5.960   3.827  0.0115  0.0410  0.3082
27957W        W47491   5.390  15.366   4.511  0.0869 -0.1284 -0.0977
27958W        W47492   9.270   4.235   6.754 -0.1032  0.0158  0.0138
27959W        W47493   8.579  12.977   1.935  0.1073  0.1429 -0.1655
27960W        W47494   6.639   2.918   3.671 -0.2026 -0.1305  0.3288
27961W        W47495   4.068   0.711   4.809  0.1081 -0.0922  0.0166
27962W        W47496   6.687  13.736   5.034  0.0760  0.2938  0.0120
27963W        W47497   6.174   9.035  16.494  0.0257 -0.1232 -0.0161
27964W        W47498   4.404   6.150   2.434 -0.0035  0.2121 -0.2328
27965W        W47499  14.030   3.947  16.522 -0.1745  0.0870  0.2019
27966W        W47500  13.087   3.739  16.321 -0.2382 -0.0691  0.2151
27967W        W47501  14.702   8.549  14.593 -0.0341 -0.0498 -0.0888
27968W        W47502   2.729  13.177  12.563  0.0958 -0.0658  0.0886
27969W        W47503   1.616  15.866   4.077 -0.0084 -0.3547  0.1144
27970W        W47504  10.977  17.001  13.336 -0.3691  0.1228 -0.1791
27971W        W47505  10.584   9.421  15.678 -0.0981 -0.1195 -0.0326
27972W        W47506   4.713   1.905  11.724 -0.0392 -0.1908 -0.0047
27973W        W47507   3.720   8.467   3.744 -0.0974 -0.1395 -0.2543
27974W        W47508   5.567  10.717  16.110  0.0737 -0.2757  0.0223
27975W        W47509  13.303   4.839  12.907  0.0098 -0.1680  0.0205
27976W        W47510  10.541   8.534   2.981  0.0656 -0.1894 -0.1498
27977W        W47511   0.616   7.727  15.836  0.1211 -0.1607  0.3259
27978W        W47512   7.703  15.836  16.383  0.0095  0.0142  0.1505
27979W        W47513   7.499  14.044  14.619 -0.0122  0.2158 -0.0903
27980W        W47514   6.040   4.637   5.022 -0.2006 -0.0726  0.1638
27981W        W47515   4.972   5.707   0.460 -0.0372  0.1295 -0.0744
27982W        W47516   0.319  13.369  13.428 -0.0740 -0.0598 -0.1603
27983W        W47517   4.095   8.261  13.019 -0.0536  0.1242  0.0546
27984W        W47518   4.092   5.957   1.528 -0.0479 -0.3039  0.1173
27985W        W47519  14.746  13.243  12.395  0.0610  0.3033 -0.1983
27986W        W47520   2.262  11.723   4.680 -0.0594  0.3116 -0.0127
27987W        W47521   2.739  11.557  14.082  0.2091  0.1725 -0.5503
27988W        W47522  17.143  16.710  13.766  0.1070  0.1559  0.1701
27989W        W47523  11.713  12.342   4.695 -0.0498 -0.0643  0.1724
27990W        W47524  12.580   4.123  13.932 -0.0992 -0.0007  0.3320
27991W        W47525  12.675   6.209  15.266  0.0862 -0.1514 -0.2180
27992W        W47526  10.511  13.580  14.755 -0.1806  0.1229  0.0247
27993W        W47527  16.456   8.283  13.374  0.2303  0.0026  0.0525
27994W        W47528   9.971   1.829  13.851 -0.1334  0.1372 -0.3223
27995W        W47529  16.459   0.701   4.606 -0.1720  0.2962  0.0200
27996W        W47530  15.046   9.503   2.404 -0.1346  0.0963  0.3466
27997W        W47531  15.303  16.811  14.258  0.1223  0.0107  0.0543
27998W        W47532   5.524   1.203  15.276 -0.1042  0.0827 -0.0118
27999W        W47533  15.544   7.992  12.255 -0.0280  0.2446  0.1139
28000W        W47534  15.540  10.237   1.396 -0.3883 -0.1398  0.2378
28001W        W47535  13.970   0.215   4.453  0.3343  0.2058 -0.1351
28002W        W47536   8.263  12.714   3.517  0.0024 -0.1093  0.1588
28003W        W47537   4.658   4.118   0.066 -0.0769 -0.1747  0.1213
28004W        W47538  14.985  13.387   0.173  0.0101  0.1255 -0.1760
28005W        W47539  14.154   7.177  14.715 -0.1988  0.0887 -0.0801
28006W        W47540   5.329  14.985  12.862 -0.2817  0.1585 -0.2975
28007W        W47541   3.694   4.591  11.991  0.2286  0.0277 -0.0511
28008W        W47542   1.153  13.425   0.289 -0.1602 -0.3344  0.2417
28009W        W47543   3.707   0.685   2.524  0.0347  0.1890  0.0691
28010W        W47544  16.493   3.769   4.646  0.1691  0.1093 -0.0624
28011W        W47545   0.082   4.953   4.497  0.0573  0.0549  0.0151
28012W        W47546  16.670   5.421  13.020  0.2144 -0.0045 -0.2109
28013W        W47547   3.574   1.952   2.978  0.0174 -0.0036  0.0970
28014W        W47548  10.104  12.688   1.702 -0.0153 -0.0059 -0.0290
28015W        W47549  13.315  12.399   0.030 -0.0264 -0.1075 -0.0129
28016W        W47550   1.915   4.083  15.122  0.1110 -0.0569 -0.1905
28017W        W47551  13.384  16.422  13.479  0.3932 -0.2226 -0.2959
28018W        W47552  17.323   1.683   2.597  0.1552  0.0905 -0.0348
28019W        W47553  15.253   7.264  15.333  0.0683  0.4395  0.0843
28020W        W47554   5.319   3.674   1.028  0.3525  0.0464 -0.0633
28021W        W47555   9.103   6.210  11.827  0.0506 -0.2289  0.0876
28022W        W47556   4.812  13.809  13.296  0.1100 -0.1662  0.1214
28023W        W47557  11.855  12.166   4.176 -0.0828 -0.0596  0.2086
28024W        W47558  10.043  15.244   1.616  0.0472  0.1973  0.4924
28025W        W47559   5.738   2.778   1.108 -0.4844 -0.0946  0.1183
28026W        W47560   2.678   3.865  15.651 -0.1230  0.0340  0.0604
28027W        W47561   0.706  11.033  16.656  0.0785  0.3866 -0.0272
28028W        W47562   0.918   7.596  13.197  0.0524  0.0363 -0.1063
28029W        W47563  12.263  14.542  11.406  0.0497  0.4479  0.3476
28030W        W47564   8.876  13.186  16.362 -0.0190 -0.2001  0.0808
28031W        W47565   9.726  16.431   0.691 -0.1726  0.0902  0.4365
28032W        W47566   6.097   9.921  13.869 -0.0613  0.0724 -0.1640
28033W        W47567   4.933   9.616  16.185  0.0351 -0.0524 -0.2425
28034W        W47568   1.824   2.632   4.070  0.0035  0.1842 -0.1503
28035W        W47569  15.661   1.883   1.303  0.1928  0.1315  0.2300
28036W        W47570   1.605  16.843  13.385 -0.2501 -0.0889  0.1023
28037W        W47571   5.951  14.044   1.318 -0.0570 -0.2277 -0.0029
28038W        W47572   2.635  11.452  15.630 -0.3269 -0.0042  0.0642
28039W        W47573   2.803  17.376  14.742 -0.1579  0.2076 -0.0454
28040W        W47574   7.932   5.165   1.685  0.0269 -0.3749 -0.1390
28041W        W47575   5.014   8.686   1.789 -0.1320  0.0357 -0.1302
28042W        W47576  11.778   0.264  16.711  0.2512 -0.4945  0.1672
28043W        W47577   5.166   5.688   2.042 -0.1241  0.1670  0.0702
28044W        W47578  17.087   9.911   0.233 -0.0708 -0.0714  0.3325
28045W        W47579   5.881  17.121  16.205 -0.1292 -0.1259  0.4871
28046W        W47580   7.888  10.836  15.101  0.1195 -0.0732 -0.2652
28047W        W47581   0.428   6.688  12.960  0.1823 -0.1970  0.0489
28048W        W47582   0.949   5.475   0.772  0.0506  0.1010 -0.1650
28049W        W47583   9.392   6.994  12.514  0.1693 -0.2260 -0.4076
28050W        W47584  10.581   8.492  11.918  0.2801 -0.0423 -0.1004
28051W        W47585  13.146   1.722   3.774  0.1299 -0.2081 -0.0460
28052W        W47586  17.671   5.769   0.168  0.0377 -0.0342  0.0344
28053W        W47587  17.357   9.365  15.214  0.0470 -0.0040 -0.0839
28054W        W47588   7.471   9.873  14.018  0.1424 -0.2541  0.2471
28055W        W47589  10.082  12.538  15.471  0.0643  0.1543 -0.1907
28056W        W47590   6.739   3.252  16.017 -0.1713 -0.1126  0.0782
28057W        W47591   7.140  17.049   1.587  0.1415 -0.1606 -0.2563
28058W        W47592  10.625  11.464  14.180  0.0887  0.1606  0.1734
28059W        W47593   7.938  14.510   1.050 -0.2625  0.1459  0.1402
28060W        W47594   1.524   8.949   0.168 -0.0164  0.0389 -0.1030
28061W        W47595   4.969   7.821   2.573  0.1868  0.1353  0.0284
28062W        W47596   4.005   1.876  12.433 -0.0396  0.1035 -0.0763
28063W        W47597  10.503  12.042   3.108  0.0590 -0.2472 -0.0204
28064W        W47598   6.928   3.721   2.567 -0.0921  0.2426 -0.0493
28065W        W47599  15.217  16.107  12.524  0.0085 -0.0781  0.1978
28066W        W47600  10.001   6.496  13.368  0.5271 -0.2997  0.1017
28067W        W47601   6.275   8.468  12.879  0.0459 -0.0243  0.2022
28068W        W47602   0.260   9.158  15.528  0.2998 -0.1353 -0.0939
28069W        W47603  15.611   5.790   0.102 -0.1780  0.2924  0.0037
28070W        W47604   2.471   9.672  15.893  0.3784 -0.0989  0.2666
28071W        W47605  11.109   7.459  12.585 -0.0611 -0.2251 -0.0636
28072W        W47606  17.810  13.491  12.621 -0.0645 -0.1727 -0.0713
28073W        W47607  13.229  10.209  15.109  0.1996  0.3638  0.0035
28074W        W47608  14.530   9.488  13.882 -0.3073  0.0818  0.1866
28075W        W47609   0.829  15.668   4.355  0.0790 -0.1594 -0.0368
28076W        W47610   6.346  17.810  13.897 -0.3245 -0.0473 -0.0332
28077W        W47611  13.544  12.268  15.508  0.2871  0.3762 -0.1446
28078W        W47612  17.034   6.609  12.498  0.0930 -0.0204  0.0245
28079W        W47613   5.997   9.270   0.163  0.0280  0.1664  0.0744
28080W        W47614   8.294  17.037  13.314 -0.0222 -0.5010  0.1563
28081W        W47615  14.350   0.355  16.339 -0.0341  0.1504 -0.0518
28082W        W47616   1.323   0.724   1.557 -0.0517 -0.0533 -0.2216
28083W        W47617   0.589   7.495   0.778  0.0262  0.0073 -0.2260
28084W        W47618   4.513   0.822   3.608  0.1049 -0.0499  0.1769
28085W        W47619   3.499  14.613   4.126 -0.0825  0.4883  0.1745
28086W        W47620  11.115   4.023   0.521 -0.0368  0.0607  0.0622
28087W        W47621   5.648   8.060  13.465  0.0934 -0.1664  0.1556
28088W        W47622  10.513  11.074   0.664  0.0690 -0.2979  0.1552
28089W        W47623   0.870   7.560  15.184 -0.0339 -0.1334  0.4143
28090W        W47624   2.554   6.539   3.457  0.2788  0.0811  0.0419
28091W        W47625   3.722   9.403  16.155  0.0660  0.1318 -0.0604
28092W        W47626   3.552   8.112   4.157 -0.1431  0.3559 -0.1049
28093W        W47627   6.682   2.461  12.069 -0.1544 -0.2486 -0.0447
28094W        W47628   5.934   9.536   0.636  0.0088 -0.0862 -0.0352
28095W        W47629   9.961  15.859  13.569  0.1808 -0.0400 -0.0230
28096W        W47630  15.567  14.475   1.304 -0.2862  0.0557 -0.0413
28097W        W47631  17.434   2.414   0.929 -0.1185  0.1419  0.1936
28098W        W47632   3.463   0.189   2.064  0.2377  0.1489 -0.0564
28099W        W47633   6.108   3.856  15.410  0.0172  0.2781  0.1618
28100W        W47634   1.093   1.741   4.573 -0.0395 -0.0463  0.0859
28101W        W47635   9.813   6.774   1.105  0.0411  0.0346  0.2221
28102W        W47636   6.158  12.402   2.280 -0.2362  0.0557 -0.3749
28103W        W47637  13.649  13.227  11.590  0.0645 -0.1866 -0.0472
28104W        W47638  13.795   6.008  14.452  0.1049 -0.0503  0.0225
28105W        W47639   5.965  12.187   0.240  0.0654  0.0187 -0.0189
28106W        W47640   3.510  11.376   2.296  0.0277  0.0963  0.1598
28107W        W47641  17.377  16.322   4.732  0.0178 -0.0676 -0.0065
28108W        W47642   0.469  17.192   3.617 -0.0278 -0.2076 -0.2519
28109W        W47643   5.352  12.861   0.202 -0.0608 -0.0446  0.2385
28110W        W47644   9.659   5.764  14.190 -0.1138 -0.0859 -0.0994
28111W        W47645   6.172   9.296  15.236  0.4714 -0.1572  0.1091
28112W        W47646  12.498   7.495  15.975 -0.0659  0.0056  0.1132
28113W        W47647   0.509   8.062  12.544  0.1035 -0.0899  0.0495
28114W        W47648   4.020   4.689   2.029  0.2289  0.3445 -0.0679
28115W        W47649   8.874  17.308  14.443 -0.3142  0.1480 -0.2397
28116W        W47650  15.816  11.264   0.638  0.0985  0.2585  0.2249
28117W        W47651   1.942   5.826   0.034 -0.1258 -0.3476  0.1252
28118W        W47652   4.071  10.897   3.349 -0.3967 -0.2544  0.1284
28119W        W47653  14.271  10.586   2.878  0.2006 -0.4218  0.1613
28120W        W47654   1.583   0.328  16.108  0.0521  0.0485  0.3925
28121W        W47655  12.289   6.701  12.914  0.0014 -0.2334  0.2090
28122W        W47656   3.375  10.736  16.457  0.1868  0.0712 -0.3635
28123W        W47657   3.806   4.924  16.172  0.1148  0.0665 -0.0207
28124W        W47658   4.861   8.615  12.534  0.0455 -0.1863  0.0941
28125W        W47659  14.255  10.603   2.273 -0.1552  0.1838  0.2230
28126W        W47660   4.088   3.319   5.079 -0.1448  0.0213 -0.2430
28127W        W47661   5.264   3.808  14.420  0.1248 -0.0837 -0.0943
28128W        W47662  16.590   1.253  13.568 -0.1674 -0.0574 -0.2258
28129W        W47663   1.746   3.121   1.167  0.1303 -0.1034  0.1107
28130W        W47664  16.069   9.740   2.098  0.3840 -0.1105  0.4160
28131W        W47665   9.248   9.876  16.384 -0.1336 -0.0281 -0.1597
28132W        W47666  14.121  14.815  14.893  0.0045  0.2748  0.1277
28133W        W47667  15.275  16.203   3.460 -0.0108  0.0929  0.2443
28134W        W47668  13.242   7.040  15.436  0.0969 -0.1138  0.2684
28135W        W47669  11.313   1.893   3.914 -0.1326  0.1199  0.2417
28136W        W47670   5.057   6.250  14.469 -0.0580 -0.0390  0.0955
28137W        W47671  11.783   4.409   3.063  0.2055 -0.1840  0.0325
28138W        W47672  15.813  15.616   3.351 -0.0012 -0.1624 -0.2865
28139W        W47673  15.824   8.391  14.555  0.1918  0.0056 -0.3043
28140W        W47674  12.593   1.807   4.417 -0.1556  0.3185  0.1301
28141W        W47675   2.773  11.976  16.231 -0.1338 -0.3519  0.1392
28142W        W47676   4.766   8.505  13.469 -0.1337 -0.0066 -0.0533
28143W        W47677   1.691  17.832   3.819 -0.3496  0.2984 -0.1199
28144W        W47678  14.486   8.749  13.158  0.0179 -0.3076  0.0167
28145W        W47679   8.197   8.860   1.219  0.1218 -0.0003 -0.0880
28146W        W47680  17.710   0.147   1.815 -0.2878  0.3500  0.2591
28147W        W47681   2.444  15.513  13.314  0.0367  0.2156 -0.1603
28148W        W47682  10.075  14.322  14.806 -0.4027 -0.2620 -0.3351
28149W        W47683   6.678   4.098   3.336  0.2345  0.4630  0.1735
28150W        W47684   6.474   1.000   3.097  0.2224 -0.1883 -0.0119
28151W        W47685   4.405   2.643   1.610  0.1991 -0.3579  0.2285
28152W        W47686   7.672  13.620  12.151  0.2634  0.1102 -0.0087
28153W        W47687  13.202   1.415   2.346  0.0378 -0.0311 -0.3017
28154W        W47688  13.408  11.650  12.351 -0.1727  0.3513  0.0909
28155W        W47689  17.534   6.305   4.930 -0.1798 -0.0248  0.2302
28156W        W47690   2.469   4.080  16.663 -0.0231 -0.1832 -0.0920
28157W        W47691  11.210   0.049   3.828 -0.1544  0.2888  0.0566
28158W        W47692  13.107  10.424   1.597  0.2357 -0.1324 -0.1559
28159W        W47693  16.574   8.866   0.586  0.1108 -0.3824  0.3884
28160W        W47694  14.879  16.933  14.445  0.0983 -0.0942 -0.3203
28161W        W47695   1.293   9.769   3.173 -0.1746  0.1061  0.3353
28162W        W47696   5.984   7.599  13.198 -0.1109 -0.1164 -0.1719
28163W        W47697   9.795  15.368   4.111 -0.0723  0.3144  0.0629
28164W        W47698  16.808  15.887  15.494 -0.2394  0.1436  0.1937
28165W        W47699  11.624   0.997  13.357  0.0393  0.0342 -0.1896
28166W        W47700  14.604   6.844   2.954  0.2024 -0.2318  0.1493
28167W        W47701   3.849   1.742   2.556 -0.0241  0.0922 -0.0296
28168W        W47702   0.443  15.069   0.470  0.0040  0.3627  0.2183
28169W        W47703   3.976   2.269   2.379  0.2018  0.0068  0.0137
28170W        W47704  16.409   1.192   1.127 -0.1410  0.0691 -0.2462
28171W        W47705  12.121  11.970   1.460 -0.0615  0.2108  0.3018
28172W        W47706  15.724   8.620  15.323 -0.0318 -0.1024 -0.1829
28173W        W47707   6.136  12.738  14.957 -0.0445  0.0332  0.1242
28174W        W47708  15.264  15.551   0.523  0.0050 -0.1298 -0.3001
28175W        W47709  15.299   6.677  13.509  0.1548 -0.1012  0.0789
28176W        W47710   3.680  17.646  14.615 -0.0878 -0.2852  0.1730
28177W        W47711  10.198   2.776  15.821 -0.1049 -0.1986 -0.0775
28178W        W47712   5.754  16.761  16.698  0.2329  0.1936  0.0011
28179W        W47713  14.242  16.943   2.622 -0.0113 -0.1592  0.0058
28180W        W47714   6.625  14.730   1.568 -0.1431 -0.0589  0.4766
28181W        W47715   7.706   1.961  15.420  0.1803  0.2967  0.1873
28182W        W47716   9.663   7.633   1.520 -0.0820 -0.1171 -0.2167
28183W        W47717  16.465   7.329   2.004 -0.0788  0.1733 -0.0911
28184W        W47718   3.255   3.977   1.867 -0.0940 -0.1360  0.0999
28185W        W47719   7.891   2.018  12.810 -0.1941 -0.1982 -0.1613
28186W        W47720  13.781   3.434  15.693  0.0717 -0.4976 -0.1769
28187W        W47721   7.198   1.272  14.911  0.3427 -0.1618  0.2567
28188W        W47722  11.255   9.715   3.820  0.1326 -0.4153  0.1184
28189W        W47723   5.109  13.169   0.514 -0.4971 -0.0202  0.1178
28190W        W47724   7.803   8.249  14.573  0.1756  0.0356  0.0236
28191W        W47725   1.347  16.771  14.868  0.2751 -0.2528 -0.0800
28192W        W47726   2.079   5.987  13.479 -0.2222  0.1791  0.1393
28193W        W47727  14.035  11.209   3.470 -0.0758  0.3226  0.2229
28194W        W47728  14.667   8.723   0.525 -0.1136  0.1062 -0.1954
28195W        W47729   7.460   2.419   3.109  0.0025 -0.1694  0.7650
28196W        W47730  11.249  11.933   1.947  0.2840 -0.0465 -0.0145
28197W        W47731  16.354   4.418  14.887 -0.2989  0.1322  0.1763
28198W        W47732   8.102   0.166   4.186  0.0235 -0.0007  0.0002
28199W        W47733   2.628  12.598   0.237 -0.3495 -0.0382  0.0183
28200W        W47734  16.891  13.649   2.228  0.0219  0.1591  0.1751
28201W        W47735   1.329  17.663  12.715  0.2860 -0.4342 -0.4155
28202W        W47736  12.981  15.802  15.394 -0.0317  0.2244 -0.0158
28203W        W47737  10.379   2.210   4.538  0.2370  0.2028  0.2945
28204W        W47738  16.388   1.369  15.557  0.0332 -0.3806 -0.3806
28205W        W47739  11.519  13.751   3.139  0.0603  0.2988 -0.1558
28206W        W47740   5.365  11.365   1.284  0.1384  0.0325 -0.0774
28207W        W47741   4.772   5.927   3.893  0.2133 -0.0972 -0.1369
28208W        W47742  13.072   2.388   4.712 -0.0464 -0.1339  0.2225
28209W        W47743   0.211   1.710  15.161 -0.3269  0.1279  0.0157
28210W        W47744  14.824   2.128  15.487 -0.2180  0.0333  0.1445
28211W        W47745  12.014   0.775   4.006  0.1287  0.2145  0.1817
28212W        W47746  13.170   3.576   1.990  0.0362 -0.2574  0.1399
28213W        W47747  16.756  14.505   3.413  0.2595 -0.0072 -0.0971
28214W        W47748  17.907  10.874  15.623  0.0488  0.1662  0.0996
28215W        W47749   5.661   9.831   1.992 -0.0126  0.0644  0.1082
28216W        W47750   2.085   9.383  15.839 -0.2871  0.0610 -0.2061
28217W        W47751  16.739   5.263  12.229 -0.0988  0.0641  0.1495
28218W        W47752   9.706  14.359   1.518 -0.0128 -0.1085  0.3150
28219W        W47753   9.161  15.546  15.608  0.3095 -0.0284  0.0650
28220W        W47754   0.960  15.567  14.537 -0.3802 -0.1430 -0.3050
28221W        W47755  17.224   9.324  14.717 -0.1105 -0.1817  0.0343
28222W        W47756   1.015   2.123   5.293 -0.0515 -0.2267  0.0625
28223W        W47757   7.311  11.664  14.311  0.1341  0.0571 -0.1179
28224W        W47758  12.594  11.261   0.972 -0.2572 -0.0387 -0.0769
28225W        W47759  14.612   4.429  12.012  0.4954  0.0380 -0.2418
28226W        W47760   1.678   3.832  12.459 -0.2624  0.0169  0.5755
28227W        W47761   6.862   8.301  13.607 -0.1986  0.2899 -0.1494
28228W        W47762   6.751   0.043   4.802  0.2594 -0.3743 -0.2807
28229W        W47763  12.134   8.863   2.012  0.2865 -0.0147 -0.0370
28230W        W47764  14.790   7.669   3.895  0.1602  0.2211 -0.0283
28231W        W47765  11.983   9.693  14.435  0.3156  0.1680 -0.2802
28232W        W47766   6.017   4.920  14.545 -0.3978  0.1552  0.1157
28233W        W47767  13.045  13.663  12.368 -0.0015  0.0834 -0.2418
28234W        W47768   2.871   4.261   0.403 -0.1384  0.1327 -0.1246
28235W        W47769   6.784   9.548  15.752 -0.0958  0.0775  0.1702
28236W        W47770   4.896   7.994  15.470 -0.1518  0.0600 -0.0911
28237W        W47771  17.537  12.709  13.661  0.0344 -0.0504  0.0422
28238W        W47772   3.171   6.048  12.035  0.2149 -0.0683 -0.1419
28239W        W47773   8.613  12.838  12.912  0.2896  0.0412 -0.2443
28240W        W47774  11.843   5.485  14.682  0.0093  0.1465  0.0455
28241W        W47775   0.766  11.538  16.535 -0.2952 -0.0865 -0.0059
28242W        W47776  13.574   1.707   2.550  0.3644 -0.1370 -0.1221
28243W        W47777  17.580   5.326  12.703  0.0093  0.1437  0.1215
28244W        W47778  15.375   1.218  13.683  0.1167 -0.0083 -0.0303
28245W        W47779  13.553   2.094   3.578  0.3835  0.3097 -0.0715
28246W        W47780   1.285  15.771   1.711  0.1387 -0.0516  0.3022
28247W        W47781   6.056   6.415  14.707  0.0928  0.2960  0.2628
28248W        W47782   0.478  11.005   2.734  0.1290  0.0842  0.0622
28249W        W47783  13.598   6.115  15.485 -0.1070  0.1081  0.1914
28250W        W47784  17.420   1.813  12.798  0.3581  0.0619 -0.2590
28251W        W47785   6.673   7.527  16.544 -0.0016  0.2803  0.2856
28252W        W47786   7.960   6.731  12.121  0.0375  0.3824  0.0863
28253W        W47787  10.303   5.842   5.157  0.0733  0.1049 -0.3980
28254W        W47788   7.116   8.482  15.293  0.0183 -0.4250  0.1407
28255W        W47789   9.793   3.443   1.105 -0.2469 -0.0044  0.0495
28256W        W47790   2.215  17.197  12.571  0.0378 -0.1769 -0.0552
28257W        W47791   2.571   0.749   0.100 -0.4328  0.3305  0.1373
28258W        W47792   8.543   3.488   3.393  0.0244  0.1477 -0.0337
28259W        W47793  14.050   9.502   2.963  0.0149 -0.1247  0.2071
28260W        W47794   2.211   2.677  15.776 -0.0215  0.0073  0.0659
28261W        W47795  17.017  10.343   3.615  0.2395 -0.1059 -0.0624
28262W        W47796   0.599   6.237  12.877 -0.0717 -0.0768 -0.2780
28263W        W47797  12.105  10.362   1.246 -0.2410 -0.0111  0.0402
28264W        W47798  12.825   1.082  15.551 -0.0336 -0.2089 -0.2365
28265W        W47799  14.376   7.287  13.587  0.1349  0.1560 -0.1588
28266W        W47800   2.128   2.713   4.515 -0.1419  0.0590  0.1332
28267W        W47801  17.129   4.668  13.061  0.0252 -0.1845 -0.1060
28268W        W47802  11.397   7.154  15.310  0.0657 -0.3046  0.1976
28269W        W47803  16.599  13.723   1.734 -0.5121 -0.2216  0.2077
28270W        W47804   5.199  10.430  13.958  0.1949  0.1608 -0.0564
28271W        W47805  11.054  10.899  15.071 -0.0382  0.0708 -0.5086
28272W        W47806   0.642  14.938  13.377  0.2746 -0.0741 -0.2743
28273W        W47807  12.427   1.576  14.006  0.4047  0.0070  0.0319
28274W        W47808  10.747   6.838   1.519 -0.0002  0.1041  0.1646
28275W        W47809   5.564  17.694   1.272 -0.0653 -0.2100  0.0595
28276W        W47810  10.511   4.460  12.737  0.0550 -0.1536  0.0395
28277W        W47811   0.973   8.081   3.518  0.2517 -0.1248  0.2438
28278W        W47812   2.660  13.794  15.874 -0.1068  0.1371 -0.0912
28279W        W47813   5.238   2.551   5.314 -0.1112 -0.5435 -0.1039
28280W        W47814   5.948  14.365  14.949 -0.2154 -0.0256  0.2458
28281W        W47815   5.629   5.744  16.444 -0.2143  0.0065 -0.1112
28282W        W47816  14.872   6.638   0.779 -0.3188 -0.0481 -0.0295
28283W        W47817   1.000   9.990   0.863 -0.1582  0.3178  0.2210
28284W        W47818  11.646  16.361  14.318  0.0368 -0.5057 -0.3091
28285W        W47819  13.967   9.062   3.909 -0.1492  0.1845 -0.0877
28286W        W47820   5.230  15.969   2.326 -0.0713  0.0194 -0.2123
28287W        W47821   9.991  14.160   3.178 -0.0075  0.1358  0.0837
28288W        W47822  17.214  16.815   2.810 -0.0916 -0.1846  0.1278
28289W        W47823  13.530  14.027  16.452  0.0921 -0.0365 -0.0037
28290W        W47824  17.321   9.983   2.354 -0.1085  0.1640  0.1096
28291W        W47825   6.477  16.733   1.136  0.0408 -0.2061  0.2101
28292W        W47826  10.024  10.830   3.767  0.0686 -0.1339 -0.0204
28293W        W47827  12.409  15.928  16.111 -0.0362  0.0323 -0.1180
28294W        W47828  11.297   4.956   0.984  0.0225 -0.1235  0.1235
28295W        W47829   7.625   5.087  10.915  0.0007 -0.1222  0.4198
28296W        W47830   4.768   1.906  13.801  0.0491 -0.2029 -0.0234
28297W        W47831   3.865   8.125  14.302 -0.2166 -0.2307  0.0961
28298W        W47832   8.250   6.509  13.116  0.1439  0.1176 -0.0230
28299W        W47833  12.876  11.812   3.501 -0.1913  0.0914  0.1612
28300W        W47834   8.644   0.039  13.133  0.1224  0.0611  0.0805
28301W        W47835   6.856   0.095  12.216  0.0620  0.0262 -0.2822
28302W        W47836  16.316   0.907  15.253 -0.0609  0.2413 -0.1595
28303W        W47837  10.167  14.234   4.540  0.1996 -0.1244 -0.2320
28304W        W47838  13.440   5.426  15.881  0.0387  0.0640  0.1402
28305W        W47839   2.057   3.239   4.483  0.0032 -0.0022  0.0845
28306W        W47840   9.558  16.152  12.342 -0.0933  0.2145  0.1016
28307W        W47841   8.001  12.104   0.091  0.0936 -0.2202 -0.1650
28308W        W47842  14.740  11.971   3.493  0.0218 -0.0294 -0.1005
28309W        W47843   5.340  10.683  13.427  0.1407 -0.1192 -0.0959
28310W        W47844   5.687   4.575   2.810 -0.1125  0.0237 -0.0307
28311W        W47845   8.625  15.129  14.787  0.4609 -0.1852 -0.0646
28312W        W47846   9.029  15.458  12.653 -0.0429 -0.0617 -0.3339
28313W        W47847   2.367  16.397  12.750 -0.0667 -0.0932  0.0821
28314W        W47848   1.187   8.335  15.162 -0.0501  0.0914  0.1371
28315W        W47849   9.307  12.913   0.073 -0.0048 -0.1591  0.0490
28316W        W47850   4.869   7.478   1.721  0.1372 -0.2155  0.1585
28317W        W47851   7.650  11.854   3.900  0.2945  0.4279  0.0507
28318W        W47852  14.840  17.454  14.414 -0.0533  0.0000 -0.3232
28319W        W47853   0.672  15.057   1.724 -0.0005  0.1305 -0.1701
28320W        W47854   0.035  10.787   3.431  0.2112  0.0898  0.0176
28321W        W47855  13.011   8.741   0.823 -0.0178  0.1432  0.0485
28322W        W47856   9.348   6.278   0.206  0.4868  0.1778 -0.3311
28323W        W47857   4.222   8.622   3.868  0.3052  0.0824  0.0246
28324W        W47858   1.749   1.538   3.594  0.0623 -0.0421  0.1246
28325W        W47859   1.506  16.276   4.934  0.0244  0.0968  0.0490
28326W        W47860   6.587   4.085   1.099  0.3047  0.0589 -0.2588
28327W        W47861   0.087  11.975  13.858  0.0341 -0.0456 -0.2780
28328W        W47862   7.448  11.139   1.997  0.1183 -0.0608  0.0721
28329W        W47863  10.341  11.877   4.576  0.1510 -0.0250 -0.1005
28330W        W47864   4.239  13.110  12.917  0.0505  0.2019 -0.3001
28331W        W47865  12.554   7.544  15.490  0.1937  0.1615 -0.1509
28332W        W47866   0.333  17.533  16.293  0.3074 -0.0061  0.3909
28333W        W47867  14.740  14.924  13.888  0.2381 -0.0650  0.1528
28334W        W47868   5.759   2.238   1.057  0.2067 -0.0868 -0.4228
28335W        W47869  13.856  17.030  14.494 -0.0420  0.0253 -0.1262
28336W        W47870   3.684   9.916   3.183  0.2603 -0.0313 -0.4819
28337W        W47871  10.710   0.922   2.391  0.1400  0.1192  0.0451
28338W        W47872   2.060  11.524   0.074 -0.0722 -0.1363  0.0724
28339W        W47873  12.796   9.107  15.020  0.0516 -0.3202  0.1252
28340W        W47874  17.121   9.272  12.008 -0.3489 -0.0414 -0.0272
28341W        W47875   0.778   4.870   3.439  0.1591 -0.1792  0.2625
28342W        W47876  16.271   8.329   1.043 -0.1559 -0.0449 -0.0921
28343W        W47877  16.342   0.747   3.480  0.1596 -0.1068 -0.1678
28344W        W47878  12.087   6.992  16.705  0.0481  0.0701  0.1624
28345W        W47879  12.700  15.585  14.412 -0.2079 -0.0197  0.1748
28346W        W47880  14.178   3.628   3.260  0.0111  0.2624  0.2412
28347W        W47881  17.559  11.720   2.656 -0.0006 -0.0133 -0.1497
28348W        W47882   5.035   7.921  12.868 -0.2514 -0.0508  0.0858
28349W        W47883  15.230   6.109  11.561  0.2325 -0.2175 -0.1189
28350W        W47884  10.668   6.695  15.026  0.1038 -0.1114 -0.0273
28351W        W47885   8.270  10.335  11.878  0.2172  0.0416  0.0303
28352W        W47886   0.653   1.383  15.277  0.1041 -0.1016  0.1730
28353W        W47887  12.076  14.230   0.949  0.0028 -0.1946  0.0106
28354W        W47888   8.503  16.676  12.260  0.1832 -0.2202  0.0935
28355W        W47889   1.897  17.074  13.855  0.1385 -0.1926 -0.0351
28356W        W47890  15.853   2.635  14.798  0.3714 -0.1203 -0.0591
28357W        W47891   9.508   0.763  12.855 -0.4750  0.0843  0.3214
28358W        W47892  13.079  12.722   4.045 -0.1695  0.0761  0.1188
28359W        W47893   3.445  12.159  14.586  0.1745 -0.0439  0.2348
28360W        W47894   0.799  10.657  13.391  0.0032  0.0988  0.2409
28361W        W47895  11.473   4.902   3.370 -0.1390 -0.1539 -0.2475
28362W        W47896   4.281  14.389   1.201 -0.2081 -0.0922  0.1357
28363W        W47897   0.908   3.474  15.924  0.1668 -0.0957  0.1606
28364W        W47898  13.073   7.159   1.328  0.1802 -0.1047 -0.4452
28365W        W47899  17.566  15.897   5.055  0.2200  0.2569 -0.0515
28366W        W47900   8.108   5.964   0.665  0.0380  0.1778  0.0477
28367W        W47901   0.279  17.661   0.900  0.1256 -0.1342  0.0685
28368W        W47902   8.619  16.531  13.257 -0.0874 -0.0508  0.0223
28369W        W47903   4.753  13.384  15.005 -0.2600 -0.1788 -0.1435
28370W        W47904   4.776   6.140   1.205  0.0049  0.2344  0.2674
28371W        W47905   1.828   1.805  14.457  0.2801  0.0795 -0.2891
28372W        W47906   5.324   0.231   2.916 -0.1292 -0.1502 -0.2152
28373W        W47907   2.031   1.445   0.020  0.0126  0.2222 -0.1294
28374W        W47908  17.033  15.703  12.256 -0.0355  0.0428 -0.0011
28375W        W47909   5.797   6.027   4.183 -0.2274  0.0427  0.1129
28376W        W47910   3.334   9.502  15.802  0.0649  0.0642 -0.2358
28377W        W47911   2.298  11.941   2.697 -0.1264 -0.0824 -0.2139
28378W        W47912   3.510   6.461   4.607 -0.0225 -0.0231 -0.1511
28379W        W47913  14.421   5.287  12.049  0.1480 -0.2259 -0.3971
28380W        W47914  16.327  15.569  15.433 -0.3079 -0.1228  0.2156
28381W        W47915   1.633  15.569  16.690  0.0513  0.0643 -0.0440
28382W        W47916  16.107   6.490  13.640  0.0551 -0.2690  0.0617
28383W        W47917  12.763   9.579   1.163 -0.0083 -0.1570 -0.3276
28384W        W47918   1.783  10.788   2.341  0.1045 -0.0517  0.2412
28385W        W47919   0.633  12.607  15.825 -0.1647 -0.0264 -0.1505
28386W        W47920   3.169  15.262  14.688  0.1724 -0.2153  0.2732
28387W        W47921   7.413  14.639   0.846  0.0305  0.2087 -0.0566
28388W        W47922  10.994  15.057   3.123  0.1023 -0.1073  0.1273
28389W        W47923   4.672  16.434  14.583  0.1130  0.0496 -0.1568
28390W        W47924   5.240   9.180  11.746  0.3238 -0.0499  0.0957
28391W        W47925   8.719  12.850   0.852 -0.1847  0.1291  0.1964
28392W        W47926   4.197  16.468  11.842  0.0051  0.2947  0.0882
28393W        W47927  17.478  13.014   3.216  0.2357  0.5039  0.1081
28394W        W47928  16.117  17.281   3.943  0.0211 -0.1534 -0.1153
28395W        W47929   0.852   4.589   3.031 -0.1931 -0.0573 -0.1458
28396W        W47930  11.693  14.554  15.444 -0.0282  0.0960 -0.1632
28397W        W47931  17.707  11.662   2.110  0.0550  0.2344  0.0185
28398W        W47932   1.165  17.799   3.933  0.5831  0.0460  0.0589
28399W        W47933  10.061   5.190   1.240  0.0967 -0.3339  0.2435
28400W        W47934  13.923   3.999  13.125 -0.1065  0.2690  0.1913
28401W        W47935  13.364   6.692  14.016 -0.2497  0.3130  0.1115
28402W        W47936   7.495   8.817  13.025 -0.0447 -0.1088 -0.1949
28403W        W47937   6.970  15.546  14.048 -0.1829  0.3215 -0.1943
28404W        W47938   4.887  16.708  15.595  0.1125  0.0124 -0.1502
28405W        W47939  16.661  14.376   0.951  0.1197 -0.1147 -0.1146
28406W        W47940   6.357   5.347   0.702  0.0249 -0.0540 -0.0444
28407W        W47941   3.188   0.683  16.079  0.2087  0.2695 -0.1161
28408W        W47942  12.567  13.527  12.351 -0.2778  0.0766 -0.4161
28409W        W47943   5.294   6.246  12.408 -0.1481 -0.0642  0.1547
28410W        W47944  10.138  16.519   1.588  0.0421 -0.2180  0.1915
28411W        W47945   9.884   6.209   3.993 -0.1876  0.0706  0.0987
28412W        W47946  11.826   2.204  11.797  0.0859  0.0904  0.1865
28413W        W47947   1.345   5.325   0.539  0.0259 -0.1798  0.3640
28414W        W47948  12.621   9.885  16.727  0.1878  0.1419  0.1822
28415W        W47949  11.743   1.669   2.387  0.2817  0.1244 -0.0215
28416W        W47950   6.475   2.967  13.514 -0.1082  0.1369 -0.0002
28417W        W47951   9.926   3.580   3.857 -0.1293  0.2618  0.0846
28418W        W47952   9.693  15.563  15.468 -0.2322 -0.0923  0.2433
28419W        W47953   3.446   0.949   0.228 -0.0406 -0.1899 -0.2283
28420W        W47954  10.380  10.907  12.026 -0.1065  0.2773 -0.1389
28421W        W47955   4.681   4.263   3.398  0.1933 -0.0448 -0.1487
28422W        W47956  11.606  16.781   2.810  0.1977 -0.5458 -0.0503
28423W        W47957  17.226  15.801  12.848 -0.2423 -0.4148  0.1789
28424W        W47958  16.113   3.349  12.530 -0.1332  0.0014 -0.2107
28425W        W47959   7.435  16.210  12.306 -0.0723 -0.1531  0.0381
28426W        W47960  10.321  10.360   0.319 -0.3375 -0.1863  0.1339
28427W        W47961  15.611   0.336  14.424  0.0801  0.1406  0.0009
28428W        W47962   7.279   5.475   0.070 -0.2174  0.1953 -0.2356
28429W        W47963   0.331  11.898  14.448 -0.2863  0.0233 -0.0366
28430W        W47964   2.105   2.685   1.280  0.0566  0.0283  0.3952
28431W        W47965   3.426   6.902   2.277 -0.0373 -0.0960  0.2046
28432W        W47966   4.889   5.726  15.169  0.1494  0.2622  0.1101
28433W        W47967   7.187   0.376   4.550  0.3814  0.2597 -0.0012
28434W        W47968   3.426  16.009   2.831  0.2166  0.0772  0.2293
28435W        W47969   7.686   4.392   2.693 -0.0259  0.3556  0.0941
28436W        W47970  10.856   1.586   0.157 -0.2191  0.1313  0.0761
28437W        W47971  14.723   5.277   0.140  0.1799 -0.2061  0.1994
28438W        W47972  14.295  12.066  15.035 -0.1769  0.5127 -0.0614
28439W        W47973  11.674   9.836   3.563  0.0450  0.0021 -0.0397
28440W        W47974  11.455   9.883   1.548  0.2102  0.0771  0.0255
28441W        W47975   7.944   9.953  13.112 -0.0034 -0.2820 -0.0382
28442W        W47976  13.381   1.531  13.411 -0.0821 -0.2296 -0.1628
28443W        W47977   6.344   5.307   1.488  0.1045 -0.3442 -0.1283
28444W        W47978  12.903   3.317  16.296  0.1162  0.3119 -0.1769
28445W        W47979   4.947  17.593   5.141  0.1517  0.3013 -0.2825
28446W        W47980   8.454  12.159   3.445 -0.2447 -0.1760 -0.1691
28447W        W47981  12.183  16.625  14.264 -0.0894 -0.2562 -0.1054
28448W        W47982   5.843  12.862   4.030  0.0950  0.0189  0.2809
28449W        W47983   8.405   2.155   5.243 -0.0164  0.3437  0.2205
28450W        W47984  12.557  16.326  14.918 -0.2122 -0.2446 -0.2665
28451W        W47985   2.236   5.455  13.520  0.1983 -0.1874 -0.1230
28452W        W47986   1.585  15.216   3.777 -0.1272 -0.1006  0.0869
28453W        W47987  10.244  15.453  14.568  0.1624  0.1110  0.0506
28454W        W47988   0.832   9.831  11.821  0.1945 -0.1875 -0.3599
28455W        W47989  11.430   6.250  13.251  0.0030 -0.0130 -0.1938
28456W        W47990  11.723   6.767  15.247 -0.1174 -0.3652  0.1674
28457W        W47991   4.563   2.761   6.042 -0.3068  0.0419 -0.0124
28458W        W47992  13.095  15.774   0.665  0.4921 -0.0474 -0.0409
28459W        W47993   8.125  11.594   3.882 -0.2660 -0.0896 -0.1270
28460W        W47994  13.530  15.446  16.144  0.1118  0.0454  0.1215
28461W        W47995   4.484  16.118   3.589  0.0048 -0.1051  0.0312
28462W        W47996  17.268  15.214  12.794 -0.2738 -0.5854 -0.1787
28463W        W47997  10.410   8.063   2.892  0.2154  0.2838 -0.1272
28464W        W47998  10.712   2.872   3.935  0.3148  0.0855  0.1731
28465W        W47999   3.151   0.183  13.757 -0.3845  0.2424 -0.0058
28466W        W48000   4.399  14.548  16.670 -0.1833  0.0472 -0.3102
28467W        W48001  11.146  17.579  16.146  0.0931  0.2985 -0.1339
28468W        W48002   7.813   0.410   2.849 -0.1077 -0.0017 -0.0498
28469W        W48003   0.038  17.552  11.754 -0.0432  0.4962  0.0140
28470W        W48004  11.434   7.125   2.569  0.1215 -0.0959  0.0637
28471W        W48005  15.679  14.139   1.647 -0.1407 -0.0414 -0.4123
28472W        W48006  11.816  15.963   3.052 -0.1947 -0.0260 -0.0743
28473W        W48007  11.272  13.695  12.262  0.1898 -0.0319  0.0483
28474W        W48008   4.641   1.849  13.074  0.0843 -0.1148  0.1132
28475W        W48009  13.720   4.710   1.854  0.0319 -0.2690  0.0004
28476W        W48010  17.794   7.233   3.914 -0.1617  0.1845 -0.1496
28477W        W48011   3.230   5.535  12.167  0.0630 -0.2444  0.1184
28478W        W48012  13.625   2.152   2.110  0.0936 -0.1162 -0.0227
28479W        W48013   3.578  11.302  14.280  0.3767  0.1223 -0.1499
28480W        W48014  17.131  10.069  15.696  0.1596  0.1015 -0.1390
28481W        W48015   9.430   4.756   4.672 -0.1102 -0.1737  0.2323
28482W        W48016   8.696  10.409  12.125 -0.2238  0.0583  0.1570
28483W        W48017  14.666  14.309  15.988 -0.0016 -0.1277  0.0555
28484W        W48018  14.254   3.772   4.546  0.3648 -0.1540 -0.0977
28485W        W48019  15.449  15.332   2.532 -0.0974  0.2694 -0.0771
28486W        W48020  10.486   0.664  15.419  0.0743  0.0982 -0.1191
28487W        W48021  12.187   1.297  12.758 -0.1481  0.2617  0.0729
28488W        W48022   1.503   2.046  14.187  0.1644 -0.1087  0.1697
28489W        W48023   0.759   3.125   0.335 -0.0202 -0.1449 -0.1726
28490ION     NA48024   4.216   2.844   6.436  0.0546  0.0966  0.0987
28491ION     NA48025  15.966   5.143   5.489 -0.0618 -0.1572  0.0481
28492ION     NA48026   4.533   7.567  12.441  0.1589 -0.2971 -0.3157
28493ION     NA48027   5.625   4.519   6.569  0.0440  0.0570 -0.0281
28494ION     NA48028  17.553  11.015  16.095  0.0179  0.3632  0.0093
28495ION     NA48029  17.329  16.718  14.223 -0.3339 -0.2178  0.3574
28496ION     NA48030   4.352   1.070  11.349 -0.0864  0.1529 -0.3253
28497ION     NA48031  13.930  16.094   5.827  0.4121  0.3617  0.1030
28498ION     NA48032   3.389  10.375  11.226 -0.3841 -0.0828  0.0233
28499ION     NA48033   6.528  15.179   3.847 -0.1270  0.0702  0.1371
28500ION     NA48034  11.401   8.571   5.607  0.0756  0.0774 -0.1803
28501ION     NA48035  14.491   0.550   3.170  0.1820  0.1514 -0.2154
28502ION     NA48036  13.608   9.590  11.026  0.0042 -0.3626  0.2430
28503ION     NA48037   0.582   9.547   5.593 -0.0488 -0.2764  0.0464
28504ION     NA48038  17.142   8.636   5.295 -0.0136  0.0131  0.3051
28505ION     NA48039  16.364  15.106   5.479  0.2529  0.0354  0.0101
28506ION     NA48040  16.781  14.373   5.460  0.0749  0.3680 -0.0394
28507ION     NA48041   6.930   4.917   2.526 -0.0526  0.1390  0.0382
28508ION     NA48042   9.626  14.969   5.762 -0.0079 -0.2849 -0.1254
28509ION     NA48043  15.453   9.319  10.869 -0.0479 -0.1229 -0.1297
28510ION     NA48044  11.020   0.754  11.120 -0.2451 -0.1420  0.1547
28511ION     NA48045   6.357  16.865  14.561 -0.1539  0.1136  0.1925
28512ION     NA48046   6.455  14.429  13.025 -0.2594 -0.1594  0.0575
28513ION     NA48047  10.597  17.246   5.607 -0.0698  0.1245  0.1245
28514ION     NA48048   7.995   8.048   5.999  0.0560  0.1249 -0.0753
28515ION     NA48049   3.699  11.673  11.426 -0.2153 -0.0392  0.0807
28516ION     NA48050  16.555   8.199  16.548  0.0196  0.1964  0.2769
28517ION     NA48051   5.114   6.936  10.871 -0.0870  0.1566 -0.1083
28518ION     NA48052  10.548   8.984  11.600 -0.3596  0.0227  0.0831
28519ION     NA48053   6.571  16.890  11.463  0.0365  0.1685  0.1146
28520ION     NA48054  10.789  17.132   4.264  0.0550  0.1334 -0.2640
28521ION     NA48055  12.240   6.007  10.721  0.0448  0.0897  0.2332
28522ION     NA48056   5.778  13.961   5.886  0.2163 -0.1803  0.0557
28523ION     NA48057   2.353  11.232   1.419  0.2787 -0.0022 -0.1559
28524ION     NA48058   8.685   0.450  15.823 -0.0147 -0.0393 -0.0297
28525ION     NA48059  17.526   2.026   2.317 -0.1876  0.1947  0.0258
28526ION     NA48060   3.539   6.026  16.254  0.1011  0.1438  0.0485
28527ION     NA48061   8.026  14.520  11.362  0.0009  0.4906  0.2567
28528ION     NA48062  14.709  14.079   5.335 -0.1875 -0.2341  0.0683
28529ION     NA48063   7.460  12.551  16.128 -0.3277 -0.1306 -0.0722
28530ION     NA48064   3.622  12.122   5.769  0.3100 -0.1185  0.0384
28531ION     NA48065  14.852  13.977  11.297 -0.1214  0.2492  0.1769
28532ION     NA48066   0.707   2.698   4.368  0.1562 -0.1751  0.2138
28533ION     NA48067   0.799   2.157   5.733  0.0348 -0.0126  0.0369
28534ION     NA48068  14.414  12.924  13.104  0.0520 -0.0790  0.0155
28535ION     NA48069   8.353   3.340   6.465 -0.3630  0.1360  0.3010
28536ION     NA48070   6.940  17.684  11.214 -0.1381 -0.0572 -0.2468
28537ION     NA48071  15.327  13.439   5.126  0.2313  0.0420 -0.0312
28538ION     NA48072   9.942  13.537   5.541 -0.1932 -0.1302 -0.3762
28539ION     NA48073  15.808  15.580  11.134 -0.0867  0.2200  0.0405
28540ION     NA48074   2.020  12.267   0.749 -0.2587  0.0325 -0.0511
28541ION     NA48075   8.706  10.670  11.396  0.2599  0.1643 -0.3488
28542ION     NA48076  10.234   8.154   5.302  0.1346 -0.2806  0.3832
28543ION     NA48077  13.644   3.371   5.789  0.0705  0.0856  0.0515
28544ION     NA48078   3.043  10.292   5.774  0.1324 -0.3767  0.2080
28545ION     NA48079   2.701   6.650  11.389  0.1435 -0.0228 -0.2052
28546ION     NA48080  12.975   9.752   5.599  0.2000 -0.0473 -0.2190
28547ION     NA48081  17.686  16.063  16.415 -0.1974 -0.1444  0.1199
28548ION     NA48082   7.637   0.115  14.296  0.1033 -0.1252 -0.0084
28549ION     NA48083   7.947   5.489   6.452  0.2569  0.0896 -0.0344
28550ION     NA48084  16.325   5.902  11.080 -0.0762  0.1305  0.1500
28551ION     NA48085  14.439   4.168  10.972 -0.2575 -0.1510  0.1080
28552ION     NA48086   7.357   6.450  15.024 -0.0830  0.1131 -0.4146
28553ION     NA48087   0.406  15.569  11.836 -0.3798 -0.1262 -0.1894
28554ION     NA48088   0.133  10.182   5.522  0.1224 -0.0562  0.1440
28555ION     NA48089  13.180  12.902  13.139  0.0110 -0.2362  0.1115
28556ION     NA48090   6.892   2.970  10.812  0.0863  0.0436 -0.0008
28557ION     NA48091  16.520   9.004  12.045  0.0111  0.1082  0.1808
28558ION     NA48092   5.906   0.521   3.602  0.0657  0.0481  0.0067
28559ION     NA48093  17.506   1.917  13.306 -0.0740 -0.0257  0.0784
28560ION     NA48094   6.786   3.311   2.215 -0.0348  0.1724  0.0651
28561ION     NA48095   1.494  10.643  11.339 -0.2135  0.2078 -0.2987
28562ION     NA48096   1.415   4.866   5.720  0.4002 -0.0391  0.0914
28563ION     NA48097   0.738  10.398  10.955  0.2056 -0.1652  0.0495
28564ION     NA48098  15.030   1.909   5.667 -0.1741 -0.0122 -0.1213
28565ION     NA48099  11.333   8.053  10.971 -0.3418 -0.2650 -0.0311
28566ION     NA48100  10.240  10.497   5.427 -0.0688  0.0268  0.1135
28567ION     NA48101   0.306  13.787   2.809  0.0227 -0.2029 -0.0875
28568ION     NA48102   1.692  17.158   5.714 -0.3352 -0.2093  0.2543
28569ION     NA48103   5.217  13.465   5.839 -0.1717  0.0864  0.0897
28570ION     NA48104  12.917  17.193  11.338 -0.0200 -0.1079  0.0296
28571ION     NA48105  16.828   4.342   3.900  0.1563 -0.1420 -0.1053
28572ION     NA48106   7.594   4.911   6.155 -0.1704  0.2000  0.1725
28573ION     NA48107  12.788   1.576  11.354  0.2892  0.2837  0.1194
28574ION     NA48108  12.586   8.717  11.129 -0.2210 -0.0561 -0.1076
28575ION     NA48109   8.898   5.917   6.369 -0.1616 -0.0251  0.1071
28576ION     NA48110   6.561  15.584   0.107 -0.0898  0.0605 -0.1897
28577ION     NA48111   2.101   0.603   5.869  0.1365 -0.2622  0.2849
28578ION     NA48112  11.542  12.678   5.662  0.0099 -0.1663 -0.1006
28579ION     NA48113  14.622   1.953  11.115 -0.4002 -0.0301  0.1386
28580ION     NA48114  17.313  10.325   5.102  0.0727 -0.0691 -0.1482
28581ION     NA48115  12.048  10.786  11.871  0.3904 -0.0473 -0.1661
28582ION     NA48116  14.630  11.297   5.739 -0.0399  0.1340  0.3217
28583ION     NA48117  11.268   6.491   4.146 -0.1690  0.2596  0.0122
28584ION     NA48118  17.327  11.882  11.027 -0.0923 -0.0340 -0.0848
28585ION     NA48119  10.090   4.741   6.350  0.0477  0.0679 -0.0484
28586ION     NA48120  10.169   0.278  11.039  0.0916  0.0291  0.1806
28587ION     NA48121  13.718   7.855  10.962  0.2093  0.0873  0.2751
28588ION     NA48122   7.575   4.586  10.799  0.1766 -0.2531 -0.0302
28589ION     NA48123   4.958  10.000  11.525 -0.0572 -0.1398 -0.1016
28590ION     NA48124  16.435   3.384   5.552 -0.2075  0.0013 -0.1880
28591ION     NA48125   8.949  15.510   5.734 -0.0818  0.1608 -0.1959
28592ION     NA48126   3.004  15.591   5.797 -0.0592 -0.2342 -0.2041
28593ION     NA48127   2.824  11.957  11.344 -0.1530 -0.2185  0.1015
28594ION     NA48128  14.145  10.393  11.003 -0.1264  0.0323 -0.0739
28595ION     NA48129   7.365  15.707  11.525 -0.4541 -0.0023 -0.0786
28596ION     NA48130   5.379  14.773  14.126  0.2177  0.0150  0.1237
28597ION     NA48131   5.193  10.085  11.029 -0.1005  0.0872 -0.0987
28598ION     NA48132  17.299   6.224  10.981  0.0723  0.2619 -0.2477
28599ION     NA48133   0.613   8.404  16.115 -0.0559 -0.3484 -0.0816
28600ION     NA48134   5.116   3.901   6.213 -0.0303 -0.0739  0.1078
28601ION     NA48135  12.762   4.802  14.962  0.1213 -0.1168 -0.0106
28602ION     NA48136  12.315  11.320   5.609  0.2227 -0.1712 -0.0206
28603ION     NA48137  12.430   7.668   4.061 -0.2540 -0.0975 -0.0403
28604ION     NA48138   3.426  15.844  11.198  0.3240  0.0537 -0.2725
28605ION     NA48139  13.939  15.327  11.217  0.0818 -0.3560  0.1478
28606ION     NA48140  11.808   5.757   4.265  0.1303 -0.5916 -0.0561
28607ION     NA48141   8.477  12.682  11.182  0.0727  0.6624 -0.3000
28608ION     NA48142  14.307  16.144  11.218  0.1764 -0.0810  0.4558
28609ION     NA48143  10.174   2.362   5.737  0.0156  0.2325 -0.1668
28610ION     NA48144  16.669  14.352   5.927 -0.2557  0.0855  0.0429
28611ION     NA48145   4.758  15.487  11.274  0.0360 -0.3692 -0.1510
28612ION     NA48146  13.433   1.461   5.683  0.3950  0.3558 -0.4268
28613ION     NA48147  10.798   9.040  11.041  0.0266 -0.0896  0.0711
28614ION     NA48148   3.589   8.762  11.212 -0.1864  0.1518 -0.1117
28615ION     NA48149  13.533  16.333  11.304 -0.0323 -0.0169  0.1591
28616ION     NA48150  17.108   5.974  11.415 -0.3535  0.0417 -0.2255
28617ION     NA48151   1.883   6.410   5.210 -0.3253 -0.2826  0.0045
28618ION     NA48152   5.250   6.270  16.690 -0.0494  0.0781 -0.1759
28619ION     NA48153  14.118  17.537  11.479 -0.2354  0.0410  0.0189
28620ION     NA48154   5.370   2.348   1.405 -0.1925 -0.1574 -0.0222
28621ION     NA48155   5.887   5.889   6.348  0.1784 -0.1367  0.0515
28622ION     NA48156   8.870  17.174  11.609 -0.1356  0.3671  0.0677
28623ION     NA48157   7.184  14.823  11.299 -0.2153 -0.2847 -0.0809
28624ION     NA48158   5.338  17.160   6.027 -0.1812 -0.0089  0.1130
28625ION     NA48159  12.998   7.976   5.426  0.0524  0.1111 -0.1996
28626ION     NA48160   6.552  15.359  11.497 -0.1808  0.2334  0.0392
28627ION     NA48161  10.887   5.990  10.727 -0.1159 -0.0934 -0.1384
28628ION     NA48162  10.096   0.795  11.108  0.1645 -0.4435 -0.1745
28629ION     NA48163   8.653   6.363  12.484  0.0398 -0.1745 -0.0555
28630ION     NA48164  13.836   0.278   5.788  0.1070 -0.0620  0.3021
28631ION     NA48165   0.010   9.107   5.142  0.0262 -0.1855  0.2405
28632ION     NA48166   7.423   6.065  10.642  0.1013 -0.0366 -0.2175
28633ION     NA48167  16.633   5.007   2.729 -0.1350 -0.2854 -0.2444
28634ION     NA48168  15.046  17.566   5.538 -0.0084  0.1399  0.1422
28635ION     NA48169  10.108   8.386  11.118 -0.0066  0.2778  0.0643
28636ION     NA48170  14.621  15.768   5.242  0.0999  0.0943 -0.1730
28637ION     NA48171   4.084   8.888   5.622 -0.2229  0.3650  0.0446
28638ION     NA48172  16.138   2.169   5.821 -0.1423 -0.1128  0.1742
28639ION     NA48173   1.921  12.424  15.023  0.3050  0.1296 -0.2739
28640ION     NA48174  14.099  11.127  15.307  0.3054 -0.1622 -0.0249
28641ION     NA48175   1.641   2.171  11.376 -0.0592  0.1686  0.0163
28642ION     NA48176  12.348   0.135   0.778  0.2499  0.0435 -0.0044
28643ION     NA48177  12.807   7.046   5.504 -0.0406  0.0254 -0.0265
28644ION     NA48178  12.309  15.320   5.372 -0.1394 -0.1279  0.1417
28645ION     NA48179   3.021  12.575   5.736 -0.0033  0.2057 -0.2617
28646ION     NA48180  13.269  10.862  11.266 -0.1570 -0.0636  0.0201
28647ION     NA48181  13.480   3.078  11.100  0.0027 -0.0982 -0.2312
28648ION     NA48182  16.182   3.741  13.753 -0.0775 -0.0737  0.2596
28649ION     NA48183  15.386  15.988   5.652  0.0851 -0.1266 -0.0254
28650ION     NA48184  12.516  13.353   1.435  0.0560 -0.2908  0.1282
28651ION     NA48185  16.995  13.541   5.716  0.1500  0.3043  0.4467
28652ION     NA48186   0.358   5.440   2.637  0.2411 -0.0421  0.0688
28653ION     NA48187   3.996   9.217   2.534 -0.3428 -0.0656  0.0408
28654ION     NA48188  13.843  12.925  14.169  0.0714  0.0234 -0.1613
28655ION     NA48189   3.753  13.258  11.398  0.1140  0.1408 -0.1909
28656ION     NA48190  11.103   6.702   5.611 -0.0712 -0.0416 -0.1186
28657ION     NA48191  15.197   1.256  11.389  0.1083  0.1932  0.0295
28658ION     NA48192  11.427  17.904  11.071 -0.1774  0.0968 -0.4499
28659ION     NA48193   1.475   4.293   3.763 -0.0245  0.2641 -0.1286
28660ION     NA48194   6.260  14.729   5.617 -0.0683 -0.1903 -0.3110
28661ION     NA48195  16.180   7.461  10.683  0.0418  0.1438 -0.1050
28662ION     NA48196   6.485   0.699   5.993 -0.2688 -0.0970  0.0097
28663ION     NA48197  14.015   0.615  11.324  0.1758  0.1509 -0.1551
28664ION     NA48198   0.620  17.713   5.781  0.3655  0.4954 -0.0926
28665ION     NA48199  15.844  10.906  10.994  0.1586  0.1933 -0.1068
28666ION     NA48200  16.771   1.693   5.555  0.0606  0.1951 -0.3059
28667ION     NA48201   4.794  10.651   2.950  0.1431 -0.0133  0.1956
28668ION     NA48202   2.939   9.594  11.329  0.1013  0.1399 -0.4152
28669ION     NA48203  17.074   9.484   5.341 -0.2721 -0.1058 -0.0621
28670ION     NA48204  10.303   9.809  11.163  0.1375 -0.1210 -0.1642
28671ION     NA48205  11.887   2.960   5.822 -0.0517  0.1248  0.1034
28672ION     NA48206   0.854   1.678   5.537 -0.0082 -0.2578 -0.2624
28673ION     NA48207   7.695  10.527   4.734 -0.0537 -0.0757  0.1944
28674ION     NA48208   6.449   6.365  12.135 -0.0460 -0.0775 -0.1955
28675ION     NA48209  10.968  14.169  10.892 -0.2202  0.0891 -0.0328
28676ION     NA48210  17.633  17.634   5.813  0.0520 -0.1279 -0.0117
28677ION     NA48211  16.182  14.825  10.983  0.2091 -0.0085 -0.2291
28678ION     NA48212   8.555   9.533  11.027  0.2151  0.0684  0.2869
28679ION     NA48213   5.658   5.853   1.930  0.0217  0.0988 -0.0667
28680ION     NA48214   6.547  11.683   3.935  0.0513  0.0971 -0.0678
28681ION     NA48215  13.888   2.867  14.818 -0.0444 -0.0661 -0.1318
28682ION     NA48216  13.992   7.998   5.400 -0.2280 -0.0822  0.1933
28683ION     NA48217  17.048   5.186  10.911 -0.0877 -0.2202 -0.3374
28684ION     NA48218   1.553   9.809   2.466 -0.0389 -0.1563  0.3790
28685ION     NA48219  15.804   7.941   5.129 -0.2916  0.0762  0.0677
28686ION     NA48220  12.056  16.305   5.870  0.0364 -0.1085  0.0830
28687ION     NA48221  15.959  10.258   5.414 -0.2523 -0.1002  0.0261
28688ION     NA48222   1.467  13.156   5.644 -0.1645  0.0417  0.3358
28689ION     NA48223  10.550  15.773  11.139 -0.0498  0.0266  0.0012
28690ION     NA48224   8.210   0.198   5.919  0.3565  0.0769 -0.0665
28691ION     NA48225   6.002   8.590  10.980 -0.0362  0.6206  0.4097
28692ION     NA48226  14.089   2.515  11.038  0.0617 -0.0974  0.1698
28693ION     NA48227   5.195   0.645  11.354  0.4165  0.0065  0.0599
28694ION     NA48228  13.914   8.780  11.024  0.2506  0.0728 -0.0391
28695ION     NA48229   2.535   8.084   5.426  0.1002 -0.0396 -0.1010
28696ION     NA48230   7.572  12.878  11.332 -0.0970  0.3223 -0.2172
28697ION     NA48231   4.696  10.644   5.836 -0.0921 -0.1553  0.0219
28698ION     NA48232   6.093   5.167   6.423  0.2992 -0.0611 -0.3041
28699ION     NA48233  10.029  15.852  11.223  0.0459 -0.2012 -0.2257
28700ION     NA48234  11.978  13.703  11.339  0.4672 -0.2788 -0.0068
28701ION     NA48235   4.698   6.944   2.213 -0.0410 -0.2085  0.2142
28702ION     NA48236   5.111   4.981  10.848 -0.3218  0.0351  0.0010
28703ION     NA48237  14.503   9.647  10.990 -0.0359  0.0279  0.1429
28704ION     NA48238  13.928  13.750  11.117  0.0407 -0.4497  0.1311
28705ION     NA48239  15.691   9.403   5.388 -0.0434 -0.2051 -0.0538
28706ION     NA48240   1.614   1.108  16.567  0.0873  0.1986 -0.3699
28707ION     NA48241  16.119   3.705  10.911 -0.4055 -0.0293 -0.1011
28708ION     NA48242  15.925  16.856  12.157  0.0640  0.0779  0.0310
28709ION     NA48243  16.234  17.866  10.995 -0.0748  0.5191  0.0207
28710ION     NA48244  14.827   6.270  10.880 -0.2337 -0.0146 -0.1014
28711ION     NA48245   7.871   5.372   4.087  0.0357 -0.3539 -0.0273
28712ION     NA48246   4.280   8.443  11.165  0.3190 -0.2562 -0.3286
28713ION     NA48247  12.537  14.896  13.918  0.1587 -0.0047  0.0745
28714ION     NA48248   7.583   6.990  10.936  0.1394 -0.0232 -0.1090
28715ION     NA48249   4.079   4.127   2.003  0.2666 -0.2322 -0.2276
28716ION     NA48250  13.732   7.179   5.365 -0.0461 -0.1470 -0.1321
28717ION     NA48251   2.729   4.070  13.571  0.0660 -0.2890  0.1541
28718ION     NA48252  12.669   8.162   1.474 -0.2715 -0.2340  0.0397
28719ION     NA48253   1.678   2.298   5.874 -0.2632 -0.0658  0.1203
28720ION     NA48254   5.762   0.369   4.838  0.0472 -0.0052  0.2577
28721ION     NA48255   4.405   9.437  11.146 -0.0782  0.1533  0.2477
28722ION     NA48256   7.810  14.530   5.903 -0.0066  0.2322  0.0317
28723ION     NA48257  14.105  10.585   5.494  0.0221  0.0269  0.1370
28724ION     NA48258   9.413   0.016  11.342  0.2623 -0.2657 -0.1128
28725ION     NA48259   8.721   3.641   6.085 -0.2597  0.2538 -0.0936
28726ION     NA48260  15.335   4.558  11.356 -0.3260 -0.3307 -0.1241
28727ION     NA48261   0.251   2.566  11.222 -0.0456 -0.0054 -0.1171
28728ION     NA48262  11.625  17.521   5.908 -0.0328 -0.0954 -0.3527
28729ION     NA48263  16.270   8.821   5.324 -0.2603  0.1794 -0.1587
28730ION     NA48264  12.116   2.809  10.940 -0.1367  0.0211  0.1452
28731ION     NA48265  16.146   1.051   5.825  0.0066  0.4466 -0.2193
28732ION     NA48266  13.905   5.004   4.449 -0.3171  0.0075 -0.0856
28733ION     NA48267   3.726  14.720  11.159 -0.0962  0.0340  0.0630
28734ION     NA48268   3.101  11.768   4.978  0.0996  0.2057 -0.0282
28735ION     NA48269   0.939   1.945   1.038  0.1177 -0.2048 -0.1177
28736ION     NA48270   7.173   5.867   6.161 -0.0695  0.1730  0.0292
28737ION     NA48271  12.242   1.412  12.234 -0.0065 -0.2185  0.1294
28738ION     NA48272   3.342  16.672  11.171 -0.3170  0.1947 -0.3777
28739ION     NA48273   6.457   5.713  10.831  0.1901  0.0013  0.0426
28740ION     NA48274   6.889   7.043  10.787  0.1049  0.1168  0.3007
28741ION     NA48275   2.713   9.992  12.249  0.0457  0.2295 -0.3023
28742ION     NA48276   9.508   3.642   5.028  0.0630 -0.0670  0.0381
28743ION     NA48277   3.487   3.590   6.469  0.1783 -0.0383 -0.1169
28744ION     NA48278  14.756   4.155   5.364 -0.2776 -0.0942 -0.3285
28745ION     NA48279  16.610  15.735   4.607 -0.0862 -0.1279 -0.3026
28746ION     NA48280   9.002  13.288   5.940  0.3491  0.3176 -0.0368
28747ION     NA48281  11.069  17.109  11.080 -0.0688  0.1662  0.1576
28748ION     NA48282   2.642   7.533  11.104 -0.0549  0.1012 -0.1484
28749ION     NA48283  13.696  16.972  11.506  0.2871 -0.1133 -0.1775
28750ION     NA48284   5.312   3.430   1.902 -0.2869 -0.1328 -0.2727
28751ION     NA48285  10.072   7.366  11.136  0.0762  0.0709  0.0986
28752ION     NA48286   8.320   1.582   6.081 -0.0401  0.2296  0.2110
28753ION     NA48287  17.807  16.455   2.384 -0.0764  0.1719 -0.0619
28754ION     NA48288   5.255   7.924   5.809  0.2802 -0.0340 -0.0759
28755ION     NA48289  13.712   5.357   1.857 -0.0708 -0.1364  0.1452
28756ION     NA48290   5.958  15.577   5.896 -0.0483  0.0563 -0.2025
28757ION     NA48291   2.580  17.785   5.877  0.2315  0.2136  0.0197
28758ION     NA48292  17.354  14.329  11.357 -0.0323  0.1735  0.0046
28759ION     NA48293  15.312   3.633  10.909  0.1949 -0.2765 -0.1848
28760ION     NA48294   5.682  16.883  11.707  0.0181 -0.0857 -0.0094
28761ION     NA48295   9.991   4.418  10.574  0.1696 -0.2433 -0.0042
28762ION     NA48296   1.489   1.454  11.484  0.2865 -0.2419 -0.0448
28763ION     NA48297  13.018  13.269  16.391 -0.3449 -0.0433 -0.0741
28764ION     NA48298  10.094   6.289  10.864 -0.1670 -0.1722 -0.0259
28765ION     NA48299   4.673  14.416  11.381 -0.0959 -0.0106 -0.1085
28766ION     NA48300  15.122  12.897  10.990  0.1400  0.1489 -0.0317
28767ION     NA48301   5.414   1.075   5.956 -0.3171 -0.0306  0.1059
28768ION     NA48302   7.899  11.062  11.289  0.0505 -0.1043  0.0892
28769ION     NA48303   7.894   3.214  10.759  0.1651 -0.1647 -0.0207
28770ION     NA48304  15.515  12.155  10.902 -0.0086  0.1050  0.1498
28771ION     NA48305   8.338   1.578  11.089 -0.2809  0.2895  0.2593
28772ION     NA48306   1.719  10.442   5.826  0.1811 -0.0762  0.0704
28773ION     NA48307   3.457  12.621  11.515  0.1776  0.0215 -0.2105
28774ION     NA48308  17.883   2.465   5.701  0.2522 -0.1892  0.2862
28775ION     NA48309   7.039  12.154  11.213  0.0788 -0.0137  0.0251
28776ION     NA48310   9.650  17.507   5.849  0.2702  0.1460  0.0584
28777ION     NA48311  15.849   8.543   1.199 -0.2859 -0.0841  0.0601
28778ION     NA48312  16.303  11.062   5.371 -0.0898 -0.2105  0.4784
28779ION     NA48313   7.080   5.086  16.460 -0.0179  0.1042  0.1444
28780ION     NA48314  15.219   9.781  14.053 -0.1002  0.3436  0.0224
28781ION     NA48315   4.603   9.639   5.829  0.0625  0.1468  0.2240
28782ION     NA48316   4.476   7.900   5.654 -0.2327 -0.3526 -0.1272
28783ION     NA48317  11.524   2.080   5.875 -0.3466 -0.0741 -0.0838
28784ION     NA48318  15.343   5.797   5.543 -0.2810 -0.2832 -0.1464
28785ION     NA48319   7.371  15.068  16.604  0.3256 -0.1030 -0.0513
28786ION     NA48320  17.291  10.423  10.738  0.3028 -0.1369 -0.0926
28787ION     NA48321  16.209   6.125  14.672  0.0866 -0.0294 -0.0829
28788ION     NA48322  17.577  16.148  11.670  0.0493 -0.2161 -0.2265
28789ION     NA48323  16.296   9.170  10.558 -0.0353  0.1499  0.0021
28790ION     NA48324  16.968  11.292   5.499 -0.0257  0.1220 -0.1417
28791ION     NA48325   5.775  12.078   1.083 -0.3859 -0.1628 -0.2553
28792ION     NA48326  16.988  17.426   5.698  0.2357  0.0888  0.1944
28793ION     NA48327   2.351   8.937  11.069 -0.0150  0.1044 -0.3378
28794ION     NA48328   7.263   0.272   5.903  0.1908  0.0974  0.1406
28795ION     NA48329   2.654   7.212   2.869 -0.0598  0.1562 -0.1352
28796ION     NA48330   6.626   2.878  16.458  0.2348 -0.1348 -0.2093
28797ION     NA48331   3.736   9.733   5.651 -0.0805 -0.2231  0.3277
28798ION     NA48332   0.285   9.585  10.684 -0.0648  0.2085 -0.3314
28799ION     NA48333  16.872   2.596   5.796 -0.0807 -0.3585 -0.3169
28800ION     NA48334   9.928   2.571  11.067  0.1059 -0.2594  0.0203
28801ION     NA48335  14.231  15.857   1.997 -0.2065 -0.3940 -0.1750
28802ION     NA48336   8.010   7.200   4.413  0.1112 -0.2687  0.0879
28803ION     NA48337  17.790   7.636  10.826  0.0489  0.0540  0.2082
28804ION     NA48338  16.852  14.854  12.517 -0.3823  0.3077  0.0662
28805ION     NA48339   0.720  12.767   5.754  0.2739  0.3591  0.0709
28806ION     NA48340   0.960  17.286  12.001  0.0544  0.3919 -0.1494
28807ION     NA48341   7.932  17.604   5.947  0.3158 -0.3810  0.1960
28808ION     NA48342   1.383  16.769  11.219  0.1182  0.1325 -0.1636
28809ION     NA48343  10.052   1.829  11.246  0.0689 -0.1336 -0.1822
28810ION     NA48344  17.288  12.443   5.464 -0.1173 -0.0661  0.0179
28811ION     NA48345  14.293   8.797   5.551  0.0568 -0.0855 -0.0530
28812ION     NA48346  16.354  11.584  11.012  0.1833  0.1102 -0.1398
28813ION     NA48347   4.974  12.641   5.940  0.0833  0.2335 -0.3869
28814ION     NA48348  17.854   2.182  11.269 -0.0999  0.0453 -0.3229
28815ION     NA48349  12.061  16.364  15.316 -0.0444  0.2429  0.1410
28816ION     NA48350   6.792  13.073  11.266 -0.1327  0.1646 -0.1781
28817ION     NA48351  10.079  17.150  11.098  0.1075  0.0352  0.0221
28818ION     NA48352  12.329   2.749   5.688 -0.2998 -0.4013  0.3991
28819ION     NA48353   7.695  15.993  11.279 -0.3472 -0.0631  0.0204
28820ION     NA48354   6.962  14.239  13.826  0.1550 -0.1350  0.0832
28821ION     NA48355  11.233  14.969  10.960 -0.0176  0.1085  0.1017
28822ION     NA48356   4.666  14.079  15.337  0.2668  0.0089  0.0324
28823ION     NA48357  16.699   0.835  11.069 -0.2734  0.1035 -0.0179
28824ION     NA48358   9.907   0.366   5.348  0.1844  0.1168  0.2803
28825ION     NA48359  16.434  11.934   5.364 -0.0773  0.3518 -0.0461
28826ION     NA48360  10.593  11.729   3.746 -0.0876 -0.0597 -0.2562
28827ION     NA48361  17.504  15.391  11.316  0.2011 -0.1833  0.0347
28828ION     NA48362   1.156   3.934  11.131  0.1220  0.0890 -0.1963
28829ION     NA48363   5.757  11.516   5.661  0.1236  0.1303 -0.3074
28830ION     NA48364  14.085   9.607   5.527  0.0223 -0.1793  0.0058
28831ION     NA48365  11.663  15.295  11.154 -0.2237 -0.0157  0.0250
28832ION     NA48366  16.687  15.564  11.294 -0.1045 -0.3332 -0.0390
28833ION     NA48367  14.065  15.267   5.666 -0.0335 -0.1951 -0.0451
28834ION     NA48368   7.407  12.742   5.633  0.0967 -0.0282 -0.3113
28835ION     NA48369   6.029  12.586  11.208 -0.0371 -0.0048 -0.2973
28836ION     NA48370  13.860   4.358  10.919  0.3706 -0.1097  0.3778
28837ION     NA48371   3.540  13.319   5.651 -0.1415  0.0307 -0.1401
28838ION     NA48372  15.667   1.485  15.057 -0.1504 -0.1907  0.0984
28839ION     NA48373   0.516   6.275   5.314 -0.0835  0.1188  0.4063
28840ION     NA48374   8.077   4.566   4.797 -0.3922  0.0211  0.1362
28841ION     NA48375  12.945   4.162  10.783 -0.0012 -0.2348  0.0681
28842ION     NA48376  14.790  17.513  13.577  0.1305  0.0238 -0.1613
28843ION     NA48377   8.755   3.221  10.766  0.0935  0.2491 -0.2022
28844ION     NA48378   0.109  11.556   5.737 -0.0641  0.2514  0.1798
28845ION     NA48379   2.913  11.121  11.362  0.2329 -0.0017 -0.0186
28846ION     NA48380   7.646  10.638  11.310  0.1879 -0.2065 -0.0346
28847ION     NA48381   6.811  15.459   5.905  0.0432  0.2122 -0.3964
28848ION     NA48382  16.559  14.011  11.004 -0.2580 -0.1362 -0.2388
28849ION     NA48383   7.004   5.273  11.634  0.1415  0.0209 -0.0670
28850ION     NA48384   9.260  10.152  15.931 -0.0516 -0.1675 -0.0788
28851ION     NA48385  15.176  11.857  15.035 -0.0097 -0.1391 -0.0690
28852ION     NA48386   3.450  10.815  13.947 -0.0602  0.1850  0.1343
28853ION     NA48387   5.601   3.829   6.465  0.0598 -0.0882  0.0329
28854ION     NA48388   0.968  15.400   5.826 -0.0730  0.1208 -0.0287
28855ION     NA48389  12.769   3.435  14.153  0.0408 -0.1939 -0.3426
28856ION     NA48390  17.365   2.903  11.183  0.2105  0.2524 -0.2929
28857ION     NA48391  14.476  13.099  11.088  0.0507  0.2911  0.0805
28858ION     NA48392  11.715  14.543   2.000  0.1322 -0.5424  0.1503
28859ION     NA48393   5.132   8.470  11.066  0.2972 -0.2078  0.1750
28860ION     NA48394   7.877   4.301   6.316 -0.0071 -0.2720 -0.1249
28861ION     NA48395  14.458   3.517  11.007 -0.1829 -0.1716  0.1595
28862ION     NA48396   0.053   5.571   5.605 -0.0201  0.1422 -0.2105
28863ION     NA48397  16.045   3.749   4.435  0.0617 -0.1170 -0.3486
28864ION     NA48398  13.627   1.846  11.308 -0.0339  0.0307 -0.1027
28865ION     NA48399   4.848   4.218  10.842 -0.1594  0.1182 -0.0717
28866ION     NA48400  13.163   3.094   2.396 -0.3174 -0.4809  0.1460
28867ION     NA48401  12.192   4.793   5.866  0.2497 -0.5023  0.2587
28868ION     NA48402   5.952  13.176   3.017  0.1477  0.1893 -0.1045
28869ION     NA48403   2.754   6.270   5.365 -0.0755 -0.1002 -0.1872
28870ION     NA48404   2.226  13.844  11.353  0.1383  0.0518  0.0664
28871ION     NA48405  15.185  16.652   4.637  0.0391  0.0713  0.0224
28872ION     NA48406   5.710   1.224  11.020 -0.0658 -0.0077  0.0514
28873ION     NA48407  10.560  17.860  11.128  0.2834 -0.1261 -0.1733
28874ION     NA48408   3.931   3.615   6.306  0.0343 -0.1301 -0.2733
28875ION     NA48409   9.109  14.066  12.865 -0.0049 -0.1191  0.1539
28876ION     NA48410   9.787  14.110  11.108  0.1507 -0.0440  0.0984
28877ION     NA48411   4.406  12.809  11.262 -0.0012 -0.1643  0.2029
28878ION     NA48412  17.559   1.878  16.390 -0.0466 -0.1729  0.5295
28879ION     NA48413   0.638  15.884   5.821  0.2259 -0.0896  0.0869
28880ION     NA48414   7.200   7.819   6.011 -0.0738  0.0648 -0.2242
28881ION     NA48415  13.053  13.610   5.514 -0.0937 -0.0351  0.0773
28882ION     NA48416   5.072   4.477  12.860  0.1443 -0.2087 -0.0834
28883ION     NA48417   0.619  12.213   0.874 -0.2055 -0.1308  0.4099
28884ION     NA48418   4.327   0.510  11.353 -0.0308 -0.1483  0.0753
28885ION     NA48419   8.218  13.645  11.195  0.2793  0.1726  0.0635
28886ION     NA48420   9.777  11.357   5.607  0.1273  0.2089 -0.2633
28887ION     NA48421  14.882  15.550  11.274  0.2284  0.2352  0.0844
28888ION     NA48422  13.476   5.141  10.741 -0.2277 -0.0079 -0.1447
28889ION     NA48423  17.468   6.352   5.464 -0.2903 -0.0850 -0.0260
28890ION     NA48424   4.592   1.065   5.846 -0.1917 -0.2292  0.0885
28891ION     NA48425   8.164  13.106   5.704 -0.0571  0.1146  0.0543
28892ION     NA48426  12.001   0.737  11.120  0.1205  0.0325  0.0112
28893ION     NA48427   0.731   7.246  10.908 -0.1747  0.1112 -0.2142
28894ION     NA48428  10.052   1.107   5.713 -0.0308 -0.2130  0.2198
28895ION     NA48429  13.098   7.929  15.424  0.2342 -0.3536  0.1398
28896ION     NA48430   8.681  17.250   5.835  0.2290  0.1316 -0.0380
28897ION     NA48431   5.046   8.734   5.591 -0.1680  0.0775 -0.2371
28898ION     NA48432   2.401   9.484   4.520 -0.1123  0.3222 -0.0529
28899ION     NA48433  16.122  13.843   5.566  0.0510  0.0779 -0.2186
28900ION     NA48434   2.382   1.301  11.258  0.1658  0.0952 -0.0079
28901ION     NA48435   8.822  16.302  11.328 -0.2209  0.2113 -0.0052
28902ION     NA48436  10.022  10.668  11.207 -0.0444 -0.0502  0.1712
28903ION     NA48437   7.014   3.166   6.461  0.0091  0.0812  0.1574
28904ION     NA48438   1.833  11.898  11.530  0.3751  0.1543 -0.0027
28905ION     NA48439   2.089  12.638   5.648 -0.3788  0.1507 -0.2526
28906ION     NA48440   4.715   3.018   6.459  0.2327 -0.0983  0.0097
28907ION     NA48441  16.825   5.074   5.604  0.1140 -0.4187  0.0219
28908ION     NA48442   5.693  10.358   5.687 -0.0025  0.0960  0.2714
28909ION     NA48443   0.507   1.600  11.289  0.2146 -0.0389  0.0853
28910ION     NA48444  10.747  11.079   5.515  0.1815  0.3909 -0.1854
28911ION     NA48445   5.033   1.635   6.199 -0.1383 -0.1033 -0.0778
28912ION     NA48446  11.567  11.722   5.587 -0.0923 -0.1754  0.1305
28913ION     NA48447   6.074   2.901   6.292  0.2158  0.1903 -0.4656
28914ION     NA48448  11.461  12.993   5.291 -0.0275 -0.3726  0.1126
28915ION     NA48449  11.636  12.108  11.097 -0.1504 -0.0533  0.0143
28916ION     NA48450  11.513   0.355   5.437  0.1472 -0.1914  0.2643
28917ION     NA48451   7.291   4.597   2.227 -0.2165 -0.1111 -0.1462
28918ION     NA48452  17.334   7.197  15.628 -0.1818  0.0730  0.0408
28919ION     NA48453  10.812  12.318   5.680 -0.0458 -0.0507 -0.0278
28920ION     NA48454  15.282   9.046  13.035  0.2214  0.2043  0.1815
28921ION     NA48455  17.681   1.945   5.786 -0.1697 -0.1715  0.5299
28922ION     NA48456  11.403   3.832  10.670  0.0604  0.2233  0.0131
28923ION     NA48457   1.621  14.978  11.269  0.1446 -0.0182  0.0589
28924ION     NA48458  13.601  13.421   5.449 -0.2424  0.0425  0.0186
28925ION     NA48459  16.565  17.111  11.053 -0.0394 -0.3651 -0.0771
28926ION     NA48460  13.206   8.649   0.076 -0.2294  0.2547 -0.2657
28927ION     NA48461   3.038  17.541  11.359  0.0032  0.2818 -0.0780
28928ION     NA48462   7.700   5.398   5.235  0.0832  0.0059 -0.0126
28929ION     NA48463   8.828  16.351   5.856 -0.1268 -0.0331 -0.1230
28930ION     NA48464  12.667   3.783   1.833 -0.0081 -0.0130  0.4494
28931ION     NA48465   4.122   3.572   1.013  0.2255  0.1721 -0.1490
28932ION     NA48466  13.794   3.016   5.373  0.1940  0.4362 -0.1743
28933ION     NA48467   9.486   7.650   5.824  0.0142  0.3192  0.1781
28934ION     NA48468   8.504  17.275   2.338  0.0751 -0.1078 -0.0332
28935ION     NA48469  13.414  12.586   5.606  0.4037 -0.0858 -0.3089
28936ION     NA48470  13.356  11.878  10.962  0.0503  0.2894  0.2988
28937ION     NA48471   9.347   6.705   5.943 -0.0934  0.1352 -0.2239
28938ION     NA48472  14.744  15.804   5.757 -0.0443 -0.0902  0.0892
28939ION     NA48473  13.161  11.013  14.957  0.0968  0.1043 -0.1232
28940ION     NA48474  11.134   1.275   5.660  0.2195 -0.0918 -0.0821
28941ION     NA48475   2.923   1.476   2.960  0.0135 -0.0318 -0.0398
28942ION     NA48476  15.588  16.893   5.968  0.1535 -0.1010 -0.2332
28943ION     NA48477   0.590  15.827  13.182  0.0674  0.2462 -0.0437
28944ION     NA48478   8.334  12.163  13.947  0.2582  0.0443 -0.0777
28945ION     NA48479   7.838  11.322   5.824 -0.2758 -0.0588  0.0022
28946ION     NA48480   2.295   3.859   2.077 -0.1218 -0.0849 -0.1446
28947ION     NA48481  14.215  12.782   5.538 -0.0443  0.3243 -0.2131
28948ION     NA48482  10.486  14.283  13.064 -0.1610 -0.1638 -0.0343
28949ION     NA48483   1.776  13.949  11.281  0.1808 -0.2305 -0.2268
28950ION     NA48484  17.784   4.962   5.600 -0.2522 -0.0380  0.1942
28951ION     NA48485  10.646  14.287  15.418  0.1079  0.0217 -0.2367
28952ION     NA48486   4.119   6.351   5.660 -0.1952 -0.0856  0.1304
28953ION     NA48487   3.921  13.761  12.750 -0.0939 -0.2596 -0.0142
28954ION     NA48488   1.875   8.092  10.821  0.1281  0.1167  0.2963
28955ION     NA48489  14.411   1.750   5.841 -0.2632  0.1096 -0.0716
28956ION     NA48490   8.969  11.057   4.598  0.0737  0.2553  0.2027
28957ION     NA48491   2.293  14.718   1.263  0.1201  0.1185  0.4615
28958ION     NA48492  17.070  14.727  11.239  0.0419 -0.1526  0.1921
28959ION     NA48493   9.598  17.057  16.747 -0.0704 -0.0124  0.2715
28960ION     NA48494  16.972  17.586   0.644  0.0952 -0.1168 -0.2006
28961ION     NA48495  10.058   9.679   5.533 -0.2032 -0.0437 -0.0544
28962ION     NA48496   4.640   7.762  11.035  0.1060  0.2518 -0.2987
28963ION     NA48497  14.761   9.586   1.606  0.0878 -0.0771  0.3464
28964ION     NA48498   2.926   8.153  10.998  0.3644 -0.1895  0.1132
28965ION     NA48499  13.086   5.957  11.859  0.0988 -0.0854 -0.4373
28966ION     NA48500   8.943  14.740  11.204 -0.1768  0.2037 -0.3575
28967ION     NA48501  11.040   2.317   2.300 -0.2247  0.4073 -0.1333
28968ION     NA48502   1.599  16.489   3.379 -0.0776  0.0734  0.1398
28969ION     NA48503  10.620   5.062   6.192  0.3744 -0.3358 -0.2962
28970ION     NA48504  12.373   5.012  12.458 -0.1185  0.2710  0.1122
28971ION     NA48505   2.243   4.435   6.085 -0.0428 -0.1848  0.2301
28972ION     NA48506   0.226   0.747  11.126 -0.3589  0.1003 -0.0347
28973ION     NA48507  10.568   5.354  10.613 -0.3578 -0.4973  0.1495
28974ION     NA48508   9.858  12.237   5.641  0.3398 -0.0191 -0.2343
28975ION     NA48509  14.047   4.056   5.521 -0.1827 -0.2473 -0.3231
28976ION     NA48510  14.636   0.870   5.971 -0.1047 -0.0540 -0.0587
28977ION     NA48511   4.274   6.936  10.962 -0.1979 -0.3580 -0.1203
28978ION     NA48512   1.464   8.849  11.198 -0.1246  0.2138  0.1927
28979ION     NA48513  16.747   4.746   4.623 -0.1788  0.2520  0.0743
28980ION     NA48514   1.962   1.517   5.757  0.2212 -0.2682  0.1033
28981ION     NA48515   3.030   8.284   5.509  0.0977  0.1840  0.1229
28982ION     NA48516  17.393   2.283  11.182  0.0412 -0.0644 -0.2159
28983ION     NA48517  15.432   3.722   5.537 -0.1703  0.2696  0.2276
28984ION     NA48518  11.104   5.639   5.763 -0.1095 -0.0895  0.0133
28985ION     NA48519   2.929  13.316  11.363 -0.0760  0.0788  0.1961
28986ION     NA48520   8.776  10.876  12.939  0.0128  0.0309 -0.0267
28987ION     NA48521  14.508   2.139  16.663  0.0451  0.0802 -0.0167
28988ION     NA48522   2.118   5.488  11.112 -0.2070  0.3605  0.2950
28989ION     NA48523  10.360  13.784  13.883  0.0918 -0.0030  0.3036
28990ION     NA48524  15.216  12.574   5.542 -0.0818  0.3048 -0.1190
28991ION     NA48525   2.552  14.679  11.053  0.0895  0.0053  0.1257
28992ION     NA48526  17.663  11.340  15.637 -0.2364 -0.2144  0.1973
28993ION     NA48527   7.411   7.752  16.518  0.0171  0.2523 -0.1996
28994ION     NA48528  12.315   6.877  11.058 -0.0202  0.0401 -0.1027
28995ION     NA48529   5.468   9.309   5.729  0.0593 -0.1652  0.4261
28996ION     NA48530  12.300   8.551   0.049  0.3529 -0.1079 -0.0849
28997ION     NA48531   3.957  16.128   5.903 -0.2024  0.0554  0.0881
28998ION     NA48532   8.217   6.131   5.371  0.1832 -0.1736 -0.0379
28999ION     NA48533   5.103  14.982  11.150  0.1234  0.1787  0.0316
29000ION     NA48534   6.209   7.661   5.977  0.3617  0.0161  0.3091
29001ION     NA48535   7.827   1.946  12.057  0.1805  0.4865  0.3248
29002ION     NA48536  14.591   5.113   5.366 -0.0225  0.0649 -0.1695
29003ION     NA48537   8.482  11.654   5.857 -0.0601 -0.1144 -0.0417
29004ION     NA48538  17.135  10.594  11.202  0.1766  0.1470 -0.0429
29005ION     NA48539   2.565  10.877   5.352  0.1937 -0.1438  0.0150
29006ION     NA48540  11.694  10.724   5.532 -0.4400 -0.0067  0.0206
29007ION     NA48541   8.578  11.636  13.313 -0.3652  0.0960  0.0127
29008ION     NA48542  10.990   0.342  11.850 -0.1864 -0.0003  0.1202
29009ION     NA48543  16.724  17.753  16.427  0.2052  0.3094 -0.1047
29010ION     NA48544   8.240  13.369  14.520  0.2476  0.4998  0.1475
29011ION     NA48545  17.891   7.704  15.060 -0.2098 -0.1101 -0.2617
29012ION     NA48546   8.859  17.270   5.310  0.1636  0.4008 -0.1123
29013ION     NA48547   6.563   2.828  12.513 -0.0730  0.1185  0.0832
29014ION     NA48548   3.188   8.985   5.516  0.1367 -0.0106  0.1320
29015ION     NA48549   9.786   0.664   2.698 -0.0785  0.0575 -0.1441
29016ION     NA48550   2.344   9.562   5.484  0.0860 -0.2529 -0.0940
29017ION     NA48551  14.011   0.726   1.356 -0.0155  0.0322  0.2253
29018ION     NA48552   2.284   4.634   5.616  0.0843 -0.0762  0.2512
29019ION     NA48553   2.879  16.036   4.976 -0.0165 -0.2731 -0.1318
29020ION     NA48554  12.845   2.162   0.323  0.1908  0.1182 -0.0864
29021ION     NA48555  12.041  16.802   5.551 -0.1607 -0.0136  0.0508
29022ION     NA48556  10.178  11.718  11.032 -0.1516 -0.1378 -0.0978
29023ION     NA48557   3.053   2.379  11.166  0.0802 -0.1345  0.2175
29024ION     NA48558  14.218   7.026   2.168 -0.1839  0.2460 -0.1456
29025ION     NA48559   5.533  14.173  11.268 -0.1766  0.0873  0.1530
29026ION     NA48560   7.111   9.772  11.457 -0.2027  0.2805 -0.3745
29027ION     NA48561   3.246   6.944  11.016 -0.0653 -0.0568  0.0591
29028ION     NA48562   0.001  11.504  14.472  0.2824 -0.0051 -0.0502
29029ION     NA48563   6.600   7.255  14.506 -0.3362  0.1273  0.1920
29030ION     NA48564   7.174   0.687  14.555 -0.1393  0.3626 -0.1367
29031ION     NA48565  15.000   6.465   1.386  0.1008  0.1479  0.2265
29032ION     NA48566  10.334  17.875   2.912  0.0264  0.2346  0.2122
29033ION     NA48567   5.884   2.155  11.232  0.1672  0.0815 -0.0427
29034ION     NA48568  17.386   3.717  10.962  0.0701  0.2220  0.1054
29035ION     NA48569   6.323  14.313  11.329  0.1145  0.0587  0.0745
29036ION     NA48570  14.628  11.302  16.499 -0.1804  0.0166 -0.1149
29037ION     NA48571  12.284  13.353   5.378  0.0695  0.0872  0.1600
29038ION     NA48572   6.265   0.632  10.909 -0.2573  0.0731 -0.0207
29039ION     NA48573   9.974  10.032   4.170  0.0644 -0.1300 -0.1257
29040ION     NA48574   5.321  12.994  11.301  0.1669 -0.0281  0.3916
29041ION     NA48575   0.773   4.781  11.022 -0.1428 -0.0563  0.2320
29042ION     NA48576   7.610   6.431   6.277  0.0847  0.0784  0.1499
29043ION     NA48577  12.844   0.054  11.362  0.0188  0.1302 -0.1345
29044ION     NA48578   7.382  13.894  11.218  0.0647  0.2193  0.0618
29045ION     NA48579  12.004   0.458   5.571 -0.2637  0.0240 -0.2073
29046ION     NA48580   2.739  14.885   5.778  0.3671 -0.1426 -0.1044
29047ION     NA48581   3.122  13.496  11.812 -0.0098 -0.2779 -0.0801
29048ION     NA48582   8.366  15.609   6.013 -0.2343  0.1046 -0.1527
29049ION     NA48583   5.483  16.176   2.706 -0.0694 -0.4219  0.1627
29050ION     NA48584   4.873  15.231   0.118 -0.0362  0.0545  0.0194
29051ION     NA48585   7.631   1.575   3.957 -0.1759 -0.0094  0.2145
29052ION     NA48586  15.558   1.624  11.332 -0.0494 -0.3227 -0.1718
29053ION     NA48587  15.757   2.960  11.177  0.0002  0.2140  0.1249
29054ION     NA48588  10.737  11.853  11.227  0.0895  0.0097 -0.2851
29055ION     NA48589  10.378   3.838   5.934  0.0187  0.0510  0.4273
29056ION     NA48590   2.154   2.579  11.367 -0.0348  0.2720 -0.1567
29057ION     NA48591   1.225   4.995  11.040  0.0016  0.1639 -0.3000
29058ION     NA48592  11.174   3.724   0.139 -0.0341 -0.0114 -0.2236
29059ION     NA48593   1.615   5.731  10.971  0.1964  0.1054  0.1508
29060ION     NA48594   9.616  12.256  10.901  0.0854 -0.0977 -0.1550
29061ION     NA48595   3.013   8.305   3.048  0.1792  0.0451  0.1180
29062ION     NA48596  15.641  11.549   5.588  0.0269 -0.1830  0.0526
29063ION     NA48597   8.030  11.956  11.204  0.3378 -0.0420  0.3664
29064ION     NA48598  11.517   5.296  10.741 -0.1230 -0.0752 -0.1678
29065ION     NA48599  12.020   9.929   5.669  0.0240 -0.0287 -0.1970
29066ION     NA48600   2.627  10.830   5.859  0.4590 -0.1506  0.0164
29067ION     NA48601   5.880   2.440   2.647  0.1553  0.0890 -0.1279
29068ION     NA48602  12.517  17.530   5.694 -0.0902 -0.0855 -0.2368
29069ION     NA48603  14.397  14.692  11.328 -0.1606  0.1325 -0.0690
29070ION     NA48604   0.325  13.685   5.832 -0.3583 -0.1784 -0.1500
29071ION     NA48605  13.153  13.163  11.379 -0.0824  0.0850  0.4731
29072ION     NA48606   6.044   8.796   5.806 -0.0417 -0.3267 -0.0372
29073ION     NA48607   4.110  17.321   5.958 -0.1674 -0.0099  0.0713
29074ION     NA48608   5.632   4.521  10.723 -0.0703 -0.0379 -0.0056
29075ION     NA48609   7.075  10.949   5.496 -0.1424  0.4162  0.3574
29076ION     NA48610  13.005   2.029  15.981  0.0336  0.0358 -0.1894
29077ION     NA48611   0.481   7.728   5.113 -0.1473 -0.2014 -0.0619
29078ION     NA48612  12.993  14.080  11.390  0.0465 -0.1303 -0.0700
29079ION     NA48613   1.307   3.638   0.359  0.0220  0.0118 -0.3155
29080ION     NA48614   3.391   3.281  10.971  0.0084  0.1893 -0.1246
29081ION     NA48615   2.607   2.218   6.089 -0.0405  0.1063 -0.2269
29082ION     NA48616  17.309  15.038   5.613  0.1520 -0.1779 -0.0296
29083ION     NA48617   3.256   6.012  11.083 -0.1567  0.1414 -0.0530
29084ION     NA48618   6.288   7.979   2.277 -0.1463 -0.2729 -0.0755
29085ION     NA48619   3.395  11.357   1.417  0.1280 -0.3079 -0.0159
29086ION     NA48620   5.621   6.131  10.777  0.3763  0.0991  0.0975
29087ION     NA48621   4.208  11.388   5.790 -0.0060  0.0728  0.0191
29088ION     NA48622   7.718   7.963  12.651  0.0346  0.0349 -0.1823
29089ION     NA48623   8.530   7.394  10.677  0.1542  0.1038 -0.0887
29090ION     NA48624   5.307   0.237   5.957 -0.3206 -0.1656  0.3054
29091ION     NA48625   2.710   5.191   0.135 -0.2911 -0.0014 -0.2045
29092ION     NA48626  12.476  17.561   1.138  0.0061  0.0442  0.0169
29093ION     NA48627   4.018  17.743  15.879 -0.1327 -0.0292  0.1810
29094ION     NA48628  17.645  17.752  11.056  0.0741 -0.0194 -0.0794
29095ION     NA48629  14.200   6.331   5.397  0.1934  0.4671 -0.1060
29096ION     NA48630  15.033   7.187  10.839  0.0828  0.1062  0.0819
29097ION     NA48631   2.411  15.378  11.174 -0.0065 -0.0866  0.3177
29098ION     NA48632   9.362  16.811   5.246  0.0894  0.1248 -0.0853
29099ION     NA48633   1.809  14.375  13.374  0.0907 -0.2092  0.1496
29100ION     NA48634  11.286   3.596   5.688  0.4271  0.1752  0.0422
29101ION     NA48635  12.192   3.744  10.782 -0.1144 -0.1894  0.1454
29102ION     NA48636  16.053  17.905   5.663  0.0210  0.0888  0.0592
29103ION     NA48637   2.218  14.913   5.792 -0.0209  0.3319 -0.2698
29104ION     NA48638   1.240   3.295  12.776  0.1579  0.1002 -0.0245
29105ION     NA48639   9.171   2.860   5.955 -0.0486  0.3821  0.1513
29106ION     NA48640  12.588  12.501  11.525  0.0307 -0.2667 -0.2814
29107ION     NA48641  12.889  11.747  11.101  0.0656 -0.1118 -0.1543
29108ION     NA48642   9.506   6.940  14.434 -0.0757  0.0606  0.1056
29109ION     NA48643  14.855  16.743   5.890 -0.0883 -0.3630 -0.2316
29110ION     NA48644   8.386   4.299   6.427 -0.0732  0.3162  0.1180
29111ION     NA48645  12.186  11.829  11.218 -0.1409 -0.1046 -0.4587
29112ION     NA48646  13.721   7.409   4.892  0.2022  0.0839  0.0796
29113ION     NA48647   1.428   9.335   5.346  0.1094 -0.0320 -0.0961
29114ION     NA48648   5.394   4.535  15.042  0.0004 -0.1853  0.0517
29115ION     NA48649  14.792   8.044   5.354 -0.3996 -0.1068 -0.0873
29116ION     NA48650  15.762  12.541   5.551 -0.3801 -0.0154 -0.0294
29117ION     NA48651   1.717   1.577   4.886  0.1232 -0.1446  0.0770
29118ION     NA48652   6.722  14.149   5.769 -0.0225  0.2295 -0.0962
29119ION     NA48653   8.526  16.983  13.982  0.0998  0.1225  0.2033
29120ION     NA48654   3.632   3.627   0.613 -0.3285 -0.2551 -0.0086
29121ION     NA48655  14.045  14.983   4.012 -0.0932 -0.0779 -0.2384
29122ION     NA48656   0.074   0.600   5.658  0.0618 -0.0591  0.2548
29123ION     NA48657   8.078  12.336   5.824  0.1707 -0.1238  0.2877
29124ION     NA48658   0.426  14.524  16.178 -0.2170  0.1621  0.2468
29125ION     NA48659  10.339  10.825   5.028  0.0624  0.1168  0.3176
29126ION     NA48660   7.302   0.511   5.461 -0.0634 -0.1827  0.0719
29127ION     NA48661   0.445   4.216  10.911  0.0423 -0.2809  0.0339
29128ION     NA48662  13.702  14.470  16.175 -0.1754 -0.1519  0.0931
29129ION     NA48663   0.457   8.895  11.157 -0.0772  0.1310 -0.0675
29130ION     NA48664  16.888  15.828   5.661 -0.1542  0.0934 -0.1602
29131ION     NA48665   1.410  17.710  11.221  0.0700 -0.1218 -0.1208
29132ION     NA48666   2.913   4.192   6.278  0.1496 -0.1442  0.3969
29133ION     NA48667  15.082   0.783   4.377  0.0778  0.0087  0.1943
29134ION     NA48668   4.059  14.806   5.588 -0.2769  0.2668  0.2240
29135ION     NA48669   2.113   9.727  11.304  0.2749 -0.0127  0.1302
29136ION     NA48670   0.432   9.527  11.852 -0.3249  0.1883 -0.0972
29137ION     NA48671   6.566   7.534   0.310 -0.2888 -0.1738  0.2221
29138ION     NA48672   9.747   8.298   4.434  0.5420  0.0062  0.0300
29139ION     NA48673   8.536   4.641  11.031 -0.6464 -0.3733 -0.0263
29140ION     NA48674   3.390   1.536  11.314 -0.0156 -0.2300 -0.2115
29141ION     NA48675  11.847   2.686  13.333 -0.0283  0.1463 -0.3916
29142ION     NA48676  15.456  15.350   4.290 -0.3045  0.0012  0.1043
29143ION     NA48677  15.305   0.251   5.657  0.2079  0.0817 -0.2205
29144ION     NA48678  12.185   3.873   5.838  0.3604 -0.0337 -0.0454
29145ION     NA48679  17.494   1.304  11.332  0.4387 -0.0032  0.2071
29146ION     NA48680   9.399   6.034   6.188  0.0940  0.2377  0.2132
29147ION     NA48681  13.719   1.021   4.587 -0.0573  0.0880  0.0847
29148ION     NA48682   6.067   3.050  10.714  0.1547 -0.1421 -0.2828
29149ION     NA48683  11.776   6.189   5.575 -0.2196  0.0918  0.2014
29150ION     NA48684   6.975  17.206   6.052 -0.0595  0.2040 -0.3903
29151ION     NA48685  17.160  15.290   0.957  0.1349  0.1459 -0.2396
29152ION     NA48686   3.130  13.977  11.152  0.4425 -0.3406  0.1165
29153ION     NA48687  15.301  10.977   5.560 -0.1727 -0.0983  0.3591
29154ION     NA48688   4.222  16.448   1.932  0.0690 -0.2586  0.0989
29155ION     NA48689   4.159   4.791  13.136  0.0692  0.2249  0.4623
29156ION     NA48690   2.671   7.368  15.289  0.1333  0.1410  0.0952
29157ION     NA48691   5.113   5.710   6.251  0.1551 -0.0998 -0.0297
29158ION     NA48692   5.735  15.562  11.219  0.0206 -0.1042  0.0933
29159ION     NA48693   8.749   0.766  11.615 -0.0773 -0.0592  0.1229
29160ION     NA48694   3.835  12.579   3.643  0.4053  0.2316 -0.0377
29161ION     NA48695  10.766  14.933   5.478 -0.0568 -0.0220 -0.0615
29162ION     NA48696  17.546   1.207   5.764  0.0926 -0.1110 -0.0731
29163ION     NA48697   5.068  16.556   3.318 -0.0793 -0.3045 -0.2314
29164ION     NA48698   6.657   4.625  10.804 -0.1381  0.2450  0.0789
29165ION     NA48699   8.379   4.043  10.510 -0.1529 -0.3438  0.1933
29166ION     NA48700   3.819  10.133  11.409 -0.1569 -0.0528 -0.1512
29167ION     NA48701   2.212   2.467   3.055  0.5804  0.2678 -0.2255
29168ION     NA48702   7.474  13.750   5.792 -0.0950  0.0952  0.3969
29169ION     NA48703   8.941  16.289  14.617 -0.0921 -0.2797  0.3377
29170ION     NA48704  10.718   3.655  10.757  0.0351  0.1155 -0.4885
29171ION     NA48705  17.727   0.849   0.041  0.0194 -0.0276 -0.1030
29172ION     NA48706   1.708   0.322   5.787  0.0237  0.0510 -0.0372
29173ION     NA48707   5.419  15.595   5.462 -0.2056  0.1276  0.0290
29174ION     NA48708   8.143  17.130  16.260 -0.1022  0.1793  0.2255
29175ION     NA48709  13.798   5.123   0.045 -0.0640  0.0914  0.0661
29176ION     NA48710  14.975  10.069   0.200  0.0519  0.1851 -0.0847
29177ION     NA48711   6.849   8.029  10.974  0.0465  0.1788 -0.0371
29178ION     NA48712   2.916  12.522  11.745 -0.2860 -0.2217  0.0659
29179ION     NA48713  13.714   5.428   5.444 -0.0990 -0.0290  0.2645
29180ION     NA48714   6.439   3.693  12.919 -0.0328 -0.2634 -0.2710
29181ION     NA48715  14.555  10.365   5.405 -0.0563  0.1945 -0.0439
29182ION     NA48716   6.624  16.334   5.975  0.1520 -0.2181  0.2231
29183ION     NA48717   7.130  16.662  11.328 -0.1176 -0.3381 -0.0539
29184ION     NA48718   6.545   3.693   6.355 -0.0391 -0.1943  0.0100
29185ION     NA48719   3.296  11.179   5.732  0.0334 -0.2366  0.1700
29186ION     NA48720   8.761  11.980  15.352 -0.1389  0.1153 -0.3204
29187ION     NA48721  16.617   9.484  15.143 -0.1730 -0.1562 -0.3903
29188ION     NA48722  16.146  16.336  11.281  0.3400  0.0317 -0.0600
29189ION     NA48723   5.558   7.753  10.888 -0.3297 -0.0229 -0.4000
29190ION     NA48724   5.136   4.916  11.350  0.1101 -0.2050  0.0257
29191ION     NA48725   7.382   8.363  12.688 -0.2819  0.0817  0.1737
29192ION     NA48726  12.168   8.329   5.686  0.2122 -0.3751  0.1703
29193ION     NA48727   8.744   1.232   5.859 -0.2557 -0.0589  0.1592
29194ION     NA48728  12.390  10.880  11.197  0.0944  0.0595  0.3085
29195ION     NA48729   5.797   2.017   6.323 -0.0941  0.1133  0.1792
29196ION     NA48730   7.658   7.485  11.040 -0.2547 -0.0470  0.0070
29197ION     NA48731   2.367  11.087  11.554  0.1841 -0.1698 -0.1029
29198ION     NA48732   6.601   1.578   5.179  0.2442 -0.0785  0.4788
29199ION     NA48733   4.823   2.411  16.413  0.0854  0.1038  0.1017
29200ION     NA48734   7.827  16.120  13.105  0.0437 -0.0852  0.3099
29201ION     NA48735   4.587  10.848  11.458  0.2357 -0.1895  0.0077
29202ION     NA48736  10.964   7.940  16.306 -0.1649  0.0567  0.0535
29203ION     NA48737   2.690   5.351   5.820  0.2561 -0.3773 -0.0479
29204ION     NA48738   8.557  10.804   5.694  0.0855  0.1944  0.2996
29205ION     NA48739  15.003  10.937  11.203 -0.0655  0.0056  0.1057
29206ION     NA48740  16.664   3.030  11.020  0.1109  0.0053  0.0025
29207ION     NA48741  10.979   5.733   4.736  0.0516  0.2693  0.1921
29208ION     NA48742  13.041   0.536   5.648 -0.0128 -0.0061 -0.0103
29209ION     NA48743  16.974  12.258  11.197  0.2058 -0.3562  0.2363
29210ION     NA48744   4.787  17.769  11.372  0.0940 -0.3475  0.0569
29211ION     NA48745   9.622  13.191   5.778 -0.0084 -0.3870 -0.1704
29212ION     NA48746   5.765  17.871  11.407  0.1051 -0.1111  0.0429
29213ION     NA48747   7.544   8.524   5.615 -0.0118 -0.0957 -0.3333
29214ION     NA48748  10.289  13.705   3.941  0.1235  0.1147  0.1371
29215ION     NA48749   5.161   8.693   1.316 -0.0486 -0.0701 -0.1056
29216ION     NA48750   9.330   9.638  11.398 -0.1439  0.4355 -0.0303
29217ION     NA48751   6.695   1.230  10.777 -0.2884 -0.0613 -0.0714
29218ION     NA48752   1.291   8.012   5.288  0.2195  0.0254  0.4780
29219ION     NA48753  10.980  10.710  13.310  0.0596  0.3160  0.0769
29220ION     NA48754   0.672  17.274  11.041 -0.2358 -0.0033 -0.1367
29221ION     NA48755  13.109   6.780  12.376  0.2633 -0.2079  0.1396
29222ION     NA48756   2.128  17.208  11.207 -0.0883  0.2480 -0.0375
29223ION     NA48757   0.487  16.394   5.864  0.0639 -0.1474 -0.2533
29224ION     NA48758  17.214   9.798  12.107 -0.0602  0.0661  0.1647
29225ION     NA48759   6.184  17.029   6.107 -0.0817  0.1340  0.0272
29226ION     NA48760   9.065  11.034  11.387  0.1285  0.0272  0.0451
29227ION     NA48761   7.090  16.461   5.917  0.2536 -0.0969 -0.0455
29228ION     NA48762   7.526  10.426   0.587  0.2919 -0.2012 -0.0597
29229ION     NA48763   4.047  12.375   5.912 -0.0302  0.3199  0.1673
29230ION     NA48764  16.241   8.628  10.524 -0.2037  0.0443  0.0441
29231ION     NA48765  13.913  14.330  15.126 -0.1125 -0.1850  0.1122
29232ION     NA48766  17.866  13.283   5.573 -0.1495  0.2117 -0.1485
29233ION     NA48767  16.146  13.302   4.416 -0.1384 -0.1266  0.0546
29234ION     NA48768  12.919  16.794   5.877  0.3173 -0.2862  0.0448
29235ION     NA48769  17.038   5.580   5.428 -0.0434  0.2413  0.0161
29236ION     NA48770  11.366   5.310   5.468  0.0291 -0.1128  0.1247
29237ION     NA48771   9.107   5.906  10.774  0.0133 -0.0137 -0.1658
29238ION     NA48772  17.669  16.747  11.133 -0.1329  0.2409 -0.0533
29239ION     NA48773   1.311   6.515  11.032 -0.1337  0.2484  0.1696
29240ION     NA48774   3.453   5.603   5.633 -0.1223  0.0907 -0.0818
29241ION     NA48775   7.113  10.603  11.072  0.2495  0.2836 -0.1769
29242ION     NA48776  10.867  13.894   5.643  0.1066 -0.0583  0.1586
29243ION     NA48777  14.603  14.719  13.277  0.0679  0.0722  0.1384
29244ION     NA48778   1.689  15.861  11.154 -0.0417 -0.1177 -0.0337
29245ION     NA48779  16.174   4.360   5.702  0.1579 -0.0548  0.2294
29246ION     NA48780  10.579   8.899   5.512  0.4647  0.1375  0.0748
29247ION     NA48781  14.566   2.767   5.880  0.2998 -0.1796 -0.0537
29248ION     NA48782  12.109   4.576  10.931  0.0224 -0.1074  0.1590
29249ION     NA48783   1.347   5.851   5.547  0.0961 -0.0182  0.3256
29250ION     NA48784   0.875   8.011  10.886 -0.1635 -0.0948  0.2435
29251ION     NA48785  14.140  10.980  11.015  0.5681  0.0214 -0.2300
29252ION     NA48786  13.138  16.337   2.090 -0.1441  0.0230 -0.0325
29253ION     NA48787   5.362  11.238   5.811  0.2818 -0.1125  0.1161
29254ION     NA48788   9.362   8.915  11.042  0.1275 -0.1876 -0.0306
29255ION     NA48789   3.936  10.525   5.814 -0.1921  0.1200  0.2558
29256ION     NA48790   3.958  14.828  12.901 -0.0235  0.0412  0.1110
29257ION     NA48791   3.838   6.263  10.995 -0.1616 -0.1384 -0.0482
29258ION     NA48792   2.288   0.195  11.278 -0.0436 -0.0648 -0.0266
29259ION     NA48793   8.859   8.879   3.129 -0.0953 -0.0132  0.0359
29260ION     NA48794   7.549  15.887   6.083 -0.1438 -0.0814 -0.2367
29261ION     NA48795  13.980  11.896   5.413  0.0774 -0.0066  0.0097
29262ION     NA48796  10.682   2.928  11.130 -0.1249 -0.0284 -0.3853
29263ION     NA48797  12.158   7.893  11.122 -0.3279  0.1170 -0.4103
29264ION     NA48798  15.731  14.355   5.512  0.2225 -0.0713 -0.0979
29265ION     NA48799  12.064  15.611  11.090 -0.3456 -0.0659 -0.1950
29266ION     NA48800   2.873   0.564  13.921 -0.1904  0.0322  0.1358
29267ION     NA48801   8.109   0.308   4.961  0.0807 -0.0387 -0.1950
29268ION     NA48802  15.198  16.615  13.549 -0.1061 -0.0083  0.0829
29269ION     NA48803  12.953  15.316  11.503 -0.1024  0.0807 -0.1994
29270ION     NA48804   4.453  15.300  11.832 -0.1781  0.0538 -0.1762
29271ION     NA48805   8.720   0.593  11.073 -0.2175 -0.1949 -0.2140
29272ION     NA48806   4.388  17.766   5.848 -0.2127  0.0747  0.0332
29273ION     NA48807   1.883   5.490   5.726  0.0876 -0.0127 -0.0313
29274ION     NA48808  13.413   8.644  11.166 -0.1394 -0.1754  0.4198
29275ION     NA48809  14.068  16.298  15.741  0.1243 -0.0114  0.1409
29276ION     NA48810   1.233  14.646  11.346  0.1675 -0.0475  0.0605
29277ION     NA48811   2.623  16.157  11.246  0.1102 -0.0127  0.1211
29278ION     NA48812   7.585   1.722  10.766  0.0967  0.0682 -0.1609
29279ION     NA48813   1.129  12.673   5.458 -0.2740 -0.1032 -0.2923
29280ION     NA48814   3.418  17.399   4.922  0.1015 -0.4455 -0.2437
29281ION     NA48815   8.238  15.376  11.557 -0.0393 -0.0007 -0.0749
29282ION     NA48816  12.880   6.210   5.492  0.0641  0.0723 -0.3022
29283ION     NA48817   6.425  12.186   5.726 -0.0597 -0.0719  0.2502
29284ION     NA48818   6.100  17.786   6.212  0.1807 -0.3162  0.0263
29285ION     NA48819  12.946   7.818  11.077 -0.2756  0.3726 -0.0551
29286ION     NA48820  10.655   4.174  15.538 -0.0162  0.0144 -0.1110
29287ION     NA48821   4.649   7.107   5.776  0.1001  0.3762 -0.0609
29288ION     NA48822   0.544  13.146  11.265 -0.2189 -0.1657 -0.1100
29289ION     NA48823   1.186   5.484  11.105  0.0062 -0.0764  0.0228
29290ION     NA48824  17.444  13.005  11.212 -0.4219 -0.4335 -0.0663
29291ION     NA48825   5.841  12.846   5.784  0.2940 -0.2351  0.1026
29292ION     NA48826  12.448  11.301   2.908 -0.1159  0.0992 -0.3044
29293ION     NA48827  12.237   9.394  11.183  0.0685  0.1710 -0.0786
29294ION     NA48828  15.702  12.993  11.498 -0.1778  0.1506  0.0760
29295ION     NA48829   2.740   0.572   3.900  0.0645 -0.0972 -0.2047
29296ION     NA48830  16.615   8.006   5.150 -0.3648 -0.2458  0.3219
29297ION     NA48831  16.159  16.241   5.822 -0.0910 -0.0456  0.1434
29298ION     NA48832   4.363  17.400  11.243 -0.1066  0.5377  0.0503
29299ION     NA48833   0.135  14.978   2.707  0.0783  0.0997 -0.0589
29300ION     NA48834  12.471   5.414  10.719 -0.1378  0.1448  0.2908
29301ION     NA48835  11.342  12.935  11.131  0.0036  0.0078  0.1306
29302ION     NA48836  11.521   1.534  11.263  0.0503 -0.0809  0.3385
29303ION     NA48837  11.027   0.267  16.229 -0.0031  0.1092 -0.2380
29304ION     NA48838   2.182   0.919  11.449  0.2712  0.0189  0.0839
29305ION     NA48839   1.077  10.186   5.626  0.0032  0.2462 -0.0094
29306ION     NA48840   0.437  14.537   5.736  0.2381 -0.0647 -0.3342
29307ION     NA48841   4.925  16.856   0.485  0.1288  0.3130 -0.1694
29308ION     NA48842  10.754   3.290   4.817 -0.0698  0.0546  0.0296
29309ION     NA48843   1.319   7.661   2.670 -0.2281 -0.0447 -0.4798
29310ION     NA48844  15.314  13.409   5.650 -0.0443  0.0573 -0.0929
29311ION     NA48845   5.308   2.497   6.392 -0.0828  0.1398 -0.2806
29312ION     NA48846   1.458   3.296   5.921 -0.3331  0.0565  0.2755
29313ION     NA48847   3.838   6.830   1.013 -0.2686 -0.1151 -0.1837
29314ION     NA48848  15.696   6.587  10.785 -0.0282 -0.2757 -0.2087
29315ION     NA48849  14.876   1.077   0.888 -0.0001 -0.1763  0.0149
29316ION     NA48850  14.051   4.308  11.356  0.0226  0.0791  0.2298
29317ION     NA48851   3.530   2.690  15.464 -0.1564 -0.1471 -0.0973
29318ION     NA48852   4.189   3.371  11.001 -0.2498  0.1259 -0.1930
29319ION     NA48853  12.590   0.633  11.230  0.3164 -0.2170  0.0731
29320ION     NA48854   6.924   8.992  11.145  0.0982  0.0990 -0.0920
29321ION     NA48855  13.525  17.550  14.928  0.1082 -0.2862 -0.1319
29322ION     NA48856  14.867  12.139   5.397  0.0496 -0.2021  0.1325
29323ION     NA48857  10.252   8.294   1.272 -0.1072  0.2171  0.0436
29324ION     NA48858   6.528  13.808   5.503  0.1418 -0.0830  0.2291
29325ION     NA48859  16.745   3.330  11.971  0.0030 -0.2150 -0.0218
29326ION     NA48860  16.031   6.108   5.597  0.2064 -0.0969  0.1148
29327ION     NA48861  16.895  10.892  10.850 -0.1420 -0.0502 -0.0267
29328ION     NA48862   5.073  12.260  11.015  0.0400  0.0428  0.0317
29329ION     NA48863   5.071   9.668   5.613 -0.0378 -0.3071 -0.2261
29330ION     NA48864   2.326  13.660   5.732 -0.0483 -0.1192  0.0176
29331ION     NA48865  15.900   0.199  11.310 -0.1507  0.3196 -0.1206
29332ION     NA48866  11.561   9.773   5.745 -0.2167  0.0576  0.0445
29333ION     NA48867   2.785   0.076  11.429 -0.2589 -0.0453 -0.3670
29334ION     NA48868   3.004  16.048   3.970  0.1835 -0.0611 -0.0830
29335ION     NA48869   4.631  11.758   5.909  0.2230  0.0134 -0.0826
29336ION     NA48870  14.232   0.984  16.039  0.0885  0.4603  0.0255
29337ION     NA48871   2.185   7.351  11.097 -0.1138  0.1869 -0.0252
29338ION     NA48872  15.016  10.147   5.469  0.3514 -0.0553 -0.1251
29339ION     NA48873  16.591  13.045  11.052  0.1150  0.0435  0.2042
29340ION     NA48874  14.647  12.235  13.407  0.3207  0.0488 -0.0766
29341ION     NA48875   1.380   4.249   5.834 -0.0566 -0.1229  0.0861
29342ION     NA48876  13.807   6.530  11.833 -0.1293  0.0966 -0.2081
29343ION     NA48877  14.535   1.374  14.871  0.3151  0.0945  0.4965
29344ION     NA48878  12.068  12.017   4.691 -0.2871 -0.3722  0.1547
29345ION     NA48879  15.530   9.191   2.057  0.1268  0.1019 -0.1181
29346ION     NA48880  13.259  11.762   5.610  0.2809  0.0375 -0.1585
29347ION     NA48881  12.840   8.852  12.238  0.0056  0.2762  0.2513
29348ION     NA48882  17.767   3.319   1.707  0.2411 -0.2541  0.1937
29349ION     NA48883   8.039   5.468  10.866 -0.3488  0.0182  0.1224
29350ION     NA48884  15.664  14.086  10.954 -0.0148 -0.0589 -0.1044
29351ION     NA48885  11.990  14.916   5.676  0.1804  0.1306  0.0163
29352ION     NA48886  13.412  17.689   5.764 -0.0842 -0.2186  0.1301
29353ION     NA48887  10.350  12.684  10.960  0.0460 -0.0409  0.0110
29354ION     NA48888   1.301   7.154   5.189  0.0074  0.0536 -0.4823
29355ION     NA48889   7.265   8.293  11.035  0.3543  0.0452 -0.2020
29356ION     NA48890   2.176  12.678   4.009  0.0562 -0.4580 -0.1941
29357ION     NA48891   0.899  15.470  11.322 -0.0347  0.0355  0.1158
29358ION     NA48892   1.277  16.954  15.734 -0.1691  0.1864  0.0549
29359ION     NA48893  17.628  15.998   5.565  0.3035 -0.0192  0.1438
29360ION     NA48894   3.807   7.155   5.673  0.0557  0.1098  0.1635
29361ION     NA48895   4.745  16.812  11.234 -0.3291  0.2597  0.0820
29362ION     NA48896  13.930   0.781   5.793  0.3803 -0.2733  0.0931
29363ION     NA48897  15.060   6.749   5.432  0.0628 -0.3343  0.1659
29364ION     NA48898   1.612   9.523   5.779 -0.0366  0.3622  0.3005
29365ION     NA48899  15.693  17.123  11.325  0.2022 -0.0423 -0.0619
29366ION     NA48900  12.212   7.834  15.255 -0.0578  0.1588  0.1901
29367ION     NA48901  12.534  10.610   5.574  0.0217 -0.2564  0.1405
29368ION     NA48902  10.909   2.738   5.823 -0.2154 -0.1446  0.1991
29369ION     NA48903  11.733   8.719  11.177 -0.0086  0.0509 -0.1448
29370ION     NA48904   1.406  12.302   4.705 -0.0855 -0.0495 -0.0615
29371ION     NA48905  15.759   0.733   1.574 -0.0191 -0.2162 -0.1821
29372ION     NA48906   8.121   4.401   1.045  0.3083  0.1875 -0.2160
29373ION     NA48907  11.606  11.142  11.369 -0.0712  0.1591 -0.0521
29374ION     NA48908   8.715   7.466   6.297 -0.0999  0.3109 -0.0730
29375ION     NA48909   2.303  13.520  14.804 -0.3435  0.1985  0.2257
29376ION     NA48910  13.574   2.071  12.239 -0.3448 -0.0253 -0.1655
29377ION     NA48911  12.080  16.988   3.002  0.1631 -0.0049  0.2468
29378ION     NA48912   3.885  15.331   5.730  0.3763 -0.1047 -0.0928
29379ION     NA48913   6.039   6.877   6.293 -0.1698 -0.0888 -0.0986
29380ION     NA48914  12.925   1.638   5.668  0.1492  0.1873 -0.2181
29381ION     NA48915  17.264   0.580  11.135 -0.0047 -0.0799 -0.1325
29382ION     NA48916   0.913  12.838  11.093  0.0124  0.1452 -0.0772
29383ION     NA48917   4.630  16.645   5.729  0.1585 -0.2764 -0.0057
29384ION     NA48918   6.556   1.463   6.212 -0.2821  0.3793  0.0004
29385ION     NA48919   9.799   3.511  10.919 -0.2388 -0.2078 -0.3637
29386ION     NA48920  10.619  16.123   5.654  0.0095  0.0955 -0.3378
29387ION     NA48921   3.904   4.137  11.152 -0.0710 -0.0711  0.1537
29388ION     NA48922   5.483  13.158  13.243  0.0206 -0.0148 -0.0595
29389ION     NA48923   1.728   8.658   5.580  0.0576  0.1004  0.2418
29390ION     NA48924  15.341   5.442  10.931 -0.0821 -0.0228 -0.0855
29391ION     NA48925   4.791   6.057  10.807  0.2472  0.0731 -0.3111
29392ION     NA48926   4.408   5.572  13.427  0.2513 -0.1844 -0.0937
29393ION     NA48927  15.475   2.115  11.333  0.0060  0.0714  0.2173
29394ION     NA48928  10.704   7.674  10.933  0.3202 -0.1576 -0.0643
29395ION     NA48929   7.241  11.020  16.688 -0.4229 -0.0863 -0.0991
29396ION     NA48930   2.204  16.499   6.012  0.1530  0.0773 -0.2669
29397ION     NA48931   8.237   2.442  10.903  0.2594 -0.0355 -0.0807
29398ION     NA48932   8.201   6.273  10.754  0.0627  0.2237  0.2965
29399ION     NA48933  12.924  14.668   5.377  0.1240 -0.0222 -0.1264
29400ION     NA48934  11.726  16.604  11.232 -0.0728  0.0250  0.2624
29401ION     NA48935   2.302  15.486   4.443 -0.0327 -0.0175 -0.0155
29402ION     NA48936  12.845   8.742   5.047  0.2669  0.1547  0.3285
29403ION     NA48937   3.222  15.363  11.326 -0.0701  0.0583  0.0433
29404ION     NA48938  16.022  16.153   3.152  0.0512 -0.3174  0.1221
29405ION     NA48939   8.190  10.235   5.757  0.1429  0.0769 -0.1185
29406ION     NA48940  13.510  14.464   5.579  0.1151 -0.0462 -0.2331
29407ION     NA48941   1.980  16.662  11.213 -0.1261  0.1337 -0.0512
29408ION     NA48942   7.273   2.455   5.924 -0.1541 -0.0814  0.2250
29409ION     NA48943  16.164  12.409   0.391 -0.3134 -0.4473 -0.0738
29410ION     NA48944  15.531  12.325  13.074  0.0113 -0.0789 -0.0801
29411ION     NA48945   9.062   1.536   2.156  0.0209  0.2316  0.0121
29412ION     NA48946   2.918  10.036   2.714  0.3111 -0.0914 -0.1922
29413ION     NA48947  12.570  12.883  14.965  0.0682 -0.2904  0.0666
29414ION     NA48948  16.162   4.942  11.099  0.1260 -0.1507 -0.1502
29415ION     NA48949  10.767  16.693  11.165  0.0827  0.0640 -0.0453
29416ION     NA48950   3.971  17.563  12.680 -0.0128  0.2901 -0.0310
29417ION     NA48951  13.132   1.983  13.512  0.1384 -0.2160  0.0970
29418ION     NA48952   9.147  13.388  11.194 -0.0007 -0.1766 -0.3790
29419ION     NA48953  10.026  14.940  12.591 -0.3530  0.1143  0.3237
29420ION     NA48954   2.508   3.253  11.352  0.1382 -0.1041  0.0349
29421ION     NA48955   7.974   9.362   5.717  0.2055 -0.3319 -0.0401
29422ION     NA48956   8.430   8.530  10.988  0.0975  0.2182 -0.0738
29423ION     NA48957   9.223   4.005  10.778 -0.0892  0.1375  0.1890
29424ION     NA48958   5.677  14.779   2.955  0.1647  0.3325  0.1962
29425ION     NA48959  11.712  14.037   5.584 -0.1963 -0.1386 -0.1210
29426ION     NA48960  14.636   3.569  15.532 -0.1028  0.0469 -0.1915
29427ION     NA48961  14.513   8.012  10.875 -0.1659  0.0183 -0.3559
29428ION     NA48962   9.684  16.897   5.762 -0.2639  0.0865 -0.1907
29429ION     NA48963  15.033  17.797  11.571 -0.0540  0.0044 -0.0579
29430ION     NA48964  13.540  12.858  11.143 -0.0566  0.1581  0.0893
29431ION     NA48965   8.930   6.751  10.730 -0.1118  0.0560 -0.2768
29432ION     NA48966   7.464  12.591   3.648 -0.0932 -0.2556 -0.1944
29433ION     NA48967   3.077   3.727   4.381  0.0884  0.0501 -0.1898
29434ION     NA48968   8.096  12.205   5.361 -0.1917 -0.1031 -0.2664
29435ION     NA48969  17.425  16.658   5.811 -0.0105  0.1314  0.1435
29436ION     NA48970   6.085  10.676  15.947 -0.1605 -0.0870 -0.2408
29437ION     NA48971  12.395  12.657   5.524  0.2110  0.0913  0.1090
29438ION     NA48972  13.085   6.122  10.895 -0.4071  0.2474  0.0164
29439ION     NA48973   8.337  13.997   4.856 -0.0227  0.1163  0.1763
29440ION     NA48974   7.489   5.785  14.734  0.4264  0.1010 -0.0172
29441ION     NA48975   8.877   7.461  11.512 -0.0106 -0.0398 -0.0845
29442ION     NA48976   9.435   5.136  10.920  0.0077 -0.1560  0.1367
29443ION     NA48977  13.621  14.131   0.204 -0.0458 -0.1212  0.0265
29444ION     NA48978  17.472   7.842   5.360  0.2179 -0.3058  0.0919
29445ION     NA48979  11.026   2.984   3.488 -0.0450 -0.0907 -0.0275
29446ION     NA48980   0.139   8.606  10.668  0.1319  0.0020 -0.2012
29447ION     NA48981   0.751   8.802  10.728 -0.1554  0.0935 -0.2381
29448ION     NA48982   6.253  11.565  11.303 -0.2297 -0.2683 -0.1435
29449ION     NA48983   7.925   2.451   0.360  0.2514  0.0467  0.0462
29450ION     NA48984  11.733  12.061   1.145 -0.0498 -0.2166  0.1279
29451ION     NA48985  14.977  16.907  15.884  0.0461  0.0318 -0.1968
29452ION     NA48986   9.330   5.007   4.011  0.1453 -0.3476 -0.2448
29453ION     NA48987   1.386  14.521   5.880  0.1943  0.0231  0.1827
29454ION     NA48988  11.215  16.724   5.714  0.0762  0.3606 -0.1302
29455ION     NA48989   5.492   9.238  11.328  0.0189 -0.2490  0.0227
29456ION     NA48990  12.408   2.249   5.744  0.0094  0.0443 -0.1179
29457ION     NA48991   4.316   1.904  14.971  0.0342 -0.1395 -0.3960
29458ION     NA48992   4.522  13.993   5.539 -0.0662 -0.1490  0.0182
29459ION     NA48993   3.862   5.091  10.930 -0.1607 -0.0473  0.1589
29460ION     NA48994   6.562  10.252   5.538  0.1635  0.0588 -0.0701
29461ION     NA48995   0.838  13.986  11.118 -0.2970  0.0102  0.1248
29462ION     NA48996   2.525   2.948   5.835  0.4179  0.0858 -0.0140
29463ION     NA48997   4.287  13.415   2.416  0.0842  0.0563  0.0481
29464ION     NA48998   7.954  16.712   5.914  0.0992 -0.1260 -0.4109
29465ION     NA48999  13.103  14.669  12.148 -0.0913 -0.3107 -0.2194
29466ION     NA49000   0.874  13.608   5.848 -0.1479  0.1633 -0.0372
29467ION     NA49001  15.335   8.637   5.395  0.3715 -0.2119 -0.1106
29468ION     NA49002  15.313   2.778   1.047 -0.1035  0.0120  0.3541
29469ION     NA49003  14.515   7.649   5.423  0.3003  0.5506 -0.2588
29470ION     NA49004   9.517   3.331  11.267  0.3545 -0.1782  0.3145
29471ION     NA49005  17.489  10.887  12.433  0.0558 -0.3336 -0.1780
29472ION     NA49006   3.926   3.464   5.603 -0.0272  0.0431  0.1542
29473ION     NA49007   4.337   1.633  11.442  0.1252 -0.1060  0.1778
29474ION     NA49008   2.255  16.668   3.810  0.1790 -0.1419  0.1246
29475ION     NA49009  17.477  14.134   5.830 -0.0067  0.0426 -0.3921
29476ION     NA49010   2.759   1.713   5.997 -0.0901  0.0638  0.1866
29477ION     NA49011   4.216   1.335   6.060 -0.0274 -0.2690  0.0724
29478ION     NA49012   3.870   0.476   6.188  0.0788  0.0613  0.2390
29479ION     NA49013  10.733  10.928  16.066 -0.1440 -0.3794  0.1186
29480ION     NA49014  14.590   4.962  10.880  0.0628 -0.1848  0.4240
29481ION     NA49015  14.276  15.788   3.666  0.3913  0.0595 -0.0625
29482ION     NA49016  13.319   7.040  10.917 -0.1228 -0.6548  0.4747
29483ION     NA49017   0.472   3.661   5.685 -0.2983  0.0698 -0.2355
29484ION     NA49018   2.982  12.784  16.652 -0.2376 -0.3020  0.2479
29485ION     NA49019  13.405   9.194   5.609 -0.0765 -0.0508 -0.2740
29486ION     NA49020   7.906  17.377  11.192 -0.2737 -0.1316  0.1034
29487ION     NA49021  15.447   1.088  12.258 -0.1563 -0.0092 -0.0560
29488ION     NA49022  10.806   4.635   5.768  0.0112 -0.1378 -0.1896
29489ION     NA49023   2.548  15.868   5.653 -0.1670 -0.2211 -0.1183
29490ION     NA49024   4.083   4.371   5.804 -0.4120 -0.3233 -0.1330
29491ION     NA49025   6.620   9.218   4.416 -0.0522 -0.1899  0.1684
29492ION     NA49026   7.177  11.560  11.278 -0.0165 -0.0417  0.1904
29493ION     NA49027   2.121   4.047  10.977  0.3940 -0.2542  0.1295
29494ION     NA49028   1.929   7.457   4.477  0.1680 -0.2336 -0.2520
29495ION     NA49029  12.583  14.962  11.386 -0.1823 -0.3466  0.2353
29496ION     NA49030   6.337   9.366  11.198 -0.1399  0.0510 -0.0677
29497ION     NA49031   5.192   1.720  11.491  0.0852  0.1291  0.1108
29498ION     NA49032   9.278   7.940  10.846 -0.0007 -0.2042 -0.1341
29499ION     NA49033   1.879   2.853   1.703 -0.2105 -0.1069 -0.1682
29500ION     NA49034  10.360   3.513   1.428  0.0223  0.2220 -0.1627
29501ION     NA49035  10.652  12.988   5.554 -0.1465 -0.4360  0.0742
29502ION     NA49036   0.939  11.388   5.527 -0.4392  0.1114  0.0630
29503ION     NA49037  11.142  10.596   3.309 -0.2411 -0.1848 -0.0812
29504ION     NA49038  10.707   4.923  10.944 -0.0658 -0.2136 -0.1828
29505ION     NA49039  11.540  13.976  11.145  0.0489  0.1350 -0.0638
29506ION     NA49040  10.821  10.052   5.281 -0.1214  0.1875  0.0584
29507ION     NA49041  16.877   5.359  13.471  0.0251 -0.0838  0.0807
29508ION     NA49042  16.116   6.988   5.457  0.0437 -0.0901 -0.0712
29509ION     NA49043  12.699   2.619   1.338  0.2687 -0.1359  0.1965
29510ION     NA49044  12.634   0.131   2.440 -0.0817 -0.2127  0.0221
29511ION     NA49045   3.885   2.338  11.132  0.0715 -0.0534 -0.2303
29512ION     NA49046   5.891   2.624  16.414  0.3670  0.2345  0.0256
29513ION     NA49047  12.998   8.486   5.601 -0.0536  0.0652 -0.0437
29514ION     NA49048  17.449   6.947  11.407  0.0067  0.2736  0.0854
29515ION     NA49049   8.285  11.703   1.431  0.1361  0.3351 -0.1119
29516ION     NA49050   0.409  14.712  11.214 -0.0386  0.0451 -0.1644
29517ION     NA49051   4.444   5.120   6.035  0.1576 -0.1582 -0.4258
29518ION     NA49052   8.918  12.502   5.649 -0.1999 -0.2843  0.3837
29519ION     NA49053   8.676   8.766   5.783  0.1622  0.0855  0.1369
29520ION     NA49054   3.367   7.420   5.348 -0.0753 -0.2505 -0.4145
29521ION     NA49055   9.127   5.127   6.334  0.1009  0.2807  0.0019
29522ION     NA49056   5.474  15.096   5.404 -0.1132  0.0897 -0.0888
29523ION     NA49057   1.830  11.301   5.776  0.2386 -0.1734  0.2467
29524ION     NA49058   2.202   8.679   3.762  0.2935 -0.2183 -0.1685
29525ION     NA49059  13.598   6.316   5.283 -0.1046 -0.3088  0.0688
29526ION     NA49060  13.590  17.494   3.195 -0.0591 -0.0426 -0.1073
29527ION     NA49061  16.136   3.071  14.578 -0.1481  0.3032 -0.0192
29528ION     NA49062   6.937   4.607   6.396  0.0915  0.1845 -0.0929
29529ION     NA49063   4.816  13.609  11.160 -0.1315 -0.3793  0.2225
29530ION     NA49064   6.720  12.576  12.994  0.1010 -0.6300  0.0818
29531ION     NA49065  10.088  14.371   5.707  0.0615 -0.3925 -0.1298
29532ION     NA49066  13.810   3.625  13.503  0.0024 -0.2718 -0.1793
29533ION     NA49067   8.340  16.619  11.454 -0.1828  0.4318  0.1656
29534ION     NA49068   5.848  12.193  10.986 -0.1304  0.2287  0.0602
29535ION     NA49069  13.881  14.182   5.694  0.0588 -0.1013  0.0971
29536ION     NA49070  14.586  10.994   4.486  0.2604 -0.3119  0.3892
29537ION     NA49071   2.394   7.077   5.436 -0.1583  0.1871  0.0547
29538ION     NA49072   5.972  10.653   1.356 -0.0722  0.4660  0.4143
29539ION     NA49073   4.665  15.674   5.715  0.0305 -0.3145 -0.1676
29540ION     NA49074  17.065   0.478   5.793  0.2074  0.3051  0.0801
29541ION     NA49075   8.130   8.440   1.459  0.1061  0.1512 -0.3042
29542ION     NA49076   0.268   3.317  10.910 -0.0528 -0.0233 -0.4548
29543ION     NA49077   5.391  15.358  14.803 -0.0294 -0.0516  0.2896
29544ION     NA49078   3.993   1.509   3.605  0.2225 -0.0971 -0.3340
29545ION     NA49079  15.758  13.091  10.991 -0.0750 -0.0027 -0.2783
29546ION     NA49080  16.676   4.373  10.818 -0.0808  0.1841 -0.0362
29547ION     NA49081  14.351   9.527  15.117 -0.2162 -0.0991  0.2368
29548ION     NA49082  12.713   4.585  10.893 -0.1783 -0.2186 -0.3026
29549ION     NA49083   3.341   2.744   6.236  0.0233 -0.0197  0.1636
29550ION     NA49084  15.435   0.162  13.913 -0.0053  0.0949  0.0418
29551ION     NA49085   3.577   9.379  11.284 -0.1366 -0.0790 -0.0362
29552ION     NA49086  12.627  16.411   0.473  0.3235  0.1689  0.0940
29553ION     NA49087  10.712   1.546  11.160 -0.0343  0.1042  0.1431
29554ION     NA49088  11.448   9.637  11.329 -0.0759  0.0418 -0.1688
29555ION     NA49089  13.835   6.342  10.703  0.1927  0.0449 -0.2221
29556ION     NA49090   2.680  11.653   5.573  0.0655  0.0506  0.2932
29557ION     NA49091   7.428   2.515  10.913 -0.0320  0.0573  0.2372
29558ION     NA49092   1.855  13.851   0.578  0.0103 -0.0434 -0.0221
29559ION     NA49093   9.286   2.404  11.044  0.0471  0.2499  0.0588
29560ION     NA49094   1.087   9.745  11.203 -0.0140 -0.0717 -0.2780
29561ION     NA49095   0.997   0.748   5.761 -0.2483 -0.0798 -0.2642
29562ION     NA49096  17.903   5.458  10.829 -0.3471 -0.1694 -0.1564
29563ION     NA49097  17.025   7.941  10.682  0.0205  0.0251 -0.2559
29564ION     NA49098  14.766   0.237  12.161 -0.2935  0.0203  0.0402
29565ION     NA49099  14.204   6.875  15.613 -0.2303 -0.1567  0.2279
29566ION     NA49100   6.698   1.999  10.653  0.1604 -0.0732 -0.3978
29567ION     NA49101   1.171  17.203   5.691 -0.4435 -0.1222 -0.1682
29568ION     NA49102  16.801   4.007   5.639 -0.1383  0.1388 -0.1060
29569ION     NA49103  11.597   6.274  11.161  0.0986 -0.1228  0.1444
29570ION     NA49104  11.520   7.194  11.320 -0.1106 -0.1138  0.2582
29571ION     NA49105   9.311   0.552   5.383 -0.0063 -0.2240 -0.1979
29572ION     NA49106   2.213  10.263  11.358  0.0932 -0.2942 -0.1179
29573ION     NA49107   9.032   0.993  11.227  0.0930 -0.2022  0.0974
29574ION     NA49108   0.427   3.137   5.844 -0.1985  0.3157 -0.1211
29575ION     NA49109   6.900   6.191  10.788 -0.1801  0.0369 -0.1700
29576ION     NA49110   5.460  11.038  11.265 -0.1915 -0.2030 -0.1739
29577ION     NA49111  11.773  10.217  11.162  0.4621 -0.0870 -0.1868
29578ION     NA49112   6.326  15.974  11.327  0.3006  0.1990  0.2118
29579ION     NA49113   4.879   5.640  11.365  0.1349 -0.0944  0.2440
29580ION     NA49114  17.248   9.411  10.589  0.1090  0.1365  0.1352
29581ION     NA49115   3.031  17.165   5.943  0.1813 -0.0681  0.1981
29582ION     NA49116   0.722   6.227  10.955 -0.2516  0.0247 -0.1041
29583ION     NA49117  11.256   2.274  11.326 -0.0579 -0.3151 -0.1223
29584ION     NA49118  15.268   4.587  10.846 -0.1004 -0.2630  0.2276
29585ION     NA49119   0.457  12.122  11.168  0.2194  0.1527  0.2450
29586ION     NA49120  12.020  17.421  11.550 -0.0537  0.1492  0.0072
29587ION     NA49121   7.661   0.927  11.105 -0.2301  0.0144 -0.3555
29588ION     NA49122   4.148   2.631  12.006  0.1354  0.3569 -0.1175
29589ION     NA49123  16.571  12.769   5.537  0.2110  0.0508  0.0251
29590ION     NA49124   6.057  10.235  11.167 -0.0744  0.1597  0.1054
29591ION     NA49125   9.264  11.367   5.733 -0.2067 -0.2126  0.0106
29592ION     NA49126   5.565   4.108  11.093  0.1172 -0.1212  0.0774
29593ION     NA49127  13.317   2.417   5.869  0.1361 -0.0920  0.0097
29594ION     NA49128  15.510   8.048  10.773  0.0580  0.1290 -0.1437
29595ION     NA49129   4.084  16.422  11.313  0.1939  0.1003 -0.0853
29596ION     NA49130   8.541  14.714   6.020 -0.1225  0.1519 -0.1949
29597ION     NA49131  15.201   1.918   5.141 -0.1134 -0.1138  0.1905
29598ION     NA49132   2.270   3.549   6.271  0.0413 -0.2287  0.1213
29599ION     NA49133   6.499  14.083   3.029 -0.0202 -0.0061  0.2065
29600ION     NA49134   6.857  17.367  12.848 -0.2475 -0.1408  0.1105
29601ION     NA49135  10.715   0.955   5.534  0.1065 -0.0525 -0.0902
29602ION     NA49136  13.108   7.427   1.801  0.3446 -0.0997  0.0484
29603ION     NA49137   4.284   2.649  10.904  0.1426  0.1969  0.1052
29604ION     NA49138   6.020   3.510  10.871  0.1667 -0.1064  0.3647
29605ION     NA49139   9.616   3.594   5.964  0.1693 -0.1507 -0.0420
29606ION     NA49140  10.286   1.821   5.305 -0.3554  0.0447  0.0657
29607ION     NA49141   1.764  15.712   6.114  0.0640 -0.0160 -0.0446
29608ION     NA49142  17.721   4.664  11.070 -0.3441 -0.1329 -0.0546
29609ION     NA49143   4.620   0.625   6.057 -0.0501  0.0593 -0.0983
29610ION     NA49144   3.890   1.997  16.439 -0.2635  0.0813 -0.1043
29611ION     NA49145   9.231   4.530   6.061  0.1668 -0.1831 -0.1655
29612ION     NA49146   0.533   5.641   1.048 -0.0983 -0.1114 -0.1248
29613ION     NA49147   7.883  12.598   0.230  0.0263  0.1348 -0.1331
29614ION     NA49148  12.769  17.491  15.649 -0.0830  0.0895  0.1496
29615ION     NA49149   4.841   8.468   3.743  0.0816  0.0245 -0.2104
29616ION     NA49150  11.562  14.995  12.504  0.0375 -0.1258 -0.1372
29617ION     NA49151  11.635  12.906  11.860 -0.0717  0.1096 -0.1240
29618ION     NA49152  10.689   7.485  11.739  0.2418 -0.0505 -0.1756
29619ION     NA49153   0.857  11.398  11.056 -0.3629 -0.1624 -0.0322
29620ION     NA49154  17.017   7.144   5.157  0.0391  0.2189 -0.1101
29621ION     NA49155  14.685   8.949   5.164  0.1038  0.2169  0.0318
29622ION     NA49156  16.268   1.276  11.666  0.5861  0.2560 -0.1273
29623ION     NA49157   5.911   7.036  11.106 -0.1045  0.0595  0.0261
29624ION     NA49158   9.151  15.398  11.322  0.0140 -0.2259  0.0163
29625ION     NA49159   5.033   6.437   5.778  0.2176 -0.2072 -0.0000
29626ION     NA49160  15.975  12.407  10.867  0.1153  0.0163  0.2317
29627ION     NA49161  12.038   1.412   5.646 -0.2932  0.1129 -0.0336
29628ION     NA49162   1.522   3.163  11.689 -0.1995  0.0484 -0.2199
29629ION     NA49163   1.671   3.289  11.176  0.0406  0.0682 -0.4574
29630ION     NA49164  12.287  12.837  11.245 -0.0078  0.4547  0.0151
29631ION     NA49165  15.265   4.545   2.252 -0.0147  0.0592  0.0841
29632ION     NA49166  11.026   7.541   5.521  0.0064  0.2139  0.3399
29633ION     NA49167  12.776   3.270  11.139 -0.0051 -0.0342  0.1487
29634ION     NA49168  12.640  14.989   0.352 -0.2149 -0.0062  0.2318
29635ION     NA49169   6.927  12.958   5.699 -0.4519 -0.0518 -0.2067
29636ION     NA49170   7.323   9.939   5.668 -0.1582  0.3522  0.1073
29637ION     NA49171  11.290   5.762  16.646 -0.1279 -0.0014 -0.3017
29638ION     NA49172  11.780   1.438   4.162 -0.2522 -0.0067  0.0304
29639ION     NA49173   3.646   5.218   5.880  0.4126 -0.3009 -0.1913
29640ION     NA49174   3.901   9.464  14.842  0.1090  0.2149 -0.1400
29641ION     NA49175   9.271  10.275   5.469  0.0695 -0.1916  0.0531
29642ION     NA49176  15.456  15.176   5.615  0.0726  0.1376  0.0799
29643ION     NA49177   6.878   9.214   5.628  0.2126 -0.1907 -0.2709
29644ION     NA49178  17.425   3.401   5.689  0.0247 -0.0443  0.3882
29645ION     NA49179  16.669   6.387   5.343 -0.4480  0.0114 -0.2171
29646ION     NA49180  13.281  11.089   5.571 -0.0117 -0.3258  0.0389
29647ION     NA49181   4.946  11.811   3.555 -0.2738  0.0020  0.1558
29648ION     NA49182   2.087  11.407   3.595  0.0361 -0.3160  0.0167
29649ION     NA49183   0.618  16.295  11.237  0.1322 -0.0147  0.1964
29650ION     NA49184   3.731   2.032   6.020 -0.0181 -0.1435 -0.3138
29651ION     NA49185   3.273   3.928   6.002  0.3636  0.0141 -0.0766
29652ION     NA49186  16.716   0.705   5.436 -0.4181  0.2924  0.2327
29653ION     NA49187  15.297  15.233  11.128 -0.2443  0.0141 -0.1391
29654ION     NA49188   6.174  16.597   4.820  0.0765  0.1313 -0.0551
29655ION     NA49189  10.643  13.572  10.954 -0.0418 -0.0877  0.0100
29656ION     NA49190  17.353  10.758  13.545  0.2811  0.1079 -0.2808
29657ION     NA49191  14.011  17.133   5.639  0.1064 -0.1182  0.0479
29658ION     NA49192   9.678   7.068  11.166 -0.1568 -0.2113  0.1615
29659ION     NA49193   4.330  13.233   5.985 -0.0455 -0.0472 -0.1502
29660ION     NA49194   0.601   4.675   5.661  0.2737 -0.1081 -0.0333
29661ION     NA49195   0.439  12.878   4.765 -0.2361 -0.0071 -0.0151
29662ION     NA49196  16.555   6.759  10.984 -0.2675  0.5464  0.0340
29663ION     NA49197   7.693  14.077  12.429 -0.1695 -0.0755 -0.1744
29664ION     NA49198   7.851  10.117  11.383  0.2162  0.2375  0.2998
29665ION     NA49199  15.153   7.097   5.059 -0.1937  0.0191  0.0739
29666ION     NA49200  15.601   3.042   5.527  0.2442  0.4595 -0.0546
29667ION     NA49201  14.622  12.155  10.865 -0.0851  0.2175 -0.2237
29668ION     NA49202   6.927   3.701   1.202 -0.1340  0.2288 -0.0142
29669ION     NA49203   2.769  13.396   5.763 -0.4936  0.0959  0.0561
29670ION     NA49204   4.251  17.864   0.399 -0.2290 -0.0128  0.0442
29671ION     NA49205   9.426  10.059  11.059 -0.0454  0.0615  0.0845
29672ION     NA49206   8.095   0.933  14.726 -0.0311  0.3235  0.1626
29673ION     NA49207   3.003  16.793  16.357 -0.0407  0.1978 -0.2092
29674ION     NA49208  13.156  15.528   5.508 -0.0302 -0.0337  0.3549
29675ION     NA49209  13.766   7.950  15.089  0.0093 -0.0601 -0.1060
29676ION     NA49210   7.822  14.653   4.488 -0.1458  0.0707  0.0434
29677ION     NA49211   3.450  17.903   6.095 -0.0251  0.0732 -0.1060
29678ION     NA49212   7.538   7.729  13.994 -0.1367  0.0276  0.1038
29679ION     NA49213   3.426   4.770  10.904 -0.1596 -0.3580  0.3853
29680ION     NA49214  12.059   6.592   5.461 -0.2462  0.0017 -0.2528
29681ION     NA49215   1.173   6.416   4.249  0.2360  0.3077  0.3057
29682ION     NA49216   1.102  10.257  16.172  0.2354 -0.2139 -0.1115
29683ION     NA49217  10.180   3.038   5.612  0.4953  0.0442 -0.3414
29684ION     NA49218   0.994  11.864   5.804  0.1401  0.1371 -0.0240
29685ION     NA49219  16.389   5.068  15.000  0.1127 -0.1031  0.0130
29686ION     NA49220  11.948   1.932  16.047 -0.2194 -0.0397 -0.1208
29687ION     NA49221  17.525  12.196   2.070  0.1164 -0.0795  0.0055
29688ION     NA49222   7.113   0.654  11.086 -0.3708 -0.2887 -0.0834
29689ION     NA49223   8.505   9.820   5.762 -0.0882  0.0530  0.0129
29690ION     NA49224   8.938  14.169  11.246  0.0413  0.4789  0.1990
29691ION     NA49225   3.194   0.259   0.661  0.1483  0.4287 -0.1547
29692ION     NA49226  17.718  10.957   5.452 -0.0130 -0.1897  0.1313
29693ION     NA49227   8.131   9.406  11.315  0.2476  0.2608  0.0536
29694ION     NA49228   7.449   1.179   6.118 -0.0619 -0.2148  0.2640
29695ION     NA49229   0.883   2.013  11.268  0.1456  0.1647  0.0736
29696ION     NA49230   9.324   5.585   1.157 -0.0392  0.0859  0.1833
29697ION     NA49231   8.298  13.820   5.983 -0.3871 -0.0411  0.2979
29698ION     NA49232   4.401  13.112  14.739  0.1349  0.2797 -0.1113
29699ION     NA49233  11.169   0.230   5.775 -0.0317  0.0215  0.0731
29700ION     NA49234  14.251   7.055  10.863 -0.0587 -0.0015  0.0011
29701ION     NA49235   3.720  17.760  11.473 -0.3532 -0.1943  0.0018
29702ION     NA49236  11.308   2.763  15.111  0.1860  0.3174 -0.2831
29703ION     NA49237   3.956   8.652   4.293 -0.1125  0.3001 -0.0543
29704ION     NA49238   8.735   5.460   0.029 -0.0670  0.2884 -0.2792
29705ION     NA49239  17.143   8.968  10.786 -0.2863  0.1450 -0.0733
29706ION     NA49240   4.460  11.670  14.423  0.1383 -0.1205  0.3372
29707ION     NA49241  17.754  12.372  15.806  0.4251 -0.0823  0.1258
29708ION     NA49242   0.835   0.360  11.135 -0.0221  0.0175 -0.0992
29709ION     NA49243   9.159   2.095  13.137 -0.0186  0.0071  0.0451
29710ION     NA49244  12.301   9.030   5.682  0.0899 -0.0406  0.0568
29711ION     NA49245   1.398  16.289   6.005  0.0810  0.1193 -0.1549
29712ION     NA49246  10.191   6.367   5.794 -0.0413  0.3405 -0.0059
29713ION     NA49247   9.763   8.943   5.670 -0.1099  0.1877  0.1427
29714ION     NA49248  17.902  11.046  10.895  0.1685 -0.3043  0.0476
29715ION     NA49249  12.959   7.952   3.412 -0.0973  0.2394 -0.3510
29716ION     NA49250   2.262   4.842  15.694 -0.1142  0.0086 -0.1093
29717ION     NA49251   3.710   7.549  11.080 -0.0393  0.2976  0.1537
29718ION     NA49252  10.661  13.965  11.250 -0.0211  0.0416 -0.0178
29719ION     NA49253  10.859   3.135   2.245  0.0805 -0.2651 -0.5445
29720ION     NA49254  12.772  10.167  11.012 -0.0203 -0.2340  0.1931
29721ION     NA49255   5.557  16.452  11.398  0.0706  0.3144 -0.0703
29722ION     NA49256  16.365   2.286  11.213 -0.0666  0.3833 -0.1059
29723ION     NA49257   2.461   7.590  13.407 -0.1608 -0.1861  0.1826
29724ION     NA49258  13.149   9.418  11.187  0.1504 -0.0104 -0.4151
29725ION     NA49259  12.870   2.275  11.066 -0.0501  0.5870 -0.1904
29726ION     NA49260   2.923   4.114  11.183  0.4364 -0.1005 -0.2376
29727ION     NA49261  13.350  14.528  11.298 -0.2431  0.1127  0.2531
29728ION     NA49262  15.346  16.312  11.074 -0.1346  0.1199  0.0519
29729ION     NA49263  12.698   5.269   5.735  0.1696 -0.1501 -0.0340
29730ION     NA49264  14.451   5.867   5.461 -0.0114 -0.0902 -0.1863
29731ION     NA49265   5.883   5.306   0.437  0.0095  0.0420  0.4400
29732ION     NA49266   7.263  11.843   5.448 -0.1489  0.1091 -0.3634
29733ION     NA49267  10.878   6.833  11.076  0.1590  0.1485 -0.2158
29734ION     NA49268  14.983  11.413  10.924  0.1154 -0.4947  0.1852
29735ION     NA49269  14.876   8.831  10.852  0.1022 -0.1220 -0.2932
29736ION     NA49270  12.536  14.268   5.511  0.0267 -0.1605 -0.1431
29737ION     NA49271  11.018  10.509  11.096  0.0163  0.1095 -0.0299
29738ION     NA49272   9.364   1.898   5.695  0.1955 -0.2473 -0.1032
29739ION     NA49273   6.752   9.781  14.582  0.0583  0.3200  0.0342
29740ION     NA49274  15.333  12.838  15.143  0.2182  0.0897  0.0448
29741ION     NA49275   1.445  12.188  11.295 -0.0149  0.1781 -0.1174
29742ION     NA49276  10.404  14.937  11.091  0.2215  0.2447 -0.1483
29743ION     NA49277  16.751  17.190   1.498 -0.1698  0.0894 -0.1278
29744ION     NA49278   2.617  16.801   5.934  0.0166 -0.0274 -0.2589
29745ION     NA49279  12.748  15.878  11.228 -0.1631  0.2320 -0.2160
29746ION     NA49280  11.622   2.734  12.551 -0.0770 -0.2803  0.0437
29747ION     NA49281   0.768  10.922   5.621 -0.0117 -0.1154 -0.2553
29748ION     NA49282   9.241  13.996   5.717 -0.1038  0.0470 -0.0801
29749ION     NA49283   0.075   7.038   5.345  0.0119  0.0115 -0.1006
29750ION     NA49284  15.741   1.354   5.850 -0.3025 -0.0745 -0.0220
29751ION     NA49285   9.647   8.735   4.117  0.1202  0.0355  0.0219
29752ION     NA49286   2.957   7.032   1.442 -0.2353  0.0227 -0.0880
29753ION     NA49287  14.608  15.048   3.193  0.2161  0.3057  0.1196
29754ION     NA49288  11.401  15.542   5.779 -0.3575 -0.0688 -0.1329
29755ION     NA49289  11.094   4.995  15.257 -0.0028  0.1388  0.1181
29756ION     NA49290   2.332   6.030  13.974  0.1636  0.1547  0.0280
29757ION     NA49291  12.386   7.514   5.598  0.1639 -0.3335 -0.0902
29758ION     NA49292   5.674   4.989  13.199  0.3965  0.1773  0.2090
29759ION     NA49293  11.433   3.003  10.803  0.2561  0.1876  0.1317
29760ION     NA49294   5.933   7.679   4.531 -0.1276 -0.1094  0.1203
29761ION     NA49295   3.045   0.845  11.550 -0.1490 -0.0843  0.1558
29762ION     NA49296   5.110   3.308  10.794  0.0646 -0.3575 -0.0228
29763ION     NA49297  12.196  17.403  13.971  0.0020 -0.3249 -0.1512
29764ION     NA49298  15.806  14.373   2.681  0.0256  0.2887  0.0234
29765ION     NA49299  17.745   5.464  11.835 -0.0281 -0.5768 -0.0353
29766ION     NA49300  11.556   6.939   4.834 -0.2033 -0.0864  0.0776
29767ION     NA49301  15.603  10.215  11.057  0.0320  0.0342 -0.1418
29768ION     NA49302  13.332   4.478   5.423 -0.0726 -0.1623  0.3833
29769ION     NA49303  12.774   1.090   2.418 -0.1295  0.1273 -0.3663
  17.90753  17.90753  16.75299
