INSANE! Membrane UpperLeaflet>loPI:POPI:DPPI:PYPI:ERGO=180.0:5.0:3.0:2.0:10.0 LowerLeaflet>loPI:POPI:DPPI:PYPI:ERGO=180.0:5.0:3.0:2.0:10.0
49303
    1loPI    C1    1   5.446  16.484  10.317  0.2487 -0.0671  0.2122
    1loPI    C2    2   5.222  16.491  10.648  0.2079  0.0665  0.1824
    1loPI    C3    3   5.571  16.686  10.639  0.3676 -0.2119  0.2578
    1loPI   PO4    4   5.183  16.612  10.151  0.2330  0.1363 -0.4182
    1loPI   GL1    5   4.896  16.744   9.903 -0.1679 -0.0679  0.1171
    1loPI   GL2    6   4.843  16.398   9.888  0.0955  0.0776  0.0443
    1loPI   C1A    7   4.904  16.694   9.534 -0.0743 -0.1592  0.1693
    1loPI   C2A    8   4.939  16.537   9.073 -0.1430  0.0227  0.0888
    1loPI   C3A    9   4.897  16.487   8.623 -0.0817  0.0174  0.0541
    1loPI   C4A   10   4.977  16.398   8.257 -0.1993 -0.0418 -0.0363
    1loPI   C5A   11   4.957  16.351   7.832 -0.1774 -0.0252 -0.1172
    1loPI   C6A   12   5.148  16.624   7.471 -0.0484 -0.0630  0.3767
    1loPI   C1B   13   4.580  16.305   9.526 -0.1579 -0.1806 -0.0041
    1loPI   C2B   14   4.574  16.176   9.094  0.0443 -0.2333 -0.1098
    1loPI   C3B   15   4.531  16.177   8.588 -0.2524 -0.4911  0.0691
    1loPI   C4B   16   4.545  16.162   8.149 -0.1511  0.2366 -0.1371
    2loPI    C1   17   9.946   4.682  10.005 -0.0317  0.0100 -0.1032
    2loPI    C2   18   9.827   4.301  10.040  0.1176 -0.0057  0.2836
    2loPI    C3   19   9.686   4.579  10.291 -0.0447  0.2113 -0.0408
    2loPI   PO4   20  10.288   4.681   9.979 -0.0705  0.4129  0.0482
    2loPI   GL1   21  10.494   4.589   9.662 -0.3929  0.1718 -0.2180
    2loPI   GL2   22  10.174   4.506   9.550  0.2160 -0.0794 -0.1632
    2loPI   C1A   23  10.488   4.222   9.435 -0.4596 -0.2555  0.1387
    2loPI   C2A   24  10.554   4.204   8.994 -0.1165  0.0169  0.0550
    2loPI   C3A   25  10.670   4.129   8.704  0.3446 -0.2518  0.1771
    2loPI   C4A   26  10.449   4.161   8.319  0.1273 -0.0941  0.1646
    2loPI   C5A   27  10.453   4.203   7.877  0.1582 -0.1995  0.2887
    2loPI   C6A   28  10.376   3.950   7.538  0.2197 -0.0572 -0.0144
    2loPI   C1B   29  10.338   4.590   9.147  0.2064 -0.4357  0.1143
    2loPI   C2B   30  10.422   4.590   8.716  0.0874 -0.0052  0.2334
    2loPI   C3B   31  10.331   4.678   8.224 -0.2747 -0.4999 -0.1279
    2loPI   C4B   32  10.514   4.932   7.841 -0.1677 -0.2190 -0.0005
    3loPI    C1   33   5.794   1.226  10.389  0.1216 -0.1205 -0.0304
    3loPI    C2   34   5.952   1.204  10.022 -0.0385  0.0184 -0.1089
    3loPI    C3   35   6.001   1.535  10.241  0.1370 -0.1002  0.0334
    3loPI   PO4   36   5.609   1.066  10.288  0.0742 -0.0855  0.0259
    3loPI   GL1   37   5.437   0.992   9.879  0.2562 -0.2851  0.4763
    3loPI   GL2   38   5.479   0.652   9.915  0.1785 -0.0251 -0.1053
    3loPI   C1A   39   5.627   1.180   9.535  0.0727 -0.1830  0.1183
    3loPI   C2A   40   5.748   1.510   9.116  0.1880  0.1558  0.0472
    3loPI   C3A   41   5.642   1.483   8.747 -0.1675  0.1759  0.2907
    3loPI   C4A   42   5.370   1.278   8.420 -0.0293 -0.1833  0.3376
    3loPI   C5A   43   5.448   1.135   7.969  0.1314 -0.2211 -0.1364
    3loPI   C6A   44   5.232   1.253   7.637 -0.1652 -0.1441  0.0634
    3loPI   C1B   45   5.354   0.735   9.494 -0.1647  0.1948  0.1081
    3loPI   C2B   46   5.314   0.738   9.087 -0.1182  0.0011  0.0076
    3loPI   C3B   47   5.487   0.648   8.657  0.0670 -0.1782 -0.1439
    3loPI   C4B   48   5.345   0.606   8.178  0.0512  0.1006 -0.1228
    4loPI    C1   49  10.470  11.486  10.246  0.2567 -0.1485 -0.0212
    4loPI    C2   50  10.397  11.858  10.373  0.2947 -0.0537 -0.2704
    4loPI    C3   51  10.412  11.556  10.635 -0.0069  0.0765 -0.0973
    4loPI   PO4   52  10.426  11.386  10.033 -0.3217 -0.0026 -0.4111
    4loPI   GL1   53  10.709  11.360   9.676  0.2120  0.2019 -0.0932
    4loPI   GL2   54  10.371  11.213   9.578  0.1347  0.2342 -0.2807
    4loPI   C1A   55  10.887  11.442   9.317  0.1032  0.3986  0.3135
    4loPI   C2A   56  11.017  11.459   8.886 -0.2302 -0.5437 -0.0256
    4loPI   C3A   57  10.789  11.421   8.489  0.0040 -0.1840 -0.0099
    4loPI   C4A   58  10.629  11.502   8.018 -0.2944 -0.2333  0.0332
    4loPI   C5A   59  10.308  11.451   7.785 -0.1006  0.0206  0.0450
    4loPI   C6A   60   9.939  11.482   7.587  0.1394  0.1309 -0.0143
    4loPI   C1B   61  10.274  11.296   9.125  0.1930  0.1288 -0.0184
    4loPI   C2B   62  10.482  11.593   8.841  0.0064  0.2514 -0.0752
    4loPI   C3B   63  10.373  11.922   8.593  0.2353  0.2281  0.4167
    4loPI   C4B   64  10.202  12.311   8.465 -0.0439 -0.1908  0.1356
    5loPI    C1   65  15.453   8.348  10.002 -0.0307 -0.1211 -0.0482
    5loPI    C2   66  15.817   8.200  10.077  0.0949  0.0231 -0.3556
    5loPI    C3   67  15.527   7.959   9.944  0.0474 -0.1105 -0.0215
    5loPI   PO4   68  15.528   8.498   9.795 -0.1515 -0.0060 -0.0058
    5loPI   GL1   69  15.507   8.555   9.320  0.0811 -0.0315 -0.3153
    5loPI   GL2   70  15.370   8.916   9.280  0.1024 -0.4246 -0.0819
    5loPI   C1A   71  15.628   8.506   9.024 -0.1866 -0.1384  0.0148
    5loPI   C2A   72  15.746   8.439   8.619 -0.3079  0.1475  0.1662
    5loPI   C3A   73  15.605   8.378   8.182  0.2051 -0.1289 -0.1057
    5loPI   C4A   74  15.685   8.447   7.739  0.0411  0.0988 -0.1236
    5loPI   C5A   75  15.420   8.751   7.514  0.0654  0.1353  0.3005
    5loPI   C6A   76  15.353   9.209   7.617 -0.0931  0.0404 -0.0738
    5loPI   C1B   77  15.187   8.800   9.040 -0.1822  0.1383 -0.2387
    5loPI   C2B   78  15.231   8.524   8.747  0.2141 -0.1130 -0.1408
    5loPI   C3B   79  15.232   8.274   8.477  0.0376 -0.0674 -0.1029
    5loPI   C4B   80  14.896   8.190   8.152 -0.0562  0.1381  0.1167
    6loPI    C1   81   2.281   8.081  10.408  0.0790 -0.0311  0.0854
    6loPI    C2   82   2.087   8.386  10.579 -0.0594 -0.1209  0.0907
    6loPI    C3   83   2.386   8.206  10.774 -0.0055 -0.0168  0.1051
    6loPI   PO4   84   2.280   8.119  10.176 -0.5645  0.2555 -0.0286
    6loPI   GL1   85   2.477   8.016   9.811  0.3361  0.0785  0.2484
    6loPI   GL2   86   2.685   8.299   9.905 -0.0837  0.0019  0.2001
    6loPI   C1A   87   2.417   8.283   9.372  0.0921  0.1276 -0.0501
    6loPI   C2A   88   2.330   8.296   8.962  0.0745  0.0125 -0.2653
    6loPI   C3A   89   2.260   8.279   8.518 -0.1162 -0.1002  0.2850
    6loPI   C4A   90   2.266   8.206   8.051 -0.2662  0.0713  0.1106
    6loPI   C5A   91   2.071   7.903   7.707 -0.1727  0.1382  0.0399
    6loPI   C6A   92   2.259   7.459   7.614 -0.1408 -0.0429  0.0780
    6loPI   C1B   93   2.643   8.669   9.667 -0.0980  0.2154  0.2793
    6loPI   C2B   94   2.455   8.894   9.352 -0.2558  0.0964 -0.1779
    6loPI   C3B   95   2.419   8.772   8.850  0.0040  0.0761 -0.1906
    6loPI   C4B   96   2.451   8.842   8.463  0.0332  0.0486  0.2476
    7loPI    C1   97   1.356   8.653  10.199  0.1380 -0.1442  0.0824
    7loPI    C2   98   1.127   8.353  10.066 -0.0145 -0.0688  0.1728
    7loPI    C3   99   0.992   8.595  10.355 -0.0480  0.3199 -0.1602
    7loPI   PO4  100   1.384   8.819   9.985  0.1591 -0.2612 -0.2677
    7loPI   GL1  101   1.554   8.782   9.660 -0.0182 -0.0043  0.0731
    7loPI   GL2  102   1.523   8.366   9.794 -0.1199  0.0885  0.2177
    7loPI   C1A  103   1.469   8.696   9.189 -0.0485 -0.0344  0.1484
    7loPI   C2A  104   1.426   8.724   8.758  0.0733  0.2353 -0.0958
    7loPI   C3A  105   1.308   8.774   8.282  0.1173  0.0727  0.0967
    7loPI   C4A  106   1.508   8.751   7.858 -0.2886  0.1222 -0.3892
    7loPI   C5A  107   1.603   8.705   7.451  0.1065 -0.1862 -0.0534
    7loPI   C6A  108   1.472   8.915   7.019  0.0884 -0.0727 -0.0986
    7loPI   C1B  109   1.639   8.313   9.397 -0.1904 -0.0296  0.1476
    7loPI   C2B  110   1.539   8.108   9.128 -0.0317 -0.2019  0.0992
    7loPI   C3B  111   1.534   7.633   9.129 -0.0528  0.1851 -0.1189
    7loPI   C4B  112   1.446   7.455   8.782  0.0308  0.0755  0.1246
    8loPI    C1  113   5.538  11.070  10.024 -0.0135  0.0922  0.2027
    8loPI    C2  114   5.609  10.678   9.995  0.2470  0.1665 -0.2521
    8loPI    C3  115   5.563  10.846  10.354 -0.0907 -0.3147 -0.0599
    8loPI   PO4  116   5.527  11.029   9.649  0.1125  0.0209  0.1328
    8loPI   GL1  117   5.364  11.080   9.306  0.1664 -0.1664 -0.2588
    8loPI   GL2  118   5.353  10.709   9.307  0.1301 -0.0177  0.1745
    8loPI   C1A  119   5.032  11.081   9.043  0.2475  0.2388 -0.2604
    8loPI   C2A  120   4.923  10.993   8.659  0.0343  0.0394 -0.1836
    8loPI   C3A  121   4.757  10.758   8.315  0.1276 -0.4284  0.0230
    8loPI   C4A  122   4.633  10.674   8.014  0.1904 -0.0588 -0.3405
    8loPI   C5A  123   4.549  10.559   7.645  0.1554  0.0104 -0.1197
    8loPI   C6A  124   4.516  10.472   7.253  0.0813 -0.1475  0.1326
    8loPI   C1B  125   5.755  10.677   9.107  0.1688  0.1822  0.1304
    8loPI   C2B  126   6.199  10.482   9.081 -0.3145  0.0057  0.2273
    8loPI   C3B  127   6.554  10.267   8.846 -0.4609 -0.2985  0.1520
    8loPI   C4B  128   6.682   9.840   8.819  0.1129  0.0258  0.0244
    9loPI    C1  129   4.270   8.396  10.228  0.0187 -0.0264  0.2016
    9loPI    C2  130   4.217   8.739  10.426 -0.1216  0.0294  0.0690
    9loPI    C3  131   4.585   8.589  10.381 -0.0410  0.2474 -0.0137
    9loPI   PO4  132   4.074   8.511  10.012  0.2693 -0.1790  0.2577
    9loPI   GL1  133   4.162   8.631   9.616 -0.0035  0.1826  0.2178
    9loPI   GL2  134   4.491   8.859   9.397  0.0674  0.0630  0.0452
    9loPI   C1A  135   4.172   8.383   9.312  0.2978 -0.1696  0.2722
    9loPI   C2A  136   4.183   8.311   8.894  0.0681  0.1094  0.1216
    9loPI   C3A  137   3.978   8.374   8.571 -0.2274  0.0819  0.1064
    9loPI   C4A  138   3.902   8.471   8.179 -0.1173  0.0043 -0.0585
    9loPI   C5A  139   4.055   8.556   7.757  0.1504 -0.0503 -0.0594
    9loPI   C6A  140   4.103   8.827   7.350  0.1263 -0.2617  0.0105
    9loPI   C1B  141   4.513   8.729   8.995 -0.1975 -0.0208  0.1544
    9loPI   C2B  142   4.521   8.743   8.520  0.0053  0.1557  0.1210
    9loPI   C3B  143   4.433   8.770   8.069  0.1213  0.1624  0.2428
    9loPI   C4B  144   4.565   8.815   7.549 -0.1257 -0.0881  0.2154
   10loPI    C1  145   0.749   9.070  10.317 -0.2572  0.1545 -0.0545
   10loPI    C2  146   0.730   8.911  10.684  0.0674 -0.0973 -0.1422
   10loPI    C3  147   0.486   8.779  10.396 -0.0925  0.0039 -0.0545
   10loPI   PO4  148   0.988   9.099  10.251 -0.1829  0.1762  0.3506
   10loPI   GL1  149   1.132   9.286   9.900 -0.2217 -0.2833 -0.1383
   10loPI   GL2  150   1.474   9.283   9.704 -0.1775 -0.1082  0.0227
   10loPI   C1A  151   0.971   9.296   9.449 -0.0653  0.1108 -0.0598
   10loPI   C2A  152   1.003   9.469   9.128  0.0572 -0.0338 -0.0165
   10loPI   C3A  153   1.057   9.563   8.671 -0.0662  0.1924  0.2042
   10loPI   C4A  154   1.001   9.606   8.259 -0.1960 -0.0538 -0.0020
   10loPI   C5A  155   1.072   9.553   7.785 -0.0705 -0.0792 -0.2103
   10loPI   C6A  156   0.957   9.693   7.334  0.1895 -0.1045 -0.1135
   10loPI   C1B  157   1.476   9.241   9.253 -0.0136 -0.0431  0.3178
   10loPI   C2B  158   1.417   9.234   8.875 -0.1351  0.0325 -0.2112
   10loPI   C3B  159   1.477   9.241   8.443  0.1072  0.4676  0.0635
   10loPI   C4B  160   1.643   9.131   8.130  0.1209  0.1403 -0.0080
   11loPI    C1  161  18.792  11.859  10.279  0.1634 -0.0381  0.0204
   11loPI    C2  162  18.997  12.187  10.177  0.0996 -0.0752 -0.2366
   11loPI    C3  163  18.926  12.107  10.563  0.1128  0.2136 -0.1716
   11loPI   PO4  164  18.960  11.611  10.151 -0.0667 -0.2776 -0.1939
   11loPI   GL1  165  18.979  11.431   9.730 -0.0374  0.0828  0.0058
   11loPI   GL2  166  18.780  11.156   9.581 -0.0231  0.2214 -0.0800
   11loPI   C1A  167  18.972  11.669   9.267 -0.0915 -0.0003 -0.0773
   11loPI   C2A  168  19.078  11.850   8.859  0.0069  0.1922  0.1922
   11loPI   C3A  169  19.166  11.910   8.421  0.4445 -0.3002 -0.1492
   11loPI   C4A  170  19.120  11.909   7.975  0.1992 -0.0319  0.1476
   11loPI   C5A  171  19.027  12.094   7.543  0.1388 -0.1268 -0.2040
   11loPI   C6A  172  19.071  12.435   7.201 -0.3967  0.0595  0.0715
   11loPI   C1B  173  19.048  10.990   9.285  0.0508  0.1589  0.0652
   11loPI   C2B  174  19.371  11.184   9.115  0.0590 -0.0939 -0.0439
   11loPI   C3B  175  19.522  11.583   9.055  0.0834  0.1559 -0.0213
   11loPI   C4B  176  19.600  11.766   8.668  0.0379 -0.3350 -0.0048
   12loPI    C1  177  10.899   1.380  10.303  0.1852 -0.0630  0.2578
   12loPI    C2  178  11.232   1.599  10.275  0.1443 -0.0249  0.0578
   12loPI    C3  179  11.004   1.623  10.602  0.1680  0.1925  0.0597
   12loPI   PO4  180  10.890   1.353   9.945 -0.1899 -0.2365 -0.1510
   12loPI   GL1  181  11.115   1.167   9.652 -0.0704 -0.2705  0.1243
   12loPI   GL2  182  10.763   1.025   9.579 -0.0064 -0.1008 -0.2921
   12loPI   C1A  183  11.185   1.327   9.253 -0.0531  0.0671 -0.0134
   12loPI   C2A  184  11.367   1.212   8.906 -0.4042  0.0369  0.0763
   12loPI   C3A  185  11.723   1.141   8.647 -0.0007 -0.0896 -0.1735
   12loPI   C4A  186  11.623   1.137   8.182  0.0201  0.0894 -0.0955
   12loPI   C5A  187  11.484   1.084   7.743  0.0835  0.0980  0.2924
   12loPI   C6A  188  11.360   0.792   7.379  0.0253  0.0345  0.2998
   12loPI   C1B  189  10.681   1.068   9.236  0.2248  0.1338  0.2421
   12loPI   C2B  190  10.845   1.082   8.830  0.0450 -0.3507  0.2565
   12loPI   C3B  191  10.789   1.165   8.366  0.0447  0.0448 -0.2602
   12loPI   C4B  192  10.773   1.524   8.175 -0.2303  0.0105 -0.2683
   13loPI    C1  193  16.907  10.970  10.083 -0.1607 -0.1861  0.0450
   13loPI    C2  194  16.657  11.073   9.788  0.0997 -0.0769 -0.1413
   13loPI    C3  195  16.621  11.241  10.149  0.1149  0.1916 -0.2622
   13loPI   PO4  196  17.114  10.940   9.876  0.3561  0.2218 -0.0233
   13loPI   GL1  197  17.069  11.022   9.529  0.0158 -0.1673  0.1187
   13loPI   GL2  198  16.971  11.182   9.342 -0.0775  0.0603  0.0721
   13loPI   C1A  199  17.157  10.746   9.178 -0.2217  0.0390  0.0560
   13loPI   C2A  200  17.281  10.767   8.746 -0.0293  0.2338  0.0674
   13loPI   C3A  201  17.351  10.778   8.313 -0.0695  0.0175 -0.0522
   13loPI   C4A  202  17.609  10.995   8.108 -0.0593  0.0782 -0.0219
   13loPI   C5A  203  18.045  11.099   8.154 -0.4817  0.1057 -0.1751
   13loPI   C6A  204  18.376  11.286   7.807  0.1192  0.0187 -0.1198
   13loPI   C1B  205  16.903  11.227   8.916  0.1137  0.0534  0.1532
   13loPI   C2B  206  16.695  11.561   8.580  0.3342 -0.0858 -0.6610
   13loPI   C3B  207  16.708  11.904   8.752  0.0408  0.3900 -0.0761
   13loPI   C4B  208  16.424  12.203   9.037  0.0291 -0.2832 -0.0233
   14loPI    C1  209  13.735   7.841  10.049 -0.0799  0.0220  0.0126
   14loPI    C2  210  13.770   8.085  10.364 -0.3390  0.2056 -0.0959
   14loPI    C3  211  13.836   7.692  10.406  0.2059  0.3044  0.0540
   14loPI   PO4  212  13.882   7.955   9.907  0.1742  0.0327  0.1664
   14loPI   GL1  213  13.874   8.040   9.324  0.0057  0.1000  0.3066
   14loPI   GL2  214  13.859   7.754   9.418 -0.3086  0.0457 -0.1779
   14loPI   C1A  215  13.900   8.160   8.828  0.0185  0.0799  0.1367
   14loPI   C2A  216  13.963   8.123   8.417 -0.1432  0.2840  0.0183
   14loPI   C3A  217  13.900   8.079   8.026  0.1473  0.1571  0.1682
   14loPI   C4A  218  13.504   8.027   7.763 -0.2140 -0.1343 -0.0143
   14loPI   C5A  219  13.350   7.801   7.437 -0.2283 -0.0416  0.2790
   14loPI   C6A  220  13.110   7.377   7.398 -0.0736 -0.1888 -0.1735
   14loPI   C1B  221  13.828   7.699   8.964 -0.0272  0.1446 -0.5376
   14loPI   C2B  222  13.690   7.669   8.538  0.1600  0.1054 -0.3551
   14loPI   C3B  223  13.741   7.547   8.080  0.2781  0.1706 -0.2975
   14loPI   C4B  224  13.864   7.593   7.582 -0.3166  0.0993  0.0718
   15loPI    C1  225  10.693  12.932  10.192  0.1253 -0.0238 -0.1951
   15loPI    C2  226  11.090  12.896  10.218  0.1191  0.1504  0.2130
   15loPI    C3  227  10.853  12.653  10.429  0.0033 -0.0181 -0.1048
   15loPI   PO4  228  10.745  13.159   9.966 -0.2038 -0.0801  0.0437
   15loPI   GL1  229  10.853  13.292   9.595  0.0775 -0.0954  0.2318
   15loPI   GL2  230  10.486  13.212   9.480 -0.2529  0.0738 -0.0257
   15loPI   C1A  231  10.928  13.018   9.215  0.0013  0.0648 -0.2399
   15loPI   C2A  232  10.866  12.792   8.824 -0.4689 -0.2261  0.1990
   15loPI   C3A  233  11.037  12.783   8.395 -0.0974 -0.0403  0.0596
   15loPI   C4A  234  10.870  12.953   8.055  0.2230 -0.0441  0.0821
   15loPI   C5A  235  10.842  12.967   7.643 -0.0329  0.1035  0.1507
   15loPI   C6A  236  10.376  13.109   7.420  0.1481  0.0263  0.1889
   15loPI   C1B  237  10.451  13.324   9.040  0.1499  0.3451 -0.1048
   15loPI   C2B  238  10.632  13.227   8.643  0.0208 -0.1003 -0.0146
   15loPI   C3B  239  10.599  13.318   8.304 -0.1039  0.1928 -0.3946
   15loPI   C4B  240  10.442  13.191   7.906 -0.1253  0.0787 -0.2427
   16loPI    C1  241  11.368   8.862   9.958 -0.1552 -0.0834  0.0791
   16loPI    C2  242  11.243   8.771  10.327 -0.0822 -0.0495  0.1123
   16loPI    C3  243  11.145   9.123  10.163  0.0570  0.0217  0.1795
   16loPI   PO4  244  11.406   8.691   9.856 -0.1975 -0.0595 -0.2465
   16loPI   GL1  245  11.309   8.780   9.423 -0.3705  0.0370  0.2138
   16loPI   GL2  246  11.190   9.100   9.521  0.1246 -0.0749 -0.2228
   16loPI   C1A  247  11.235   8.565   9.028  0.2578  0.2813  0.1746
   16loPI   C2A  248  11.421   8.539   8.543 -0.1075 -0.1792  0.4718
   16loPI   C3A  249  11.539   8.736   8.266  0.0254 -0.2063 -0.1464
   16loPI   C4A  250  11.540   8.734   7.821  0.0959  0.0267  0.2790
   16loPI   C5A  251  11.706   8.632   7.428  0.1946  0.3097 -0.1337
   16loPI   C6A  252  12.037   8.644   7.159  0.2595  0.1839 -0.1322
   16loPI   C1B  253  11.069   9.132   9.175 -0.0918  0.0479  0.2064
   16loPI   C2B  254  11.224   9.109   8.824 -0.0003 -0.0270 -0.0270
   16loPI   C3B  255  11.167   9.017   8.467 -0.1350 -0.0517 -0.1711
   16loPI   C4B  256  11.231   9.163   8.024  0.1100 -0.1820  0.0728
   17loPI    C1  257  11.551   8.194  10.152 -0.1452  0.0888  0.0963
   17loPI    C2  258  11.764   8.495  10.306 -0.0260  0.0768 -0.0432
   17loPI    C3  259  11.835   8.119  10.423 -0.0905  0.0898  0.0393
   17loPI   PO4  260  11.518   8.183   9.821  0.0108 -0.0046  0.1968
   17loPI   GL1  261  11.416   8.275   9.507  0.0851 -0.2999  0.1469
   17loPI   GL2  262  11.721   8.431   9.305  0.0698 -0.1813  0.1411
   17loPI   C1A  263  11.450   7.962   9.148  0.1359 -0.0427 -0.1097
   17loPI   C2A  264  11.511   7.969   8.693 -0.0470 -0.0600 -0.0244
   17loPI   C3A  265  11.719   8.156   8.296  0.2231 -0.0214 -0.1084
   17loPI   C4A  266  11.681   8.250   7.856  0.0691  0.0346 -0.1275
   17loPI   C5A  267  11.239   8.067   7.630 -0.0895  0.0209  0.1350
   17loPI   C6A  268  11.022   7.985   7.289  0.0329  0.2574  0.0828
   17loPI   C1B  269  11.719   8.399   8.909  0.1090  0.0658 -0.0891
   17loPI   C2B  270  11.982   8.523   8.545  0.1830 -0.1555  0.2767
   17loPI   C3B  271  12.071   8.507   8.154 -0.2575  0.3213  0.2944
   17loPI   C4B  272  12.094   8.437   7.670  0.2180 -0.0870 -0.0270
   18loPI    C1  273   6.741   2.289  10.003  0.1269 -0.0032  0.1535
   18loPI    C2  274   6.941   2.564   9.792 -0.1161  0.2600  0.2597
   18loPI    C3  275   6.982   2.548  10.190  0.1576 -0.0808  0.2220
   18loPI   PO4  276   6.469   2.247   9.899 -0.2873 -0.4716  0.0395
   18loPI   GL1  277   6.173   2.327   9.475 -0.1992  0.1747  0.0671
   18loPI   GL2  278   6.157   2.579   9.212 -0.0393 -0.2034 -0.3110
   18loPI   C1A  279   6.073   1.979   9.158 -0.0280  0.2119 -0.1124
   18loPI   C2A  280   6.062   1.795   8.764 -0.0577 -0.3075  0.1082
   18loPI   C3A  281   5.895   1.823   8.374 -0.2166 -0.1846 -0.1524
   18loPI   C4A  282   5.657   1.643   8.083  0.0120  0.1847  0.2727
   18loPI   C5A  283   5.654   1.612   7.618 -0.1348 -0.1147  0.0022
   18loPI   C6A  284   5.810   1.525   7.081  0.1824 -0.0075  0.1182
   18loPI   C1B  285   6.482   2.791   9.023 -0.2465 -0.0870  0.4671
   18loPI   C2B  286   6.563   2.790   8.645 -0.4102  0.1869 -0.1952
   18loPI   C3B  287   6.507   2.618   8.246 -0.2529 -0.3192  0.2157
   18loPI   C4B  288   6.464   2.378   7.848  0.4069 -0.1328 -0.1155
   19loPI    C1  289  12.715  12.339  10.052  0.0690  0.1566 -0.0852
   19loPI    C2  290  12.430  12.530  10.258  0.0203  0.0001 -0.0057
   19loPI    C3  291  12.705  12.313  10.451  0.0164 -0.0906 -0.1009
   19loPI   PO4  292  12.595  12.418   9.777 -0.1684  0.0096  0.4555
   19loPI   GL1  293  12.820  12.409   9.466  0.3593 -0.2834 -0.1655
   19loPI   GL2  294  13.106  12.109   9.380 -0.0731 -0.3011  0.0160
   19loPI   C1A  295  12.529  12.661   9.198 -0.0517 -0.2659  0.2964
   19loPI   C2A  296  12.411  12.740   8.766 -0.1466  0.0397 -0.1781
   19loPI   C3A  297  12.462  12.751   8.318 -0.2329  0.0351 -0.0349
   19loPI   C4A  298  12.224  12.845   7.950  0.2063  0.0535  0.0578
   19loPI   C5A  299  12.004  12.832   7.527  0.0540  0.1392 -0.0963
   19loPI   C6A  300  12.215  12.881   7.155  0.0094 -0.0715 -0.1797
   19loPI   C1B  301  12.791  12.273   8.970 -0.0805  0.0460 -0.2087
   19loPI   C2B  302  12.828  12.452   8.493  0.2636  0.1260 -0.0301
   19loPI   C3B  303  13.047  12.815   8.150  0.1408 -0.0815  0.1886
   19loPI   C4B  304  13.242  13.050   7.857 -0.0147  0.3972 -0.0654
   20loPI    C1  305  16.653  16.990  10.515  0.0347 -0.2679  0.1459
   20loPI    C2  306  16.351  16.855  10.740 -0.0084 -0.0176  0.2423
   20loPI    C3  307  16.702  16.945  10.910 -0.0112  0.0833  0.1957
   20loPI   PO4  308  16.714  16.832  10.287 -0.3798 -0.0717 -0.3221
   20loPI   GL1  309  16.499  16.954   9.881 -0.0203  0.4283 -0.0752
   20loPI   GL2  310  16.332  17.103   9.651  0.0539  0.0719 -0.3472
   20loPI   C1A  311  16.783  17.021   9.506  0.2108 -0.0034  0.1763
   20loPI   C2A  312  16.670  17.058   9.052 -0.1735  0.0373 -0.1714
   20loPI   C3A  313  16.733  17.004   8.671 -0.0387  0.0158 -0.1400
   20loPI   C4A  314  16.941  17.164   8.259  0.1272 -0.0713 -0.0813
   20loPI   C5A  315  16.939  17.474   7.950  0.3643  0.2187 -0.0766
   20loPI   C6A  316  17.142  17.561   7.535  0.0680 -0.1524  0.1293
   20loPI   C1B  317  16.268  16.818   9.382 -0.2774  0.1786 -0.2893
   20loPI   C2B  318  16.361  16.676   8.940 -0.1033  0.3404 -0.0702
   20loPI   C3B  319  16.526  16.561   8.500 -0.1921  0.1587  0.0907
   20loPI   C4B  320  16.708  16.553   8.213  0.1174  0.2373  0.1459
   21loPI    C1  321  13.535   9.871  10.271  0.1556  0.0561 -0.1784
   21loPI    C2  322  13.669  10.202  10.451 -0.0170  0.1493 -0.2190
   21loPI    C3  323  13.277  10.152  10.391 -0.0322 -0.2520  0.1608
   21loPI   PO4  324  13.733   9.812  10.015 -0.2653 -0.0768  0.2128
   21loPI   GL1  325  13.573   9.734   9.594 -0.0128 -0.0015  0.1239
   21loPI   GL2  326  13.677   9.600   9.303  0.2276  0.1169  0.2592
   21loPI   C1A  327  13.283   9.957   9.326 -0.3088 -0.1551 -0.0598
   21loPI   C2A  328  13.266   9.828   8.963 -0.0635 -0.2735  0.0012
   21loPI   C3A  329  13.183  10.109   8.634 -0.1682 -0.1176 -0.2089
   21loPI   C4A  330  12.983  10.349   8.181  0.0098  0.0498 -0.0448
   21loPI   C5A  331  12.727  10.369   7.836 -0.0449  0.0688  0.1652
   21loPI   C6A  332  12.601  10.683   7.578  0.0196  0.2205 -0.1505
   21loPI   C1B  333  13.792   9.977   8.923 -0.1732  0.1783  0.1893
   21loPI   C2B  334  13.807  10.312   8.635 -0.0564 -0.0288  0.0329
   21loPI   C3B  335  13.907  10.418   8.194  0.2848 -0.0263 -0.3519
   21loPI   C4B  336  14.106  10.549   7.851 -0.0020 -0.0781 -0.3274
   22loPI    C1  337   7.706   0.929   9.794 -0.0817 -0.1410  0.2157
   22loPI    C2  338   7.382   0.760   9.631 -0.1111  0.2190 -0.1152
   22loPI    C3  339   7.347   1.101   9.836 -0.0152 -0.0270  0.3250
   22loPI   PO4  340   7.883   0.927   9.669 -0.1549 -0.2207  0.0683
   22loPI   GL1  341   8.281   0.916   9.433 -0.1779 -0.1117 -0.2636
   22loPI   GL2  342   8.073   1.086   9.184  0.2882 -0.0356  0.0565
   22loPI   C1A  343   8.471   0.902   9.002  0.1005  0.0757  0.4308
   22loPI   C2A  344   8.635   0.909   8.603 -0.2354  0.2913 -0.0429
   22loPI   C3A  345   8.790   1.183   8.247  0.0025  0.0950  0.0266
   22loPI   C4A  346   8.849   1.525   7.957  0.2295  0.0176  0.1001
   22loPI   C5A  347   8.741   1.887   7.722 -0.0557 -0.0708  0.0402
   22loPI   C6A  348   8.333   1.986   7.640 -0.1107  0.1607 -0.0168
   22loPI   C1B  349   8.040   1.071   8.704 -0.1592 -0.0176 -0.2466
   22loPI   C2B  350   7.803   1.213   8.431  0.0544  0.2032  0.1155
   22loPI   C3B  351   7.423   1.240   8.448  0.0894 -0.1439  0.1686
   22loPI   C4B  352   7.153   1.370   8.855 -0.0794 -0.1411 -0.2489
   23loPI    C1  353   9.148   5.275  10.262  0.1285 -0.0826 -0.0964
   23loPI    C2  354   9.043   5.038  10.567  0.0934 -0.1080 -0.1282
   23loPI    C3  355   9.429   5.083  10.473  0.1077 -0.0583 -0.0463
   23loPI   PO4  356   9.082   5.242  10.061  0.1021 -0.0078  0.1936
   23loPI   GL1  357   9.165   5.091   9.672 -0.0588  0.0329  0.0880
   23loPI   GL2  358   9.327   5.316   9.611 -0.2431  0.0388  0.0199
   23loPI   C1A  359   8.939   4.746   9.353 -0.3262 -0.0809 -0.0670
   23loPI   C2A  360   8.801   4.672   8.968 -0.0055  0.2123  0.2878
   23loPI   C3A  361   8.566   4.645   8.592 -0.1558 -0.2761 -0.1078
   23loPI   C4A  362   8.637   4.757   8.182  0.2737  0.0999  0.0402
   23loPI   C5A  363   8.869   4.708   7.747  0.2196 -0.0495 -0.2102
   23loPI   C6A  364   8.714   4.929   7.393 -0.1219 -0.0954 -0.0611
   23loPI   C1B  365   9.027   5.295   9.241 -0.0256 -0.0386  0.0032
   23loPI   C2B  366   8.899   5.175   8.829 -0.1834  0.0454 -0.1524
   23loPI   C3B  367   8.945   5.520   8.537 -0.2130 -0.2087 -0.0930
   23loPI   C4B  368   9.036   5.750   8.156 -0.0150 -0.2108  0.0312
   24loPI    C1  369  15.064   2.505  10.057 -0.1142 -0.1736 -0.1812
   24loPI    C2  370  14.721   2.580  10.250  0.0174 -0.0407  0.0051
   24loPI    C3  371  14.943   2.264  10.352  0.1960  0.1519  0.2256
   24loPI   PO4  372  15.032   2.582   9.778 -0.2158  0.1996  0.1158
   24loPI   GL1  373  15.126   2.616   9.364 -0.0179  0.1116 -0.0008
   24loPI   GL2  374  14.820   2.534   9.326 -0.0643 -0.0313  0.1220
   24loPI   C1A  375  15.244   3.032   9.053  0.3442 -0.1836  0.0915
   24loPI   C2A  376  15.520   3.172   8.635  0.0580 -0.3609 -0.2791
   24loPI   C3A  377  15.586   3.149   8.229  0.0434 -0.2062 -0.0108
   24loPI   C4A  378  15.608   2.949   7.807 -0.1119 -0.0838 -0.3140
   24loPI   C5A  379  15.430   2.819   7.461 -0.0132 -0.1740 -0.2437
   24loPI   C6A  380  15.073   2.967   7.253  0.1973  0.0555  0.1452
   24loPI   C1B  381  14.800   2.699   8.913  0.1491  0.0936  0.0938
   24loPI   C2B  382  14.912   3.010   8.639 -0.1046 -0.0978 -0.1351
   24loPI   C3B  383  15.083   3.069   8.264  0.1600 -0.0925  0.1673
   24loPI   C4B  384  15.178   3.307   7.901 -0.1158  0.2123 -0.1563
   25loPI    C1  385   7.848  14.141  10.212  0.2330 -0.0821  0.2601
   25loPI    C2  386   7.534  14.063  10.447  0.1130 -0.1027  0.0954
   25loPI    C3  387   7.824  13.791  10.405 -0.0906 -0.2876 -0.1364
   25loPI   PO4  388   7.746  14.130   9.910  0.0844 -0.0793  0.0370
   25loPI   GL1  389   7.656  13.892   9.508  0.0053  0.1319 -0.4631
   25loPI   GL2  390   7.517  13.699   9.232  0.0257 -0.3811  0.0989
   25loPI   C1A  391   7.951  14.131   9.144  0.2135 -0.0081 -0.0071
   25loPI   C2A  392   8.208  14.370   8.831  0.4108 -0.2038 -0.2784
   25loPI   C3A  393   8.427  14.475   8.510  0.0059 -0.1618  0.0168
   25loPI   C4A  394   8.750  14.702   8.200  0.0810  0.1470 -0.1204
   25loPI   C5A  395   8.691  14.665   7.689 -0.1141 -0.0567  0.0309
   25loPI   C6A  396   8.386  14.783   7.335  0.0752  0.1316 -0.0420
   25loPI   C1B  397   7.477  13.956   8.969  0.2485 -0.0038  0.2298
   25loPI   C2B  398   7.715  14.142   8.707 -0.2088 -0.3455 -0.2372
   25loPI   C3B  399   8.006  14.209   8.374  0.0853  0.3975  0.1800
   25loPI   C4B  400   8.325  14.502   8.041 -0.2105 -0.0642  0.0009
   26loPI    C1  401   4.824   6.091   9.713  0.0109  0.0871 -0.1487
   26loPI    C2  402   4.716   6.476   9.734 -0.1731  0.0245  0.1012
   26loPI    C3  403   5.019   6.341   9.957 -0.1932 -0.0031  0.1118
   26loPI   PO4  404   4.659   5.946   9.696  0.0177 -0.3027 -0.4702
   26loPI   GL1  405   4.326   5.948   9.407  0.0991 -0.0867  0.2011
   26loPI   GL2  406   4.539   6.177   9.260 -0.1018 -0.1043  0.1573
   26loPI   C1A  407   4.340   5.753   9.012  0.2168  0.0747 -0.1606
   26loPI   C2A  408   4.557   5.612   8.641 -0.0452  0.0875 -0.1896
   26loPI   C3A  409   4.627   5.536   8.206 -0.0482 -0.0194 -0.0634
   26loPI   C4A  410   4.870   5.474   7.777  0.0753  0.0956 -0.3073
   26loPI   C5A  411   5.026   5.232   7.442  0.0031 -0.0161 -0.0743
   26loPI   C6A  412   5.352   5.133   7.080  0.0428  0.0009  0.0555
   26loPI   C1B  413   4.793   5.977   8.984 -0.0815  0.0260  0.0211
   26loPI   C2B  414   4.816   6.010   8.517  0.6015 -0.0327 -0.1354
   26loPI   C3B  415   4.868   5.961   8.104 -0.0840  0.1635 -0.1429
   26loPI   C4B  416   4.579   6.117   7.734 -0.0569 -0.0288 -0.2614
   27loPI    C1  417   5.284  13.126  10.580 -0.2665 -0.0616  0.1452
   27loPI    C2  418   5.490  12.786  10.539 -0.1384  0.0358 -0.0330
   27loPI    C3  419   5.510  12.992  10.882  0.0458  0.0341 -0.0415
   27loPI   PO4  420   5.311  13.202  10.376  0.4265 -0.2707 -0.3988
   27loPI   GL1  421   5.239  13.236   9.889  0.1402  0.0102 -0.1095
   27loPI   GL2  422   5.451  13.370   9.658 -0.0740 -0.3010  0.0037
   27loPI   C1A  423   4.869  13.118   9.650 -0.1164  0.2222 -0.0176
   27loPI   C2A  424   4.863  13.078   9.224 -0.1850 -0.2073  0.2044
   27loPI   C3A  425   4.797  13.128   8.796 -0.0627  0.0123  0.0782
   27loPI   C4A  426   4.789  13.162   8.371 -0.0499  0.2152 -0.1690
   27loPI   C5A  427   4.898  12.944   7.973 -0.0045 -0.1123  0.0281
   27loPI   C6A  428   5.001  12.507   7.642  0.1762 -0.2334  0.3072
   27loPI   C1B  429   5.233  13.387   9.187 -0.0430 -0.0857  0.1612
   27loPI   C2B  430   5.152  13.455   8.724  0.1528 -0.4390 -0.3315
   27loPI   C3B  431   5.217  13.378   8.240  0.0768  0.1336  0.0572
   27loPI   C4B  432   5.150  13.400   7.794  0.3947  0.0928 -0.2771
   28loPI    C1  433  15.108   9.805   9.587  0.0026 -0.0808 -0.1268
   28loPI    C2  434  15.307   9.703   9.918  0.1470  0.1860 -0.1287
   28loPI    C3  435  15.034   9.995   9.931  0.0019  0.0546 -0.2010
   28loPI   PO4  436  15.340   9.923   9.464 -0.4376  0.0805 -0.1623
   28loPI   GL1  437  15.719   9.882   9.162  0.2046  0.0990  0.2178
   28loPI   GL2  438  15.964  10.175   9.143 -0.0491 -0.0190  0.1345
   28loPI   C1A  439  15.552   9.868   8.794 -0.0363 -0.0381  0.0698
   28loPI   C2A  440  15.367  10.128   8.420 -0.0261  0.2283  0.0006
   28loPI   C3A  441  15.347  10.054   8.000  0.3321 -0.0855  0.2342
   28loPI   C4A  442  15.303   9.824   7.784  0.3055 -0.1139 -0.0155
   28loPI   C5A  443  15.355   9.731   7.336 -0.1199  0.3634 -0.0135
   28loPI   C6A  444  15.392   9.757   6.925  0.1227  0.0159  0.1559
   28loPI   C1B  445  16.024   9.967   8.791  0.1416 -0.1391  0.0252
   28loPI   C2B  446  15.897  10.002   8.394  0.1355  0.2954  0.0073
   28loPI   C3B  447  15.765   9.679   8.038 -0.0603  0.1742  0.0288
   28loPI   C4B  448  15.816   9.400   7.633 -0.1349  0.1373  0.0806
   29loPI    C1  449   5.988   0.592  10.297  0.0557  0.0101 -0.0675
   29loPI    C2  450   5.624   0.570  10.462  0.1309 -0.0794  0.0893
   29loPI    C3  451   5.916   0.770  10.648  0.1512  0.0302 -0.0578
   29loPI   PO4  452   5.969   0.695  10.061  0.1862 -0.0540 -0.1039
   29loPI   GL1  453   5.873   0.783   9.627  0.3657 -0.0079 -0.0412
   29loPI   GL2  454   5.799   0.382   9.639 -0.3085 -0.0993 -0.2270
   29loPI   C1A  455   5.794   0.863   9.170 -0.2041 -0.0978 -0.3036
   29loPI   C2A  456   5.821   1.001   8.751 -0.0540 -0.3509  0.4321
   29loPI   C3A  457   5.853   1.107   8.327  0.0267  0.2394  0.1307
   29loPI   C4A  458   5.911   1.237   7.878  0.1259  0.1314  0.2565
   29loPI   C5A  459   6.124   1.429   7.481  0.0206 -0.1452  0.0597
   29loPI   C6A  460   6.283   1.579   7.135  0.1004  0.0260 -0.1920
   29loPI   C1B  461   5.556   0.329   9.242 -0.2877 -0.0642 -0.3003
   29loPI   C2B  462   5.586   0.130   8.954 -0.0846  0.2945  0.0842
   29loPI   C3B  463   5.634   0.099   8.507 -0.2177  0.2350  0.1354
   29loPI   C4B  464   5.631   0.199   8.042  0.2970 -0.1091  0.0828
   30loPI    C1  465   0.131   1.749   9.277  0.0187  0.0067 -0.0276
   30loPI    C2  466   0.021   1.827   9.653 -0.0944 -0.1031 -0.0371
   30loPI    C3  467  -0.177   1.993   9.348  0.1312  0.1558 -0.0471
   30loPI   PO4  468   0.189   1.435   9.357 -0.0004  0.1366 -0.0583
   30loPI   GL1  469   0.030   1.188   9.067 -0.0518 -0.0504 -0.0606
   30loPI   GL2  470   0.187   0.903   9.069 -0.1339 -0.0277 -0.1629
   30loPI   C1A  471   0.146   1.303   8.672  0.2391 -0.0507  0.3614
   30loPI   C2A  472   0.091   1.620   8.386 -0.0909  0.0122  0.0111
   30loPI   C3A  473   0.065   1.594   7.894 -0.0746 -0.1353  0.2663
   30loPI   C4A  474  -0.090   1.918   7.640  0.2244 -0.0540 -0.3077
   30loPI   C5A  475  -0.029   2.353   7.692  0.2275 -0.1751  0.1364
   30loPI   C6A  476  -0.281   2.650   7.506  0.0986  0.0204  0.1354
   30loPI   C1B  477  -0.014   0.813   8.717  0.1033  0.2076  0.0723
   30loPI   C2B  478  -0.312   0.782   8.385  0.1387  0.1342  0.0710
   30loPI   C3B  479  -0.510   0.670   8.080 -0.0522  0.0235  0.2217
   30loPI   C4B  480  -0.745   0.266   7.866  0.0057  0.2373 -0.4148
   31loPI    C1  481  15.100  17.415  10.323 -0.3329 -0.2696 -0.0326
   31loPI    C2  482  14.965  17.670  10.599 -0.2835 -0.3105  0.0295
   31loPI    C3  483  15.185  17.355  10.709  0.2935  0.0293 -0.1124
   31loPI   PO4  484  14.926  17.387  10.185 -0.1800  0.0248  0.2832
   31loPI   GL1  485  14.895  17.280   9.828  0.1032 -0.1718  0.1665
   31loPI   GL2  486  14.547  17.243   9.635  0.1293  0.0218  0.3296
   31loPI   C1A  487  14.955  17.391   9.416  0.0339 -0.1536 -0.3306
   31loPI   C2A  488  14.954  17.301   9.023  0.0663 -0.1475 -0.0967
   31loPI   C3A  489  14.917  17.319   8.546 -0.3558  0.1227 -0.0066
   31loPI   C4A  490  14.670  17.228   8.183 -0.3246 -0.1573 -0.3972
   31loPI   C5A  491  14.623  17.257   7.669 -0.0511  0.1233  0.1642
   31loPI   C6A  492  14.797  17.022   7.265 -0.0086  0.1216  0.3821
   31loPI   C1B  493  14.434  17.312   9.187  0.1705 -0.0160 -0.0748
   31loPI   C2B  494  14.058  17.456   8.877  0.0732 -0.2395 -0.1561
   31loPI   C3B  495  13.892  17.502   8.448 -0.1923  0.0938 -0.1243
   31loPI   C4B  496  14.063  17.488   8.024  0.0196 -0.4093 -0.1594
   32loPI    C1  497  18.810   7.910  10.079  0.0699 -0.0602  0.0935
   32loPI    C2  498  18.475   7.978  10.287  0.0780 -0.1779  0.1461
   32loPI    C3  499  18.832   8.020  10.462  0.1019  0.2313  0.0099
   32loPI   PO4  500  18.794   7.724   9.874  0.1352  0.0179  0.1886
   32loPI   GL1  501  18.854   7.913   9.448  0.0425  0.1345  0.1658
   32loPI   GL2  502  19.137   8.087   9.378 -0.1485 -0.1042  0.1737
   32loPI   C1A  503  18.596   7.943   9.106 -0.2229  0.1784 -0.0804
   32loPI   C2A  504  18.363   8.240   8.976 -0.0921  0.3052  0.1256
   32loPI   C3A  505  18.450   8.486   8.515  0.0847 -0.0464  0.1099
   32loPI   C4A  506  18.774   8.656   8.367 -0.0638  0.1801 -0.0764
   32loPI   C5A  507  18.931   8.817   8.006 -0.2006 -0.1760 -0.1478
   32loPI   C6A  508  18.928   9.131   7.778  0.0100 -0.2745 -0.0140
   32loPI   C1B  509  19.261   7.983   8.977  0.0469 -0.2839  0.3254
   32loPI   C2B  510  19.228   7.863   8.483  0.0752 -0.0722 -0.0683
   32loPI   C3B  511  19.125   7.717   8.028 -0.3338 -0.0039  0.0415
   32loPI   C4B  512  19.059   7.777   7.563 -0.2798 -0.1186 -0.0776
   33loPI    C1  513  12.745   5.267  10.066  0.0877  0.1177  0.0112
   33loPI    C2  514  12.894   5.004  10.329  0.0414 -0.1029 -0.1804
   33loPI    C3  515  12.664   5.306  10.456  0.2681 -0.0299  0.0651
   33loPI   PO4  516  12.648   5.015   9.822  0.2907 -0.0781 -0.1260
   33loPI   GL1  517  12.609   4.997   9.496 -0.0074  0.2559  0.1674
   33loPI   GL2  518  12.490   4.679   9.302  0.3201 -0.0673  0.2886
   33loPI   C1A  519  12.704   5.200   9.097  0.3023 -0.2637 -0.0277
   33loPI   C2A  520  12.817   5.292   8.674  0.2186  0.2855  0.0745
   33loPI   C3A  521  12.822   5.241   8.194  0.0038  0.2749  0.0641
   33loPI   C4A  522  12.905   5.369   7.797  0.1616 -0.0762  0.2487
   33loPI   C5A  523  13.195   5.782   7.594  0.1739  0.3166 -0.0397
   33loPI   C6A  524  13.430   6.088   7.376  0.1069 -0.1810  0.1832
   33loPI   C1B  525  12.387   4.641   8.824 -0.1350  0.3460  0.4931
   33loPI   C2B  526  12.385   4.484   8.297 -0.0883  0.1268 -0.1746
   33loPI   C3B  527  12.379   4.267   7.979 -0.1763 -0.1364  0.1643
   33loPI   C4B  528  12.390   3.834   8.021  0.3677  0.4043 -0.0201
   34loPI    C1  529   7.578  17.777  10.144  0.1199 -0.0521 -0.1648
   34loPI    C2  530   7.630  18.122  10.339  0.1158 -0.1906  0.0856
   34loPI    C3  531   7.935  17.865  10.302  0.1811 -0.0660 -0.2930
   34loPI   PO4  532   7.444  17.859   9.852 -0.1337 -0.0279 -0.1286
   34loPI   GL1  533   7.163  18.003   9.650 -0.1424  0.0154  0.1118
   34loPI   GL2  534   7.278  18.337   9.430  0.1692 -0.1311 -0.0650
   34loPI   C1A  535   7.058  17.978   9.178  0.1661  0.0582  0.1077
   34loPI   C2A  536   7.014  18.003   8.730 -0.0573 -0.2063  0.0136
   34loPI   C3A  537   7.018  18.176   8.304  0.0013  0.2472  0.0872
   34loPI   C4A  538   6.938  18.407   7.931 -0.1032 -0.3517 -0.1516
   34loPI   C5A  539   6.981  18.760   7.647 -0.1834  0.1182  0.2242
   34loPI   C6A  540   6.828  19.161   7.597  0.2246  0.1814  0.2491
   34loPI   C1B  541   7.212  18.510   8.951 -0.1771 -0.0922 -0.0528
   34loPI   C2B  542   7.128  18.621   8.518 -0.1226 -0.1233  0.0658
   34loPI   C3B  543   7.052  18.887   8.201  0.3382 -0.2010  0.0375
   34loPI   C4B  544   7.243  19.176   7.896 -0.2035 -0.1642 -0.1927
   35loPI    C1  545   3.813   5.381  10.275 -0.0044 -0.1208 -0.0108
   35loPI    C2  546   3.672   5.053  10.456 -0.1169  0.0291  0.1768
   35loPI    C3  547   3.961   5.269  10.629 -0.0991  0.0740  0.0919
   35loPI   PO4  548   3.865   5.300  10.014 -0.2883  0.0831  0.0616
   35loPI   GL1  549   3.665   5.353   9.646  0.4326  0.3989  0.1640
   35loPI   GL2  550   3.839   5.688   9.740 -0.0272 -0.2503 -0.0261
   35loPI   C1A  551   3.474   5.613   9.330 -0.0340 -0.0413 -0.2943
   35loPI   C2A  552   3.369   5.672   8.906 -0.3598 -0.2496  0.3080
   35loPI   C3A  553   3.135   5.631   8.491 -0.1203  0.0400  0.1875
   35loPI   C4A  554   3.073   5.649   8.097  0.1577  0.2756 -0.4171
   35loPI   C5A  555   2.998   5.892   7.624 -0.4990  0.1029 -0.1384
   35loPI   C6A  556   2.835   6.190   7.478  0.0464  0.3832  0.0964
   35loPI   C1B  557   4.080   5.516   9.378 -0.1323 -0.0618  0.0383
   35loPI   C2B  558   3.902   5.364   8.963 -0.3690  0.0861 -0.3418
   35loPI   C3B  559   4.069   5.498   8.613 -0.3693 -0.0051  0.1150
   35loPI   C4B  560   4.252   5.239   8.380 -0.1753  0.0808  0.2462
   36loPI    C1  561   7.483   9.444  10.394 -0.0134  0.1091  0.1424
   36loPI    C2  562   7.174   9.243  10.550  0.0242 -0.1784 -0.1446
   36loPI    C3  563   7.536   9.214  10.717  0.0295 -0.3538 -0.1838
   36loPI   PO4  564   7.431   9.390  10.034 -0.0301 -0.0045  0.0247
   36loPI   GL1  565   7.363   9.503   9.669  0.1539  0.0321 -0.1461
   36loPI   GL2  566   7.702   9.548   9.573  0.2939 -0.0160  0.2319
   36loPI   C1A  567   7.334   9.813   9.344  0.1712  0.0349  0.0105
   36loPI   C2A  568   7.516  10.087   8.974  0.0166  0.0005  0.3228
   36loPI   C3A  569   7.529  10.284   8.537  0.0273  0.1582  0.1190
   36loPI   C4A  570   7.576  10.653   8.153 -0.1410  0.1339  0.3225
   36loPI   C5A  571   7.446  10.811   7.728  0.0319 -0.1400  0.1724
   36loPI   C6A  572   7.415  10.658   7.396  0.2691  0.2203  0.0354
   36loPI   C1B  573   7.730   9.570   9.147 -0.1635  0.0501  0.1513
   36loPI   C2B  574   7.814   9.728   8.727 -0.1073 -0.1441  0.1799
   36loPI   C3B  575   7.875   9.813   8.331 -0.2493  0.0399  0.1521
   36loPI   C4B  576   7.833   9.834   7.872 -0.0449  0.1522  0.0173
   37loPI    C1  577   8.311   4.207  10.374 -0.0541  0.1350  0.1574
   37loPI    C2  578   8.511   4.066  10.690 -0.0190  0.1223  0.1296
   37loPI    C3  579   8.496   4.460  10.622  0.0168  0.1217  0.1185
   37loPI   PO4  580   8.432   4.049  10.163  0.2358 -0.0232  0.1236
   37loPI   GL1  581   8.483   4.065   9.759  0.2604  0.2321 -0.0436
   37loPI   GL2  582   8.531   3.840   9.651  0.0188  0.4452  0.1813
   37loPI   C1A  583   8.868   4.237   9.570 -0.1235  0.2456  0.3780
   37loPI   C2A  584   9.147   4.238   9.300 -0.1737  0.1537 -0.1329
   37loPI   C3A  585   9.291   4.434   9.058  0.1514  0.1177 -0.0304
   37loPI   C4A  586   9.290   4.819   8.774  0.0353 -0.1803 -0.1235
   37loPI   C5A  587   9.057   4.870   8.418 -0.1734  0.0225  0.0130
   37loPI   C6A  588   9.211   4.688   8.159 -0.1372  0.0684  0.2339
   37loPI   C1B  589   8.654   3.762   9.307  0.1536  0.1596  0.1952
   37loPI   C2B  590   8.702   3.715   8.843 -0.0201 -0.1882  0.3283
   37loPI   C3B  591   8.699   3.514   8.469  0.1768 -0.0819  0.4003
   37loPI   C4B  592   8.860   3.288   8.155  0.0605 -0.1784  0.0590
   38loPI    C1  593  15.569  17.987  10.087 -0.1583  0.0633 -0.2615
   38loPI    C2  594  15.198  17.839  10.117 -0.0830 -0.0507  0.1836
   38loPI    C3  595  15.484  17.715  10.368  0.2531  0.0564 -0.1370
   38loPI   PO4  596  15.567  18.210   9.941 -0.1432 -0.2774 -0.0777
   38loPI   GL1  597  15.266  18.365   9.774  0.1237  0.1313  0.2135
   38loPI   GL2  598  14.969  18.235   9.792 -0.1729  0.1722  0.1784
   38loPI   C1A  599  15.350  18.515   9.354 -0.2321 -0.0907  0.2709
   38loPI   C2A  600  15.355  18.623   8.895 -0.2383  0.2193 -0.0528
   38loPI   C3A  601  15.273  18.807   8.443 -0.1199 -0.0402  0.0729
   38loPI   C4A  602  15.236  19.038   8.074  0.1088  0.1714 -0.3088
   38loPI   C5A  603  14.964  18.768   7.780 -0.0948  0.2548 -0.0415
   38loPI   C6A  604  15.141  18.395   7.641  0.1307  0.1059  0.1198
   38loPI   C1B  605  14.817  17.989   9.575  0.2283 -0.0167 -0.1855
   38loPI   C2B  606  14.714  17.837   9.272  0.0876  0.0894  0.3226
   38loPI   C3B  607  14.692  17.706   8.865  0.1466 -0.1552 -0.0587
   38loPI   C4B  608  14.420  17.577   8.465  0.1357 -0.0155 -0.2030
   39loPI    C1  609  18.617   1.480  10.052 -0.1680 -0.0673  0.0753
   39loPI    C2  610  18.869   1.428  10.358 -0.0921 -0.0130  0.0223
   39loPI    C3  611  18.602   1.726  10.367 -0.1541 -0.0700  0.0780
   39loPI   PO4  612  18.754   1.481   9.870 -0.0165 -0.1083 -0.1981
   39loPI   GL1  613  18.720   1.524   9.397 -0.0317 -0.3819 -0.0169
   39loPI   GL2  614  18.418   1.604   9.483 -0.2701  0.1419 -0.2448
   39loPI   C1A  615  18.830   1.568   8.987 -0.0423  0.1610  0.3319
   39loPI   C2A  616  18.759   1.679   8.542 -0.0043 -0.0132 -0.1753
   39loPI   C3A  617  18.682   1.690   8.140  0.1605  0.1018  0.1222
   39loPI   C4A  618  18.532   1.732   7.754  0.2455  0.3003  0.0602
   39loPI   C5A  619  18.642   1.702   7.359 -0.0444  0.1283 -0.1178
   39loPI   C6A  620  18.898   1.925   7.020 -0.2270 -0.1174 -0.2195
   39loPI   C1B  621  18.370   1.739   9.153  0.0414  0.2389  0.0480
   39loPI   C2B  622  18.351   1.905   8.688 -0.0218 -0.2141  0.2095
   39loPI   C3B  623  18.511   2.159   8.336 -0.0062  0.0130 -0.0338
   39loPI   C4B  624  18.675   2.243   8.004 -0.1157  0.1656  0.1311
   40loPI    C1  625   5.717   8.598   9.958  0.1389 -0.0940 -0.1454
   40loPI    C2  626   6.058   8.479  10.131  0.0244 -0.1559  0.0404
   40loPI    C3  627   5.715   8.289  10.213 -0.1256  0.1672  0.1780
   40loPI   PO4  628   5.673   8.657   9.766 -0.1335  0.2239 -0.1164
   40loPI   GL1  629   5.881   8.973   9.471 -0.0718  0.0311 -0.2707
   40loPI   GL2  630   6.015   8.602   9.435  0.1478  0.0233  0.1343
   40loPI   C1A  631   5.818   9.143   8.973 -0.4718 -0.2428  0.0380
   40loPI   C2A  632   5.833   9.258   8.527 -0.1125  0.1988 -0.0454
   40loPI   C3A  633   5.710   9.533   8.194 -0.0684  0.0863 -0.1547
   40loPI   C4A  634   5.499   9.595   7.761  0.2186  0.2001  0.0505
   40loPI   C5A  635   5.270   9.347   7.557  0.2052  0.0226  0.0368
   40loPI   C6A  636   4.890   9.450   7.246 -0.1333 -0.2177 -0.1147
   40loPI   C1B  637   5.652   8.725   9.093 -0.0447 -0.2275  0.0298
   40loPI   C2B  638   5.642   8.805   8.682 -0.4077 -0.0253  0.1775
   40loPI   C3B  639   5.479   8.889   8.328 -0.1226  0.3420 -0.0583
   40loPI   C4B  640   5.305   9.215   8.046  0.1498 -0.0050  0.3718
   41loPI    C1  641  13.580  12.864  10.139  0.0232  0.2554 -0.1376
   41loPI    C2  642  13.554  12.857  10.538  0.0034 -0.1237 -0.1426
   41loPI    C3  643  13.876  13.015  10.361  0.0217  0.0265  0.0229
   41loPI   PO4  644  13.660  12.601   9.956  0.3125  0.0264  0.2373
   41loPI   GL1  645  13.542  12.582   9.546 -0.1910  0.2577 -0.1910
   41loPI   GL2  646  13.735  12.724   9.275 -0.1993  0.2447  0.3456
   41loPI   C1A  647  13.235  12.595   9.267 -0.0303 -0.0013 -0.0375
   41loPI   C2A  648  13.097  12.670   8.922  0.0574 -0.1731 -0.0288
   41loPI   C3A  649  13.217  12.893   8.639  0.1582  0.0124 -0.2793
   41loPI   C4A  650  13.489  12.974   8.312 -0.1261  0.0721 -0.1401
   41loPI   C5A  651  13.778  13.080   8.008 -0.2464 -0.1207  0.0731
   41loPI   C6A  652  14.182  12.889   7.785  0.0749  0.0256  0.0003
   41loPI   C1B  653  13.607  12.672   8.942  0.3146  0.0014 -0.2306
   41loPI   C2B  654  13.539  12.574   8.624 -0.2153 -0.1764  0.4376
   41loPI   C3B  655  13.498  12.497   8.262  0.1849  0.1618 -0.1343
   41loPI   C4B  656  13.293  12.496   7.736 -0.0730 -0.0965 -0.0431
   42loPI    C1  657   2.466   3.480   9.693  0.0408  0.1019 -0.2542
   42loPI    C2  658   2.822   3.647   9.617  0.1092  0.0344 -0.0884
   42loPI    C3  659   2.773   3.421   9.944 -0.0623 -0.0299 -0.1574
   42loPI   PO4  660   2.361   3.400   9.565 -0.0804 -0.0580  0.0035
   42loPI   GL1  661   2.538   3.069   9.204 -0.0006  0.1576  0.1044
   42loPI   GL2  662   2.677   3.353   9.217 -0.3329 -0.2252  0.2130
   42loPI   C1A  663   2.453   3.072   8.782  0.1438  0.2231 -0.1810
   42loPI   C2A  664   2.365   3.017   8.399  0.2467 -0.1808 -0.1069
   42loPI   C3A  665   2.265   3.155   8.002 -0.0777 -0.0474 -0.3720
   42loPI   C4A  666   2.504   3.191   7.595 -0.2981  0.4131 -0.1375
   42loPI   C5A  667   2.461   2.908   7.224 -0.0213  0.0753 -0.1087
   42loPI   C6A  668   2.649   2.599   6.940  0.1503  0.2649  0.1199
   42loPI   C1B  669   2.608   3.619   8.885  0.3586 -0.0733  0.1163
   42loPI   C2B  670   2.551   3.855   8.495 -0.3205 -0.0475 -0.1640
   42loPI   C3B  671   2.515   4.047   8.146 -0.1295  0.0707 -0.1290
   42loPI   C4B  672   2.211   4.072   7.862  0.1086  0.2347  0.0846
   43loPI    C1  673  13.878   8.559   9.816 -0.3119  0.0797  0.0099
   43loPI    C2  674  14.097   8.883   9.730  0.0204 -0.0462  0.3512
   43loPI    C3  675  13.749   8.921   9.925 -0.1306  0.1319  0.0543
   43loPI   PO4  676  13.953   8.384   9.648 -0.2293 -0.4062 -0.1591
   43loPI   GL1  677  14.247   8.332   9.296  0.1312  0.1091 -0.1736
   43loPI   GL2  678  14.177   8.642   9.239 -0.2176 -0.1216 -0.3676
   43loPI   C1A  679  14.354   8.331   8.781  0.1340 -0.1373  0.1216
   43loPI   C2A  680  14.537   8.369   8.449 -0.2698 -0.1453 -0.1270
   43loPI   C3A  681  14.883   8.623   8.390 -0.2108  0.2105 -0.1432
   43loPI   C4A  682  15.191   8.999   8.394 -0.6056  0.0850  0.1420
   43loPI   C5A  683  15.551   8.894   8.528 -0.1399  0.0137 -0.1563
   43loPI   C6A  684  15.786   8.972   8.876  0.2400  0.2496 -0.0666
   43loPI   C1B  685  14.192   8.940   8.864 -0.1720 -0.1730 -0.4199
   43loPI   C2B  686  13.972   9.113   8.542 -0.2889 -0.0171  0.1500
   43loPI   C3B  687  13.934   9.376   8.204 -0.1308  0.4628 -0.2442
   43loPI   C4B  688  13.643   9.530   7.946 -0.1388 -0.1017  0.0819
   44loPI    C1  689   2.306   0.758   9.660 -0.0649 -0.2444 -0.4884
   44loPI    C2  690   2.587   0.724   9.942 -0.2193  0.0844 -0.2883
   44loPI    C3  691   2.405   0.397   9.801 -0.0540 -0.0937 -0.0968
   44loPI   PO4  692   2.428   0.902   9.460 -0.2983 -0.1115 -0.1026
   44loPI   GL1  693   2.641   0.768   9.059 -0.0980  0.1393  0.0304
   44loPI   GL2  694   2.618   1.243   9.016 -0.0874  0.1428  0.1543
   44loPI   C1A  695   2.346   0.738   8.705  0.1313  0.1039 -0.4704
   44loPI   C2A  696   2.189   0.404   8.325  0.1690  0.0782  0.0943
   44loPI   C3A  697   2.157   0.031   8.201 -0.1071 -0.1127 -0.0237
   44loPI   C4A  698   2.365  -0.220   7.916  0.3405  0.0520 -0.1429
   44loPI   C5A  699   2.450  -0.575   7.753 -0.0257 -0.0755  0.1407
   44loPI   C6A  700   2.626  -0.999   7.559  0.1219  0.1766 -0.0366
   44loPI   C1B  701   2.660   1.118   8.576 -0.0377 -0.2502 -0.0515
   44loPI   C2B  702   2.833   1.132   8.186 -0.1364 -0.3232 -0.4282
   44loPI   C3B  703   2.842   1.096   7.825  0.2769 -0.1063  0.0858
   44loPI   C4B  704   2.811   1.366   7.465  0.0313  0.0867  0.0777
   45loPI    C1  705  15.231   6.143  10.194 -0.2190 -0.3922  0.0581
   45loPI    C2  706  15.305   6.454  10.435 -0.1082 -0.2611 -0.1423
   45loPI    C3  707  15.229   6.094  10.591  0.0183 -0.1906  0.0868
   45loPI   PO4  708  15.096   6.146  10.073  0.0921  0.0077 -0.0801
   45loPI   GL1  709  14.765   5.943   9.873  0.0117  0.1310  0.1706
   45loPI   GL2  710  14.818   6.276   9.674  0.0063 -0.0220  0.0727
   45loPI   C1A  711  14.685   5.852   9.490 -0.1477 -0.3218 -0.2316
   45loPI   C2A  712  14.557   5.838   9.062  0.1251 -0.0895 -0.0329
   45loPI   C3A  713  14.602   5.824   8.567 -0.1975  0.1298 -0.2985
   45loPI   C4A  714  14.467   5.855   8.120  0.0823 -0.1888 -0.0193
   45loPI   C5A  715  14.175   5.678   7.785 -0.1484  0.0245 -0.1027
   45loPI   C6A  716  13.735   5.507   7.816  0.1523  0.1283  0.0352
   45loPI   C1B  717  14.906   6.213   9.211 -0.0845  0.0114 -0.1036
   45loPI   C2B  718  15.040   5.898   9.035 -0.1576 -0.1542 -0.1490
   45loPI   C3B  719  15.121   5.665   8.597  0.2123 -0.0480  0.1930
   45loPI   C4B  720  14.939   5.812   8.187 -0.1126  0.3792 -0.0111
   46loPI    C1  721  10.484  17.243  10.674  0.1113 -0.1818  0.1291
   46loPI    C2  722  10.099  17.238  10.781  0.0199 -0.0113 -0.1764
   46loPI    C3  723  10.357  17.472  10.977 -0.0475 -0.0598 -0.0271
   46loPI   PO4  724  10.482  17.209  10.393  0.2968 -0.0351  0.4800
   46loPI   GL1  725  10.474  17.215   9.931  0.0544  0.0666 -0.1419
   46loPI   GL2  726  10.753  17.245   9.807 -0.0807  0.0948  0.2509
   46loPI   C1A  727  10.400  16.992   9.542 -0.0340 -0.0379 -0.0377
   46loPI   C2A  728  10.399  16.922   9.151 -0.2143  0.1163 -0.0826
   46loPI   C3A  729  10.675  17.076   8.705  0.1662 -0.0185 -0.0802
   46loPI   C4A  730  10.495  17.217   8.404  0.2536  0.1867 -0.1694
   46loPI   C5A  731  10.310  17.430   8.157  0.2920  0.1680  0.1761
   46loPI   C6A  732  10.414  17.762   7.882 -0.3030 -0.0011 -0.2981
   46loPI   C1B  733  10.858  17.135   9.344 -0.0826  0.0058 -0.1072
   46loPI   C2B  734  11.099  17.016   9.038 -0.1859  0.0568 -0.0311
   46loPI   C3B  735  11.431  17.043   8.869 -0.0176 -0.1851 -0.1958
   46loPI   C4B  736  11.712  16.877   8.625  0.0264  0.1237 -0.1985
   47loPI    C1  737   5.211   9.764  10.132  0.0380 -0.0708 -0.1668
   47loPI    C2  738   5.293   9.887  10.504 -0.0819 -0.0045 -0.1617
   47loPI    C3  739   4.916   9.893  10.371 -0.0751 -0.2710 -0.1966
   47loPI   PO4  740   5.393   9.873   9.992 -0.0485  0.0560 -0.0901
   47loPI   GL1  741   5.383   9.640   9.629  0.0705  0.0655  0.1454
   47loPI   GL2  742   5.134   9.842   9.564 -0.0870 -0.2400 -0.3247
   47loPI   C1A  743   5.457   9.708   9.195  0.1011 -0.1264 -0.0499
   47loPI   C2A  744   5.234   9.865   8.843 -0.0434  0.1981  0.3477
   47loPI   C3A  745   4.852  10.171   8.769 -0.0884  0.2235  0.1613
   47loPI   C4A  746   4.580  10.273   8.476 -0.2279 -0.1563 -0.1357
   47loPI   C5A  747   4.342  10.289   8.215  0.0220  0.0163  0.2529
   47loPI   C6A  748   4.156  10.481   7.923  0.0673  0.2684  0.0312
   47loPI   C1B  749   5.245  10.174   9.220 -0.2054  0.1040 -0.2170
   47loPI   C2B  750   5.038  10.566   8.946  0.2078 -0.1178 -0.2286
   47loPI   C3B  751   5.376  10.810   8.750 -0.2162 -0.0986 -0.1858
   47loPI   C4B  752   5.729  10.986   8.452 -0.2229 -0.0006 -0.1995
   48loPI    C1  753   9.694  13.302  10.348 -0.2162 -0.0138  0.0143
   48loPI    C2  754   9.611  13.658  10.511  0.2227 -0.0179  0.2639
   48loPI    C3  755   9.319  13.439  10.348 -0.0620  0.4276  0.1594
   48loPI   PO4  756   9.858  13.310  10.146  0.0290  0.0647  0.0861
   48loPI   GL1  757   9.850  13.429   9.693 -0.2069 -0.0937 -0.0848
   48loPI   GL2  758   9.654  13.607   9.509  0.3109  0.2646  0.0346
   48loPI   C1A  759  10.056  13.429   9.259 -0.2540 -0.1958  0.0083
   48loPI   C2A  760   9.859  13.229   8.833  0.2524  0.0063 -0.2135
   48loPI   C3A  761   9.593  13.117   8.510 -0.3706 -0.0925 -0.2065
   48loPI   C4A  762   9.509  13.263   8.044  0.1902 -0.0993 -0.0038
   48loPI   C5A  763   9.352  13.017   7.597  0.0623 -0.1269 -0.0156
   48loPI   C6A  764   9.439  12.738   7.165  0.0383 -0.0971  0.2082
   48loPI   C1B  765   9.635  13.623   9.066  0.2673  0.4770 -0.0967
   48loPI   C2B  766   9.609  13.665   8.644  0.2889  0.1099 -0.1967
   48loPI   C3B  767   9.763  13.755   8.129  0.2719  0.4258  0.2356
   48loPI   C4B  768   9.887  13.999   7.838  0.1679  0.0944  0.0881
   49loPI    C1  769   6.211  13.949  10.217 -0.1144 -0.0456 -0.0323
   49loPI    C2  770   6.300  14.291  10.404  0.0474 -0.0336 -0.1300
   49loPI    C3  771   6.491  13.954  10.503 -0.0020 -0.0648 -0.1411
   49loPI   PO4  772   6.264  13.973   9.884 -0.1821 -0.3128 -0.2641
   49loPI   GL1  773   6.045  14.071   9.549  0.0499  0.2997  0.0356
   49loPI   GL2  774   6.008  14.472   9.495 -0.0416  0.2693  0.0290
   49loPI   C1A  775   6.084  14.022   9.156 -0.2471  0.1695  0.1709
   49loPI   C2A  776   6.113  14.029   8.649 -0.2100 -0.0488 -0.3074
   49loPI   C3A  777   6.052  13.991   8.206  0.1760  0.1099  0.0304
   49loPI   C4A  778   6.065  13.946   7.731  0.2324 -0.2505 -0.1233
   49loPI   C5A  779   6.043  13.673   7.348 -0.1462 -0.3443  0.1306
   49loPI   C6A  780   6.135  13.432   6.989 -0.0662  0.0953 -0.0151
   49loPI   C1B  781   6.085  14.560   9.190 -0.1262  0.1027 -0.0223
   49loPI   C2B  782   6.095  14.582   8.809 -0.0985  0.1537 -0.0033
   49loPI   C3B  783   5.940  14.438   8.415  0.1161  0.0466 -0.1728
   49loPI   C4B  784   5.970  14.472   7.933 -0.2661 -0.2982 -0.3074
   50loPI    C1  785   6.537  11.681   9.846  0.0243 -0.1272  0.0190
   50loPI    C2  786   6.237  11.753   9.591 -0.0549  0.1768  0.1931
   50loPI    C3  787   6.483  11.444   9.528 -0.3668 -0.0420  0.0165
   50loPI   PO4  788   6.546  11.946   9.852  0.0220 -0.3265 -0.1331
   50loPI   GL1  789   6.531  12.257   9.523 -0.2976  0.0212  0.0129
   50loPI   GL2  790   6.230  12.246   9.552 -0.0860 -0.2019 -0.1828
   50loPI   C1A  791   6.729  12.246   9.165  0.5571 -0.4296 -0.0313
   50loPI   C2A  792   6.730  12.310   8.627 -0.1429 -0.2323  0.0008
   50loPI   C3A  793   6.545  12.182   8.246  0.1148  0.2460 -0.0370
   50loPI   C4A  794   6.314  12.015   7.881  0.2454  0.1474  0.1268
   50loPI   C5A  795   6.045  11.871   7.507  0.1215  0.0660 -0.1073
   50loPI   C6A  796   5.707  12.085   7.200 -0.3145  0.2216 -0.2007
   50loPI   C1B  797   6.193  12.134   9.125 -0.2621  0.0307  0.2687
   50loPI   C2B  798   6.338  12.021   8.764  0.1023 -0.0239 -0.0116
   50loPI   C3B  799   6.482  11.703   8.388 -0.1088 -0.3816 -0.0149
   50loPI   C4B  800   6.254  11.461   8.046  0.2818  0.3593  0.0385
   51loPI    C1  801   2.958   8.536  10.263  0.1472  0.1371 -0.0891
   51loPI    C2  802   2.669   8.799  10.179  0.1663  0.2176  0.0926
   51loPI    C3  803   2.592   8.488  10.418  0.1771  0.1271 -0.0212
   51loPI   PO4  804   3.203   8.756  10.239  0.2562  0.2061  0.1717
   51loPI   GL1  805   3.071   8.901   9.812 -0.1928 -0.1175  0.0273
   51loPI   GL2  806   2.849   9.139   9.744  0.1238 -0.1221 -0.0888
   51loPI   C1A  807   3.274   8.891   9.423 -0.0265  0.1551 -0.1441
   51loPI   C2A  808   3.218   8.813   8.968  0.1543 -0.1494 -0.2510
   51loPI   C3A  809   3.238   8.865   8.569  0.2227  0.1274 -0.0945
   51loPI   C4A  810   3.620   9.021   8.305  0.1655  0.2003 -0.0462
   51loPI   C5A  811   3.878   8.942   7.946 -0.2974 -0.2836 -0.0349
   51loPI   C6A  812   4.140   9.092   7.796  0.3098 -0.0180 -0.2761
   51loPI   C1B  813   2.885   9.162   9.404 -0.3200 -0.2118  0.1722
   51loPI   C2B  814   2.807   9.113   8.996 -0.1598 -0.1810  0.0822
   51loPI   C3B  815   2.849   9.185   8.592  0.0327 -0.2000 -0.1070
   51loPI   C4B  816   2.846   8.937   8.145  0.1315 -0.0177 -0.0467
   52loPI    C1  817   6.350   8.086   9.914  0.0684 -0.0248  0.1570
   52loPI    C2  818   6.420   7.746  10.112 -0.0272 -0.1089  0.0483
   52loPI    C3  819   6.112   7.979  10.217  0.0659 -0.0314  0.1526
   52loPI   PO4  820   6.286   8.017   9.645  0.0050  0.2264  0.1102
   52loPI   GL1  821   6.389   8.250   9.345  0.2027  0.1110  0.1476
   52loPI   GL2  822   6.040   8.041   9.251 -0.0443 -0.2162 -0.2598
   52loPI   C1A  823   6.539   8.559   9.097 -0.1070  0.0115 -0.2889
   52loPI   C2A  824   6.644   8.714   8.841 -0.2588 -0.0705 -0.2752
   52loPI   C3A  825   6.539   9.006   8.515 -0.1246 -0.1923  0.2316
   52loPI   C4A  826   6.353   9.107   8.104  0.0885  0.2035  0.0959
   52loPI   C5A  827   6.259   9.494   7.947  0.0293 -0.1071  0.0949
   52loPI   C6A  828   6.464   9.900   7.944 -0.3658 -0.2755 -0.2187
   52loPI   C1B  829   6.051   8.347   8.923  0.0404  0.3960  0.0454
   52loPI   C2B  830   6.039   8.335   8.399  0.0720  0.2086 -0.2205
   52loPI   C3B  831   5.937   8.110   8.018 -0.0217 -0.1038 -0.0725
   52loPI   C4B  832   6.262   7.974   7.618 -0.1331 -0.1464 -0.1656
   53loPI    C1  833  11.967   9.965  10.466  0.0446  0.2353  0.1246
   53loPI    C2  834  11.638   9.766  10.578  0.1537  0.1030  0.2131
   53loPI    C3  835  11.916   9.862  10.849  0.1516  0.2853  0.1525
   53loPI   PO4  836  11.894  10.175  10.317  0.1526  0.1262 -0.0071
   53loPI   GL1  837  11.673  10.323   9.919  0.1199  0.1622 -0.2562
   53loPI   GL2  838  11.932  10.054   9.839 -0.1851 -0.2734 -0.2279
   53loPI   C1A  839  11.747  10.402   9.524 -0.0057  0.4342 -0.0305
   53loPI   C2A  840  11.624  10.462   9.063  0.1038 -0.0840  0.3549
   53loPI   C3A  841  11.658  10.324   8.628  0.2193 -0.0034  0.0684
   53loPI   C4A  842  11.568  10.286   8.134 -0.0780 -0.0660  0.1746
   53loPI   C5A  843  11.432  10.116   7.717 -0.0831 -0.0291  0.2008
   53loPI   C6A  844  11.525   9.952   7.294  0.0665  0.0987  0.2486
   53loPI   C1B  845  11.902   9.975   9.422 -0.1905  0.3940 -0.0097
   53loPI   C2B  846  11.812   9.905   9.062 -0.2659  0.1464 -0.1958
   53loPI   C3B  847  11.848   9.833   8.635  0.0783 -0.1114 -0.1652
   53loPI   C4B  848  11.660   9.773   8.197 -0.3453 -0.1903  0.2111
   54loPI    C1  849  16.176   4.891  10.029 -0.1975 -0.2219 -0.0452
   54loPI    C2  850  15.795   4.949  10.137 -0.1287  0.1188  0.0292
   54loPI    C3  851  16.086   4.977  10.410 -0.0136  0.2935 -0.1093
   54loPI   PO4  852  16.104   4.695   9.821 -0.1272 -0.0449 -0.0299
   54loPI   GL1  853  16.126   4.493   9.414  0.3469 -0.1367  0.2046
   54loPI   GL2  854  15.997   4.241   9.448 -0.0528  0.1632 -0.0008
   54loPI   C1A  855  15.819   4.531   9.106 -0.2126  0.2274  0.1735
   54loPI   C2A  856  15.825   4.393   8.648  0.0409  0.0623 -0.0315
   54loPI   C3A  857  15.998   4.223   8.333  0.0804  0.1494  0.0267
   54loPI   C4A  858  15.919   4.303   7.859 -0.1556  0.0921 -0.0293
   54loPI   C5A  859  15.940   4.229   7.474  0.1040 -0.0340  0.2020
   54loPI   C6A  860  15.888   4.362   7.009  0.0970  0.0411  0.0695
   54loPI   C1B  861  16.234   4.254   9.013  0.0802  0.0525  0.0170
   54loPI   C2B  862  16.488   4.239   8.536  0.3273 -0.1709  0.0462
   54loPI   C3B  863  16.592   3.964   8.219 -0.1208  0.1611 -0.0459
   54loPI   C4B  864  16.587   3.972   7.798 -0.0359  0.1857 -0.0007
   55loPI    C1  865  16.672  14.961   9.992  0.0384  0.0908 -0.1305
   55loPI    C2  866  16.451  14.765  10.262  0.0721 -0.0327 -0.1918
   55loPI    C3  867  16.502  15.161  10.294 -0.1034 -0.0134 -0.1406
   55loPI   PO4  868  16.781  14.837   9.760  0.2300  0.2117 -0.0901
   55loPI   GL1  869  16.958  14.690   9.362  0.1078  0.0344 -0.0440
   55loPI   GL2  870  17.189  14.333   9.323  0.0712  0.2146 -0.0333
   55loPI   C1A  871  16.776  14.399   9.022  0.1880 -0.2636  0.2022
   55loPI   C2A  872  16.429  14.471   8.725 -0.0302  0.1846 -0.4561
   55loPI   C3A  873  16.128  14.208   8.461  0.0555  0.0204 -0.0714
   55loPI   C4A  874  16.150  13.851   8.158 -0.0790 -0.3311 -0.4720
   55loPI   C5A  875  16.205  13.664   7.808 -0.1838 -0.1611 -0.1402
   55loPI   C6A  876  16.308  13.775   7.369 -0.1635  0.2232  0.0216
   55loPI   C1B  877  17.284  14.538   8.934 -0.1508  0.0303 -0.0539
   55loPI   C2B  878  17.402  14.480   8.480 -0.1782 -0.0576 -0.2869
   55loPI   C3B  879  17.577  14.160   8.109 -0.2016  0.0986 -0.1672
   55loPI   C4B  880  17.610  14.013   7.699 -0.1253 -0.2909 -0.0930
   56loPI    C1  881  17.480  17.113  10.275 -0.1176  0.0323 -0.0879
   56loPI    C2  882  17.646  17.330   9.982  0.1820  0.0247  0.0722
   56loPI    C3  883  17.516  17.510  10.315  0.0756  0.0027  0.0432
   56loPI   PO4  884  17.439  16.855  10.074  0.1463  0.1625  0.3344
   56loPI   GL1  885  17.636  16.905   9.623  0.0614  0.0484  0.0950
   56loPI   GL2  886  17.816  17.172   9.475  0.0028  0.0818  0.0672
   56loPI   C1A  887  17.797  16.761   9.190 -0.1490 -0.1729  0.2211
   56loPI   C2A  888  17.799  16.999   8.831  0.1153 -0.1910 -0.0917
   56loPI   C3A  889  17.927  17.266   8.543 -0.0722  0.0677  0.1289
   56loPI   C4A  890  17.835  17.340   8.135 -0.3656  0.1604  0.1245
   56loPI   C5A  891  17.953  17.377   7.785  0.0091  0.0235 -0.1198
   56loPI   C6A  892  18.144  17.378   7.341 -0.0273 -0.0474 -0.3217
   56loPI   C1B  893  17.503  17.204   9.241 -0.3785  0.0451  0.1101
   56loPI   C2B  894  16.993  17.370   9.281 -0.4442  0.0539  0.2561
   56loPI   C3B  895  16.796  17.511   9.229 -0.2009 -0.2731  0.0629
   56loPI   C4B  896  16.562  17.683   8.977 -0.0192 -0.1989  0.1348
   57loPI    C1  897  10.154   2.576  10.212  0.0934  0.0410  0.1889
   57loPI    C2  898   9.889   2.825  10.379  0.0018 -0.0968  0.2505
   57loPI    C3  899   9.867   2.432  10.451  0.0828 -0.1348  0.0720
   57loPI   PO4  900  10.085   2.555   9.903 -0.2608 -0.2450 -0.0543
   57loPI   GL1  901  10.310   2.331   9.594  0.0865  0.2715  0.0154
   57loPI   GL2  902  10.659   2.520   9.665  0.0199  0.2015  0.0731
   57loPI   C1A  903  10.204   2.428   9.134  0.0432 -0.0230  0.2313
   57loPI   C2A  904  10.175   2.709   8.709 -0.1387  0.2810  0.1113
   57loPI   C3A  905  10.521   2.707   8.342  0.2657  0.0653 -0.1145
   57loPI   C4A  906  10.916   3.055   8.448 -0.2331  0.3328 -0.2008
   57loPI   C5A  907  11.070   3.171   8.901 -0.0195 -0.0575 -0.2279
   57loPI   C6A  908  11.133   3.182   9.224 -0.1296 -0.2827 -0.1452
   57loPI   C1B  909  10.709   2.335   9.318 -0.1036 -0.1442 -0.2002
   57loPI   C2B  910  10.817   2.125   8.981  0.1815  0.0862  0.1190
   57loPI   C3B  911  10.650   1.987   8.608 -0.0269  0.1799 -0.0094
   57loPI   C4B  912  11.034   1.952   8.288  0.2110 -0.0088  0.0224
   58loPI    C1  913   2.491  13.256  10.332 -0.0563  0.0251  0.0546
   58loPI    C2  914   2.267  12.986  10.141  0.0409 -0.0434  0.0370
   58loPI    C3  915   2.104  13.217  10.423 -0.0753 -0.0233 -0.0460
   58loPI   PO4  916   2.713  13.279  10.245 -0.0824 -0.1638  0.2480
   58loPI   GL1  917   2.831  13.447   9.946  0.0260  0.3063 -0.0871
   58loPI   GL2  918   3.037  13.656   9.954 -0.2210  0.4307 -0.0165
   58loPI   C1A  919   2.947  13.229   9.545 -0.1594  0.1921 -0.1014
   58loPI   C2A  920   3.011  13.501   9.095  0.0745 -0.1395 -0.1579
   58loPI   C3A  921   2.970  13.491   8.646  0.3389  0.2433  0.0442
   58loPI   C4A  922   2.967  13.517   8.187  0.1630 -0.2100 -0.3040
   58loPI   C5A  923   2.824  13.539   7.790  0.2111  0.1715  0.2027
   58loPI   C6A  924   2.629  13.722   7.393 -0.0828  0.0582 -0.0199
   58loPI   C1B  925   3.275  13.685   9.518 -0.4303  0.0951  0.0468
   58loPI   C2B  926   3.397  13.754   9.151  0.0128  0.0236  0.0238
   58loPI   C3B  927   3.395  13.728   8.725 -0.1703 -0.0358  0.2505
   58loPI   C4B  928   3.417  13.775   8.309  0.1491 -0.1606  0.2299
   59loPI    C1  929   8.110   5.025   9.758 -0.0774 -0.2743 -0.0386
   59loPI    C2  930   8.111   5.091  10.153 -0.2500 -0.0359 -0.0765
   59loPI    C3  931   7.794   5.196   9.933 -0.0238  0.1330 -0.3279
   59loPI   PO4  932   8.242   5.156   9.648 -0.0331 -0.0241  0.3483
   59loPI   GL1  933   8.182   5.304   9.260 -0.0035  0.0004 -0.3473
   59loPI   GL2  934   8.545   5.077   9.293 -0.1714 -0.0168 -0.0080
   59loPI   C1A  935   7.868   5.167   8.970  0.4423 -0.3316 -0.1342
   59loPI   C2A  936   7.870   4.951   8.531 -0.0284 -0.1238 -0.0059
   59loPI   C3A  937   8.122   4.882   8.168  0.1642 -0.5816 -0.2393
   59loPI   C4A  938   8.434   5.097   7.849  0.3389  0.2127 -0.1685
   59loPI   C5A  939   8.429   5.369   7.476 -0.0249  0.1231 -0.0740
   59loPI   C6A  940   8.599   5.671   7.162 -0.2196 -0.2085  0.0649
   59loPI   C1B  941   8.409   5.010   8.867 -0.1297 -0.2999  0.4498
   59loPI   C2B  942   8.490   5.158   8.539 -0.2038 -0.2541  0.2074
   59loPI   C3B  943   8.525   5.508   8.247 -0.2414 -0.0460  0.3492
   59loPI   C4B  944   8.662   5.641   7.849 -0.2141  0.3799  0.0779
   60loPI    C1  945   0.449  18.772  10.385  0.1935  0.1631  0.0514
   60loPI    C2  946   0.727  18.535  10.548  0.2065  0.2760  0.1956
   60loPI    C3  947   0.476  18.739  10.783 -0.0671  0.0952  0.0653
   60loPI   PO4  948   0.540  18.666  10.082  0.2582 -0.0787 -0.1772
   60loPI   GL1  949   0.563  18.619   9.637 -0.1259 -0.1747  0.1277
   60loPI   GL2  950   0.866  18.457   9.701  0.4374 -0.3217  0.0477
   60loPI   C1A  951   0.849  18.777   9.338  0.1035 -0.0356 -0.0033
   60loPI   C2A  952   0.992  18.800   8.997 -0.1312 -0.0298  0.0625
   60loPI   C3A  953   0.993  18.624   8.556 -0.5046  0.0137 -0.1883
   60loPI   C4A  954   1.338  18.587   8.154  0.4496  0.0704  0.2066
   60loPI   C5A  955   1.709  18.575   7.865  0.2585  0.0398  0.1269
   60loPI   C6A  956   2.001  18.338   7.704 -0.0716 -0.1263 -0.1018
   60loPI   C1B  957   1.120  18.332   9.303 -0.0024  0.2694 -0.2237
   60loPI   C2B  958   1.194  18.352   8.860 -0.2381  0.0928  0.0362
   60loPI   C3B  959   1.285  18.140   8.407  0.2291  0.1583 -0.0997
   60loPI   C4B  960   1.437  18.094   8.013 -0.0255  0.1519  0.3169
   61loPI    C1  961   1.931   3.292   9.850  0.0351  0.0605  0.0550
   61loPI    C2  962   1.914   2.906   9.952 -0.1734 -0.0039 -0.2128
   61loPI    C3  963   2.252   3.113  10.008 -0.0971 -0.1928  0.0404
   61loPI   PO4  964   1.845   3.322   9.574  0.2091 -0.0293 -0.3003
   61loPI   GL1  965   2.004   3.115   9.066 -0.2401 -0.1758 -0.3457
   61loPI   GL2  966   2.143   3.411   9.161 -0.0293  0.1902 -0.0595
   61loPI   C1A  967   1.924   3.024   8.686 -0.2175  0.1005 -0.1309
   61loPI   C2A  968   1.841   2.912   8.183  0.3476 -0.1068 -0.0087
   61loPI   C3A  969   1.751   2.963   7.735 -0.5569  0.2075  0.2032
   61loPI   C4A  970   1.540   3.079   7.433  0.0083  0.4363  0.2377
   61loPI   C5A  971   1.237   2.828   7.067 -0.1691 -0.0529 -0.2509
   61loPI   C6A  972   1.137   2.899   6.647 -0.4187 -0.0722  0.0568
   61loPI   C1B  973   2.139   3.467   8.721  0.4066  0.0840  0.3684
   61loPI   C2B  974   2.125   3.529   8.304  0.3573  0.3993  0.1189
   61loPI   C3B  975   2.064   3.591   7.833 -0.0181 -0.1834 -0.0974
   61loPI   C4B  976   2.080   3.657   7.464 -0.0096 -0.3025  0.0823
   62loPI    C1  977   3.444   2.265   9.669  0.0732 -0.0502  0.0802
   62loPI    C2  978   3.797   2.079   9.647  0.1931  0.1681  0.1225
   62loPI    C3  979   3.608   2.111   9.999  0.0597 -0.0750  0.0755
   62loPI   PO4  980   3.450   2.414   9.598 -0.0652 -0.1498 -0.0031
   62loPI   GL1  981   3.265   2.857   9.342  0.0578 -0.1880  0.0839
   62loPI   GL2  982   3.048   2.998   9.140  0.0952  0.2653  0.0027
   62loPI   C1A  983   3.381   2.701   8.935 -0.3076  0.0309  0.0521
   62loPI   C2A  984   3.193   2.850   8.455 -0.0624  0.1509 -0.4152
   62loPI   C3A  985   2.967   2.729   8.041  0.2051  0.0326 -0.3432
   62loPI   C4A  986   2.855   2.903   7.644  0.0568  0.1820  0.0439
   62loPI   C5A  987   2.957   3.013   7.213 -0.0068 -0.2578 -0.0696
   62loPI   C6A  988   3.028   3.330   7.072 -0.0936 -0.2496  0.0283
   62loPI   C1B  989   2.947   3.142   8.855  0.0075 -0.1475  0.0640
   62loPI   C2B  990   2.818   3.215   8.460 -0.1393 -0.2935 -0.0058
   62loPI   C3B  991   2.774   3.204   8.041  0.3263 -0.1394 -0.2457
   62loPI   C4B  992   2.563   3.568   7.937 -0.0857  0.1858 -0.0909
   63loPI    C1  993  12.593  17.477  10.197 -0.1531 -0.0432  0.0681
   63loPI    C2  994  12.762  17.118  10.252  0.0494  0.0165 -0.1468
   63loPI    C3  995  12.611  17.318  10.564  0.1508 -0.1493  0.0105
   63loPI   PO4  996  12.357  17.484   9.995  0.0857  0.2343  0.2259
   63loPI   GL1  997  12.314  17.348   9.638  0.3610 -0.1372  0.1201
   63loPI   GL2  998  12.077  17.252   9.486 -0.0454 -0.3803 -0.0742
   63loPI   C1A  999  12.514  17.369   9.212  0.1241  0.0195 -0.0528
   63loPI   C2A 1000  12.449  17.429   8.808 -0.0858 -0.0373 -0.0743
   63loPI   C3A 1001  12.672  17.240   8.441 -0.0479 -0.0109 -0.0944
   63loPI   C4A 1002  13.118  17.233   8.118 -0.2340 -0.1638  0.0056
   63loPI   C5A 1003  13.254  17.316   7.765  0.0045  0.0898  0.0895
   63loPI   C6A 1004  13.206  17.652   7.596  0.1602 -0.3248  0.0480
   63loPI   C1B 1005  12.162  17.663   9.160 -0.0109  0.1466 -0.3646
   63loPI   C2B 1006  12.292  18.079   9.171 -0.4152  0.2480 -0.2293
   63loPI   C3B 1007  12.083  18.484   9.052  0.0817 -0.0635 -0.0085
   63loPI   C4B 1008  11.941  18.917   9.077 -0.1980 -0.1868  0.3297
   64loPI    C1 1009   4.634   7.450   9.883 -0.2577  0.2109 -0.0820
   64loPI    C2 1010   4.392   7.499  10.198 -0.2577 -0.1035 -0.0291
   64loPI    C3 1011   4.567   7.146  10.134  0.3331  0.1659  0.0355
   64loPI   PO4 1012   4.393   7.586   9.650 -0.0571  0.2367  0.1475
   64loPI   GL1 1013   4.222   7.787   9.375 -0.2081 -0.1723 -0.2775
   64loPI   GL2 1014   4.005   7.908   9.347 -0.0772 -0.0494 -0.2626
   64loPI   C1A 1015   4.326   7.881   8.991  0.7418 -0.2223  0.0442
   64loPI   C2A 1016   4.218   7.826   8.621 -0.0942  0.0752 -0.0747
   64loPI   C3A 1017   4.211   7.994   8.263  0.0244 -0.0225 -0.2283
   64loPI   C4A 1018   4.378   8.237   8.040  0.1144 -0.2058 -0.1797
   64loPI   C5A 1019   4.704   8.379   7.739 -0.2248  0.0711 -0.1705
   64loPI   C6A 1020   4.861   8.459   7.292  0.5269 -0.2162  0.1484
   64loPI   C1B 1021   3.833   7.838   9.006 -0.0933 -0.0105  0.0515
   64loPI   C2B 1022   3.688   7.970   8.610  0.0575 -0.1239 -0.1025
   64loPI   C3B 1023   3.662   7.871   8.115 -0.1643  0.0618  0.0464
   64loPI   C4B 1024   3.936   8.064   7.813  0.0738  0.0367  0.3916
   65loPI    C1 1025   8.519   8.702  10.117 -0.1014 -0.0609 -0.1909
   65loPI    C2 1026   8.204   8.539  10.302 -0.1312  0.1527 -0.0501
   65loPI    C3 1027   8.152   8.851  10.057 -0.0592  0.0325 -0.2199
   65loPI   PO4 1028   8.706   8.400  10.082 -0.2096  0.0519  0.1873
   65loPI   GL1 1029   8.596   8.249   9.661 -0.1978 -0.2253  0.2492
   65loPI   GL2 1030   8.690   8.041   9.617 -0.0705 -0.0442 -0.1813
   65loPI   C1A 1031   8.532   8.437   9.256  0.0256  0.0257 -0.0596
   65loPI   C2A 1032   8.548   8.457   8.831 -0.2446  0.0116  0.5280
   65loPI   C3A 1033   8.731   8.196   8.462  0.1176  0.2434  0.0117
   65loPI   C4A 1034   8.706   8.048   8.030  0.1037 -0.0546 -0.2196
   65loPI   C5A 1035   8.667   7.917   7.608  0.3153  0.1482  0.0120
   65loPI   C6A 1036   8.338   7.872   7.355  0.1501  0.2600  0.1344
   65loPI   C1B 1037   8.410   7.903   9.250  0.0303 -0.0234 -0.1288
   65loPI   C2B 1038   8.314   7.889   8.826 -0.2464 -0.0351  0.1282
   65loPI   C3B 1039   8.233   7.980   8.358  0.1458  0.5591 -0.1651
   65loPI   C4B 1040   8.266   8.380   8.303 -0.1215  0.1203  0.1288
   66loPI    C1 1041   6.477   9.194  10.038 -0.0466  0.0342 -0.0538
   66loPI    C2 1042   6.464   8.873  10.276  0.0405  0.0046 -0.0884
   66loPI    C3 1043   6.704   9.180  10.367 -0.0602  0.0703 -0.0428
   66loPI   PO4 1044   6.522   9.095   9.770  0.0556 -0.0157 -0.0223
   66loPI   GL1 1045   6.409   9.000   9.465 -0.0122  0.1760 -0.0239
   66loPI   GL2 1046   6.771   8.892   9.382 -0.1056  0.1810  0.1079
   66loPI   C1A 1047   6.325   8.980   9.099 -0.1244 -0.2326  0.1193
   66loPI   C2A 1048   6.141   8.841   8.703  0.2467  0.0168 -0.0531
   66loPI   C3A 1049   5.974   8.795   8.269 -0.3006  0.0117 -0.1618
   66loPI   C4A 1050   6.204   8.538   7.886 -0.3155 -0.3155 -0.1979
   66loPI   C5A 1051   6.284   8.623   7.491 -0.1999 -0.1652 -0.3450
   66loPI   C6A 1052   6.014   8.836   7.341  0.0423 -0.2046  0.1464
   66loPI   C1B 1053   6.770   9.190   8.960  0.0942  0.0122 -0.0979
   66loPI   C2B 1054   6.821   9.421   8.535  0.2269  0.0667  0.0746
   66loPI   C3B 1055   6.871   9.835   8.385 -0.0153 -0.0363  0.0333
   66loPI   C4B 1056   6.914  10.084   7.981  0.4503  0.4608 -0.1667
   67loPI    C1 1057   4.315   2.268   9.749  0.1367  0.0871  0.0371
   67loPI    C2 1058   4.668   2.449   9.696  0.1198  0.0991 -0.0353
   67loPI    C3 1059   4.370   2.642   9.879  0.1077  0.1382 -0.0959
   67loPI   PO4 1060   4.256   2.208   9.524 -0.2228  0.2032  0.1687
   67loPI   GL1 1061   4.113   1.956   9.278  0.3825 -0.0777 -0.0524
   67loPI   GL2 1062   3.843   1.805   9.109  0.0474  0.1351  0.2963
   67loPI   C1A 1063   4.311   2.390   8.931  0.1924 -0.0770 -0.1894
   67loPI   C2A 1064   4.537   2.867   8.823 -0.4969  0.0519 -0.1563
   67loPI   C3A 1065   4.524   3.124   8.593 -0.0361 -0.0181 -0.0236
   67loPI   C4A 1066   4.372   3.329   8.249 -0.1721  0.3331  0.2836
   67loPI   C5A 1067   4.267   3.480   7.885 -0.0273  0.0472 -0.0655
   67loPI   C6A 1068   4.081   3.361   7.511 -0.1948 -0.0536 -0.2987
   67loPI   C1B 1069   3.975   2.035   8.817 -0.2975 -0.2963  0.0360
   67loPI   C2B 1070   3.882   1.748   8.470 -0.0057  0.1119 -0.1168
   67loPI   C3B 1071   3.644   1.599   8.162 -0.0425  0.3039 -0.4645
   67loPI   C4B 1072   3.330   1.332   8.147  0.0919  0.0892  0.0843
   68loPI    C1 1073   4.496   7.990  10.311  0.0603 -0.0744  0.2469
   68loPI    C2 1074   4.099   7.938  10.307  0.0340  0.1176 -0.1578
   68loPI    C3 1075   4.319   7.774  10.598 -0.3309 -0.0561  0.0276
   68loPI   PO4 1076   4.518   7.957   9.991  0.0228  0.0842 -0.0975
   68loPI   GL1 1077   4.737   7.933   9.571  0.2763 -0.1327  0.0814
   68loPI   GL2 1078   4.567   8.118   9.463  0.1262  0.0276  0.1117
   68loPI   C1A 1079   4.778   7.693   9.160  0.0378  0.0066  0.0202
   68loPI   C2A 1080   4.662   7.559   8.831  0.1835 -0.4215  0.1430
   68loPI   C3A 1081   4.939   7.337   8.481  0.1949  0.1406  0.0616
   68loPI   C4A 1082   5.059   7.424   8.028  0.2246  0.0179  0.0036
   68loPI   C5A 1083   4.983   7.354   7.628 -0.1466  0.0112 -0.0469
   68loPI   C6A 1084   4.775   7.148   7.376  0.0136 -0.0605 -0.0345
   68loPI   C1B 1085   4.730   8.137   9.032  0.3440  0.1191 -0.0262
   68loPI   C2B 1086   4.870   8.016   8.621 -0.2053 -0.0772  0.2962
   68loPI   C3B 1087   5.046   8.158   8.089 -0.0222  0.1800  0.0370
   68loPI   C4B 1088   5.264   8.389   7.699  0.4299  0.1840 -0.1126
   69loPI    C1 1089   5.880  11.440   9.831 -0.1382  0.0279  0.0524
   69loPI    C2 1090   5.928  11.337  10.215  0.0839 -0.3296 -0.0666
   69loPI    C3 1091   6.077  11.683  10.081 -0.2126 -0.0845  0.2221
   69loPI   PO4 1092   5.937  11.208   9.677 -0.4432  0.0924  0.2228
   69loPI   GL1 1093   5.898  11.189   9.324  0.3321 -0.0452 -0.5236
   69loPI   GL2 1094   6.132  11.403   9.184 -0.1558  0.2184  0.0818
   69loPI   C1A 1095   5.622  11.182   8.937 -0.1608  0.1355  0.1648
   69loPI   C2A 1096   5.358  11.353   8.609 -0.2676  0.1604  0.2641
   69loPI   C3A 1097   5.404  11.508   8.164  0.3369 -0.1903  0.2559
   69loPI   C4A 1098   5.440  11.296   7.785 -0.1087  0.0703 -0.1530
   69loPI   C5A 1099   5.628  10.950   7.625  0.1422  0.0826  0.3383
   69loPI   C6A 1100   5.537  10.482   7.770  0.3698  0.1768 -0.0386
   69loPI   C1B 1101   6.060  11.037   8.905 -0.0812 -0.1819  0.1316
   69loPI   C2B 1102   6.032  10.713   8.667  0.0601  0.0015 -0.1566
   69loPI   C3B 1103   6.288  10.507   8.420 -0.0087  0.1509 -0.1186
   69loPI   C4B 1104   6.424  10.130   8.392  0.1589  0.1886  0.1098
   70loPI    C1 1105  15.676   6.307  10.101 -0.0479  0.1407  0.0124
   70loPI    C2 1106  16.039   6.293  10.270 -0.0744  0.1789  0.0725
   70loPI    C3 1107  15.753   6.039  10.388  0.0010 -0.0050 -0.1353
   70loPI   PO4 1108  15.797   6.381   9.810  0.0456 -0.0641  0.2000
   70loPI   GL1 1109  15.753   6.391   9.346 -0.1037  0.2420 -0.1911
   70loPI   GL2 1110  15.603   6.615   9.429  0.2226 -0.2070  0.2137
   70loPI   C1A 1111  15.468   6.174   9.120 -0.1853  0.0096  0.0491
   70loPI   C2A 1112  15.523   5.884   8.766 -0.2409  0.2144  0.0297
   70loPI   C3A 1113  15.692   5.874   8.314 -0.1535 -0.0791  0.1661
   70loPI   C4A 1114  15.701   5.994   7.889  0.0294 -0.1081 -0.0102
   70loPI   C5A 1115  15.867   5.840   7.498  0.1989  0.0965 -0.0308
   70loPI   C6A 1116  16.038   5.906   7.140 -0.3870 -0.4050 -0.2469
   70loPI   C1B 1117  15.453   6.623   8.949 -0.1036 -0.2100  0.0005
   70loPI   C2B 1118  15.600   6.376   8.611  0.0316  0.0176  0.2742
   70loPI   C3B 1119  15.598   6.384   8.223 -0.0405 -0.0395 -0.0454
   70loPI   C4B 1120  15.571   6.447   7.831 -0.3734 -0.1286 -0.0135
   71loPI    C1 1121  11.593   1.915  10.419 -0.0994 -0.2328 -0.1303
   71loPI    C2 1122  11.811   1.902  10.754  0.0950 -0.0845 -0.2485
   71loPI    C3 1123  11.509   1.645  10.702  0.0447 -0.0903  0.0516
   71loPI   PO4 1124  11.756   1.870  10.186 -0.1242 -0.1876  0.0463
   71loPI   GL1 1125  11.763   2.079   9.861 -0.2485  0.2760 -0.1591
   71loPI   GL2 1126  12.120   1.925   9.642 -0.0932 -0.1060  0.1902
   71loPI   C1A 1127  11.459   1.991   9.501 -0.2527 -0.0361  0.3472
   71loPI   C2A 1128  11.443   1.756   9.093  0.0331  0.0776 -0.0452
   71loPI   C3A 1129  11.468   1.588   8.602  0.0963  0.1058 -0.5550
   71loPI   C4A 1130  11.230   1.428   8.311  0.0324  0.5027  0.1214
   71loPI   C5A 1131  11.243   1.485   7.858 -0.0546  0.1264  0.0648
   71loPI   C6A 1132  11.557   1.548   7.620  0.4439  0.1660 -0.2669
   71loPI   C1B 1133  12.384   2.289   9.398 -0.0716  0.1481 -0.0261
   71loPI   C2B 1134  12.566   2.245   8.925  0.1646  0.1081  0.1851
   71loPI   C3B 1135  12.863   2.149   8.595  0.0028  0.0253 -0.0295
   71loPI   C4B 1136  13.253   2.222   8.276  0.2840  0.1043 -0.0728
   72loPI    C1 1137   6.345  17.063  10.375 -0.0399 -0.1855 -0.1756
   72loPI    C2 1138   6.078  16.880  10.610 -0.0722  0.0932  0.0082
   72loPI    C3 1139   6.443  16.966  10.750 -0.0320  0.1029 -0.1013
   72loPI   PO4 1140   6.347  16.999  10.110 -0.1759 -0.0864 -0.0243
   72loPI   GL1 1141   6.267  17.010   9.618 -0.0022  0.0376 -0.4214
   72loPI   GL2 1142   5.987  17.034   9.810 -0.2227 -0.1701 -0.3429
   72loPI   C1A 1143   6.295  16.862   9.231  0.0852  0.2464 -0.2854
   72loPI   C2A 1144   6.298  16.931   8.839  0.3353 -0.0875 -0.1049
   72loPI   C3A 1145   6.296  16.970   8.389 -0.2182 -0.3488  0.0529
   72loPI   C4A 1146   6.385  16.966   7.973 -0.1774  0.2770 -0.0423
   72loPI   C5A 1147   6.559  17.143   7.563  0.1967  0.0313  0.0636
   72loPI   C6A 1148   6.801  17.122   7.194 -0.2097 -0.2550 -0.1562
   72loPI   C1B 1149   5.786  17.096   9.403  0.0445  0.1069  0.1850
   72loPI   C2B 1150   5.871  17.121   8.962  0.3868  0.0052  0.2055
   72loPI   C3B 1151   5.871  17.248   8.540  0.0302  0.0483 -0.1884
   72loPI   C4B 1152   5.951  17.238   8.061  0.1913 -0.2391 -0.2551
   73loPI    C1 1153   0.189   4.942   9.497  0.2454 -0.0066 -0.0240
   73loPI    C2 1154   0.198   5.341   9.519  0.2528 -0.0091  0.0202
   73loPI    C3 1155   0.046   5.128   9.821 -0.0702 -0.0250 -0.1489
   73loPI   PO4 1156   0.412   4.861   9.430  0.0460 -0.2341  0.1819
   73loPI   GL1 1157   0.499   5.003   9.029  0.0315  0.0410 -0.2083
   73loPI   GL2 1158   0.635   4.757   8.959  0.0202 -0.0722 -0.2724
   73loPI   C1A 1159   0.548   5.115   8.589  0.3848  0.2575  0.2540
   73loPI   C2A 1160   0.444   5.155   8.050 -0.2379 -0.0264 -0.0757
   73loPI   C3A 1161   0.439   5.060   7.670  0.1497 -0.1588 -0.1247
   73loPI   C4A 1162   0.298   4.831   7.254  0.2498 -0.1492 -0.2828
   73loPI   C5A 1163   0.030   4.721   6.915  0.0877  0.0345 -0.0638
   73loPI   C6A 1164   0.055   4.810   6.500  0.0384 -0.1483  0.1742
   73loPI   C1B 1165   0.806   4.543   8.603  0.2040 -0.2237 -0.2683
   73loPI   C2B 1166   0.727   4.569   8.287 -0.2009 -0.1105  0.0304
   73loPI   C3B 1167   0.881   4.560   7.839 -0.1422  0.2006  0.1038
   73loPI   C4B 1168   1.036   4.402   7.444  0.2142  0.4726 -0.0310
   74loPI    C1 1169   7.714  19.036   9.988  0.0192  0.0096  0.0214
   74loPI    C2 1170   7.643  19.053  10.382  0.1273 -0.2509  0.0542
   74loPI    C3 1171   8.011  19.123  10.241  0.1069 -0.2390  0.0066
   74loPI   PO4 1172   7.643  18.818   9.872  0.1005 -0.0837  0.0430
   74loPI   GL1 1173   7.253  18.789   9.687  0.2147 -0.1901  0.1591
   74loPI   GL2 1174   7.100  18.816   9.430 -0.1336  0.0189  0.1476
   74loPI   C1A 1175   7.659  18.664   9.314 -0.1087  0.0185  0.3575
   74loPI   C2A 1176   7.662  18.559   8.917  0.1201 -0.1442  0.2437
   74loPI   C3A 1177   7.663  18.418   8.407 -0.1366  0.3592  0.0039
   74loPI   C4A 1178   7.455  18.292   8.049 -0.2933 -0.2404 -0.2753
   74loPI   C5A 1179   7.590  18.506   7.696  0.0214 -0.0858 -0.2624
   74loPI   C6A 1180   7.847  18.515   7.355  0.0813 -0.1856 -0.1608
   74loPI   C1B 1181   7.412  19.114   9.149 -0.3294 -0.2716  0.2846
   74loPI   C2B 1182   7.454  18.979   8.750  0.0902 -0.1458  0.0839
   74loPI   C3B 1183   7.494  18.914   8.268 -0.1959  0.2116  0.0005
   74loPI   C4B 1184   7.759  19.032   7.845  0.0939 -0.0670  0.2542
   75loPI    C1 1185  18.338   4.493   9.638  0.2184 -0.1069 -0.2974
   75loPI    C2 1186  18.251   4.769   9.361 -0.0814  0.2003  0.0902
   75loPI    C3 1187  18.326   4.880   9.738  0.0667 -0.2319  0.1944
   75loPI   PO4 1188  18.216   4.332   9.572 -0.3093  0.2158  0.1186
   75loPI   GL1 1189  18.134   4.246   9.181 -0.0623 -0.1898 -0.4459
   75loPI   GL2 1190  18.441   4.299   9.098  0.0051 -0.3975 -0.0663
   75loPI   C1A 1191  17.914   4.070   8.804 -0.0314  0.0354 -0.0284
   75loPI   C2A 1192  17.761   3.845   8.488  0.1018  0.1646 -0.4386
   75loPI   C3A 1193  17.828   3.420   8.266 -0.0846 -0.2001 -0.0501
   75loPI   C4A 1194  17.773   2.998   8.040  0.0682 -0.1086 -0.2771
   75loPI   C5A 1195  17.915   2.775   7.718  0.1340 -0.0727  0.2832
   75loPI   C6A 1196  18.306   2.468   7.707 -0.0190 -0.1393  0.4916
   75loPI   C1B 1197  18.350   4.404   8.714  0.1023  0.1088 -0.0641
   75loPI   C2B 1198  18.306   4.676   8.256  0.0194  0.2987 -0.5705
   75loPI   C3B 1199  18.033   4.490   7.845 -0.1421 -0.1708 -0.0768
   75loPI   C4B 1200  17.960   4.647   7.419 -0.1472  0.0220  0.0530
   76loPI    C1 1201   7.366  14.456  10.195  0.1240  0.0134 -0.0518
   76loPI    C2 1202   7.628  14.573  10.473  0.0482  0.0217  0.0167
   76loPI    C3 1203   7.250  14.491  10.576  0.0286 -0.0089 -0.0782
   76loPI   PO4 1204   7.413  14.619   9.999 -0.2011  0.1690  0.0648
   76loPI   GL1 1205   7.302  14.538   9.690  0.1947  0.1858 -0.0249
   76loPI   GL2 1206   6.943  14.436   9.688  0.1235  0.1461  0.1335
   76loPI   C1A 1207   7.556  14.375   9.259 -0.0920 -0.1040 -0.0543
   76loPI   C2A 1208   7.774  14.621   8.977  0.0528 -0.0152  0.0566
   76loPI   C3A 1209   7.740  14.626   8.607  0.1524 -0.2138  0.0576
   76loPI   C4A 1210   7.716  14.607   8.172  0.2028 -0.2086 -0.1555
   76loPI   C5A 1211   7.562  14.570   7.676 -0.0880 -0.1605  0.3015
   76loPI   C6A 1212   7.818  14.771   7.316 -0.0201 -0.2541 -0.1600
   76loPI   C1B 1213   7.012  14.643   9.272 -0.2512 -0.1996 -0.0720
   76loPI   C2B 1214   6.872  14.767   8.843 -0.2023  0.0906 -0.0454
   76loPI   C3B 1215   6.890  14.661   8.422 -0.3932  0.2748 -0.0933
   76loPI   C4B 1216   7.034  14.613   7.993 -0.1359  0.2523  0.3607
   77loPI    C1 1217  17.595  16.285  10.409 -0.1643  0.0293 -0.0861
   77loPI    C2 1218  17.426  15.937  10.508 -0.0207 -0.0773 -0.2105
   77loPI    C3 1219  17.701  16.101  10.748  0.1086 -0.1856 -0.2829
   77loPI   PO4 1220  17.534  16.301  10.160  0.3246  0.3871 -0.2208
   77loPI   GL1 1221  17.452  16.473   9.773  0.2174  0.0499  0.2628
   77loPI   GL2 1222  17.115  16.698   9.752 -0.2021  0.0012  0.0106
   77loPI   C1A 1223  17.431  16.294   9.425 -0.1840  0.1942  0.0403
   77loPI   C2A 1224  17.437  16.399   9.001  0.0484  0.0883 -0.2606
   77loPI   C3A 1225  17.587  16.571   8.641 -0.0625 -0.0588  0.2613
   77loPI   C4A 1226  17.807  16.880   8.293 -0.1902  0.0879  0.4179
   77loPI   C5A 1227  17.653  16.951   7.879 -0.2860  0.1665 -0.0431
   77loPI   C6A 1228  17.519  17.075   7.517  0.0179 -0.0729  0.1770
   77loPI   C1B 1229  17.211  16.757   9.337 -0.0362  0.2129 -0.0422
   77loPI   C2B 1230  17.194  17.029   8.927 -0.2228  0.1940  0.0062
   77loPI   C3B 1231  17.009  17.424   8.706 -0.0219 -0.1693 -0.1089
   77loPI   C4B 1232  16.840  17.730   8.356  0.0184 -0.2262 -0.0806
   78loPI    C1 1233  12.171   0.100  10.243  0.2683 -0.1121 -0.0084
   78loPI    C2 1234  11.871   0.325  10.384  0.1664 -0.2602  0.0128
   78loPI    C3 1235  12.185   0.498  10.206  0.1617 -0.0911  0.1673
   78loPI   PO4 1236  12.080  -0.121  10.145  0.1694 -0.2179 -0.3836
   78loPI   GL1 1237  12.008  -0.193   9.734 -0.0781 -0.0832 -0.3651
   78loPI   GL2 1238  12.251  -0.350   9.568 -0.0678  0.0662 -0.2605
   78loPI   C1A 1239  11.915   0.152   9.436 -0.1240  0.0317 -0.1368
   78loPI   C2A 1240  12.080   0.305   9.059  0.3405 -0.3296  0.0164
   78loPI   C3A 1241  12.227   0.055   8.786  0.1505  0.1046 -0.2630
   78loPI   C4A 1242  12.241  -0.447   8.651 -0.0281  0.0371 -0.0122
   78loPI   C5A 1243  12.096  -0.939   8.571  0.1573 -0.1750 -0.1761
   78loPI   C6A 1244  12.239  -1.381   8.416 -0.3165 -0.1891  0.2077
   78loPI   C1B 1245  12.451   0.145   9.422 -0.3321  0.0293 -0.2972
   78loPI   C2B 1246  12.632   0.126   9.096 -0.0044  0.1979 -0.1992
   78loPI   C3B 1247  12.728   0.311   8.713  0.1972 -0.0111 -0.2977
   78loPI   C4B 1248  12.882   0.516   8.373 -0.0197  0.0066  0.0642
   79loPI    C1 1249   5.854   2.571   9.781  0.2036 -0.2613 -0.0679
   79loPI    C2 1250   6.117   2.621  10.079 -0.0977  0.0953  0.1474
   79loPI    C3 1251   5.736   2.531  10.162 -0.1350 -0.0273 -0.1441
   79loPI   PO4 1252   5.931   2.763   9.598 -0.0063 -0.2672 -0.0595
   79loPI   GL1 1253   5.969   3.075   9.337 -0.2278 -0.0859  0.3677
   79loPI   GL2 1254   6.242   3.162   9.235  0.1337  0.0042  0.1376
   79loPI   C1A 1255   5.967   2.898   8.889  0.2562 -0.2056  0.3496
   79loPI   C2A 1256   6.101   2.682   8.553 -0.0734 -0.0325 -0.0245
   79loPI   C3A 1257   6.008   2.653   8.302  0.6902 -0.0739 -0.1270
   79loPI   C4A 1258   5.918   2.658   7.801 -0.0035 -0.4942 -0.2526
   79loPI   C5A 1259   6.095   2.424   7.377 -0.2124  0.1341  0.0917
   79loPI   C6A 1260   6.099   2.545   6.936  0.1014  0.1132  0.2148
   79loPI   C1B 1261   6.309   3.228   8.756 -0.0710 -0.3165  0.0746
   79loPI   C2B 1262   6.301   3.082   8.323  0.0787  0.1972 -0.1084
   79loPI   C3B 1263   6.492   2.934   7.860  0.1070  0.1281  0.0988
   79loPI   C4B 1264   6.386   2.822   7.502 -0.0559  0.1653  0.0887
   80loPI    C1 1265  15.055  13.070   9.755  0.0378  0.0955  0.0916
   80loPI    C2 1266  15.216  12.857  10.053  0.1878  0.0194 -0.0414
   80loPI    C3 1267  15.247  13.256  10.052  0.1251  0.0252  0.0796
   80loPI   PO4 1268  15.088  12.999   9.602  0.1311 -0.0206 -0.1807
   80loPI   GL1 1269  15.046  12.739   9.270  0.2965 -0.0387 -0.1832
   80loPI   GL2 1270  14.762  12.626   9.324 -0.0812 -0.1138  0.1833
   80loPI   C1A 1271  15.027  12.581   8.886  0.2650 -0.0396  0.1759
   80loPI   C2A 1272  15.123  12.836   8.476  0.0508  0.0411 -0.2185
   80loPI   C3A 1273  14.905  13.075   8.125  0.1620  0.2604 -0.3445
   80loPI   C4A 1274  14.874  12.904   7.696  0.0286  0.3046 -0.1088
   80loPI   C5A 1275  14.572  12.802   7.421  0.2729 -0.0392  0.0586
   80loPI   C6A 1276  14.334  12.636   7.155  0.0600  0.2034  0.4405
   80loPI   C1B 1277  14.541  12.384   8.892  0.1086 -0.1072 -0.0118
   80loPI   C2B 1278  14.489  12.152   8.585 -0.0692  0.2289  0.3686
   80loPI   C3B 1279  14.232  12.077   8.234 -0.0747 -0.0159 -0.0455
   80loPI   C4B 1280  14.223  12.098   7.787  0.0005  0.0806 -0.3651
   81loPI    C1 1281   0.271  11.262  10.099  0.0538  0.0284  0.2118
   81loPI    C2 1282   0.197  11.465  10.436 -0.3242 -0.1456  0.2388
   81loPI    C3 1283   0.234  11.067  10.447 -0.0230 -0.1238  0.1193
   81loPI   PO4 1284   0.342  11.447   9.940 -0.1479 -0.0842 -0.1478
   81loPI   GL1 1285   0.392  11.595   9.521 -0.1099  0.0201 -0.1602
   81loPI   GL2 1286   0.654  11.588   9.635 -0.0117  0.1611  0.3192
   81loPI   C1A 1287   0.211  11.982   9.387 -0.0688 -0.2546  0.1107
   81loPI   C2A 1288   0.372  12.183   9.147 -0.0425 -0.1633 -0.4853
   81loPI   C3A 1289   0.455  12.242   8.753 -0.0478  0.0092 -0.2893
   81loPI   C4A 1290   0.409  12.362   8.272 -0.0458  0.2488  0.2209
   81loPI   C5A 1291   0.396  12.640   7.960  0.0195  0.1821  0.0617
   81loPI   C6A 1292   0.644  12.827   7.603  0.3844 -0.2445 -0.3818
   81loPI   C1B 1293   0.884  11.560   9.261  0.1291 -0.1946  0.0515
   81loPI   C2B 1294   0.883  11.602   8.899 -0.6064 -0.3883 -0.0530
   81loPI   C3B 1295   0.992  11.413   8.587  0.3121 -0.1601 -0.0395
   81loPI   C4B 1296   0.799  11.353   8.173 -0.0403  0.0800 -0.1556
   82loPI    C1 1297   0.527   5.721   9.804  0.0262  0.1454 -0.0938
   82loPI    C2 1298   0.247   5.929   9.999 -0.1313  0.0075 -0.1705
   82loPI    C3 1299   0.277   5.534  10.054 -0.0061  0.0089 -0.2265
   82loPI   PO4 1300   0.502   5.738   9.572  0.0322  0.0000 -0.2702
   82loPI   GL1 1301   0.466   5.509   9.085  0.2318  0.0615 -0.2613
   82loPI   GL2 1302   0.147   5.737   9.121 -0.1102 -0.0158  0.1652
   82loPI   C1A 1303   0.603   5.640   8.620 -0.0599  0.0389 -0.0365
   82loPI   C2A 1304   0.363   5.639   8.246  0.0191 -0.0204  0.4347
   82loPI   C3A 1305   0.152   5.513   7.793  0.0129 -0.1406  0.1059
   82loPI   C4A 1306  -0.029   5.213   7.414 -0.0608 -0.2585 -0.0586
   82loPI   C5A 1307  -0.294   5.122   7.069  0.1546  0.1237 -0.1560
   82loPI   C6A 1308  -0.364   4.946   6.730 -0.0062  0.0151  0.2102
   82loPI   C1B 1309  -0.030   5.627   8.591 -0.2930 -0.0462 -0.1035
   82loPI   C2B 1310  -0.161   5.725   8.210 -0.0737  0.2329  0.5614
   82loPI   C3B 1311  -0.487   5.651   7.943 -0.0971  0.2392 -0.0279
   82loPI   C4B 1312  -0.664   5.898   7.574  0.0431 -0.0627 -0.1992
   83loPI    C1 1313  10.358   0.741  10.499 -0.0903 -0.2160 -0.0142
   83loPI    C2 1314  10.133   0.662  10.821 -0.1344  0.1169  0.0399
   83loPI    C3 1315  10.287   1.028  10.768  0.2187 -0.0481 -0.1075
   83loPI   PO4 1316  10.251   0.574  10.333 -0.1896  0.1775 -0.3091
   83loPI   GL1 1317  10.317   0.445   9.984  0.0524  0.2970 -0.0173
   83loPI   GL2 1318  10.596   0.483   9.800 -0.1781  0.0172  0.0198
   83loPI   C1A 1319  10.150   0.314   9.573  0.2469 -0.3710  0.1264
   83loPI   C2A 1320  10.243   0.388   9.231 -0.1620 -0.1665  0.2047
   83loPI   C3A 1321  10.357   0.229   8.819  0.1151 -0.2187  0.3999
   83loPI   C4A 1322  10.369   0.131   8.447 -0.1912  0.0013 -0.0166
   83loPI   C5A 1323  10.523   0.324   8.013  0.1462 -0.3916 -0.2857
   83loPI   C6A 1324  10.545   0.110   7.722 -0.2967  0.3537  0.0570
   83loPI   C1B 1325  10.672   0.610   9.342  0.1074 -0.0824 -0.2974
   83loPI   C2B 1326  10.684   0.645   8.881  0.0807  0.4987  0.3055
   83loPI   C3B 1327  10.833   0.524   8.495  0.0651 -0.1464  0.1545
   83loPI   C4B 1328  10.958   0.544   8.090 -0.3402 -0.1667  0.0096
   84loPI    C1 1329   3.362  15.646  10.582 -0.2880  0.3338  0.1406
   84loPI    C2 1330   3.580  15.470  10.867 -0.0553  0.0483 -0.2050
   84loPI    C3 1331   3.182  15.492  10.905 -0.0304 -0.0081  0.1268
   84loPI   PO4 1332   3.336  15.574  10.338  0.0581 -0.0639 -0.1022
   84loPI   GL1 1333   3.445  15.664   9.990  0.0524  0.1256 -0.1338
   84loPI   GL2 1334   3.349  15.987   9.894  0.0086  0.2572  0.1402
   84loPI   C1A 1335   3.405  15.396   9.681  0.2801  0.3171 -0.2839
   84loPI   C2A 1336   3.329  15.319   9.250 -0.1735 -0.0124 -0.0162
   84loPI   C3A 1337   3.235  15.204   8.836  0.0543  0.2135  0.0258
   84loPI   C4A 1338   3.238  15.321   8.399  0.1442 -0.1487  0.1008
   84loPI   C5A 1339   3.209  15.196   7.903 -0.2406  0.0729  0.2195
   84loPI   C6A 1340   2.893  15.241   7.492 -0.0575  0.2353 -0.1006
   84loPI   C1B 1341   3.033  16.250   9.612  0.0393  0.0283  0.5025
   84loPI   C2B 1342   3.165  16.283   9.188 -0.2209  0.0603 -0.1514
   84loPI   C3B 1343   3.201  16.417   8.791  0.0041  0.0295 -0.2367
   84loPI   C4B 1344   3.204  16.365   8.404 -0.2019 -0.2114 -0.0386
   85loPI    C1 1345   2.749   0.101   9.617  0.1571 -0.2729 -0.0437
   85loPI    C2 1346   2.392  -0.079   9.603  0.0156  0.0067 -0.0992
   85loPI    C3 1347   2.608  -0.090   9.939 -0.1640  0.0599  0.0190
   85loPI   PO4 1348   2.890  -0.058   9.457 -0.0236  0.3265 -0.1225
   85loPI   GL1 1349   2.984   0.047   9.198 -0.3202  0.0474  0.1609
   85loPI   GL2 1350   2.818   0.330   9.111 -0.0261  0.1221 -0.1340
   85loPI   C1A 1351   3.036  -0.151   8.836 -0.3728 -0.0620 -0.0350
   85loPI   C2A 1352   2.984  -0.132   8.380 -0.0188  0.1622 -0.2034
   85loPI   C3A 1353   2.832  -0.283   8.005 -0.0930  0.1400 -0.1150
   85loPI   C4A 1354   2.929  -0.445   7.551  0.2552  0.0078 -0.0560
   85loPI   C5A 1355   3.084  -0.852   7.327 -0.2023 -0.1099  0.0881
   85loPI   C6A 1356   2.855  -1.026   6.965 -0.1182 -0.0233  0.2415
   85loPI   C1B 1357   3.043   0.356   8.800  0.0024 -0.2217  0.0831
   85loPI   C2B 1358   3.150   0.303   8.419 -0.1467  0.1325 -0.1905
   85loPI   C3B 1359   3.350   0.250   7.957  0.0424  0.1300 -0.3674
   85loPI   C4B 1360   3.460   0.344   7.546 -0.0288  0.0919  0.0881
   86loPI    C1 1361   4.194  11.663  10.481 -0.1498  0.0212 -0.1024
   86loPI    C2 1362   3.992  12.004  10.532  0.0715  0.1020  0.2722
   86loPI    C3 1363   4.031  11.747  10.836 -0.0605 -0.2435  0.0040
   86loPI   PO4 1364   3.961  11.568  10.220  0.2441  0.3142  0.0754
   86loPI   GL1 1365   3.868  11.867   9.907 -0.0426 -0.0305 -0.0531
   86loPI   GL2 1366   4.265  11.872   9.920 -0.1847  0.4147  0.1653
   86loPI   C1A 1367   3.670  11.603   9.561  0.1791  0.3599 -0.1674
   86loPI   C2A 1368   3.671  11.621   9.079  0.2025 -0.2352 -0.0969
   86loPI   C3A 1369   3.540  11.648   8.691 -0.1144 -0.0330 -0.1017
   86loPI   C4A 1370   3.595  11.720   8.266 -0.2422 -0.2203 -0.3022
   86loPI   C5A 1371   3.589  11.812   7.835 -0.4258  0.2549 -0.0094
   86loPI   C6A 1372   3.910  11.775   7.472 -0.2045  0.0039  0.1316
   86loPI   C1B 1373   4.105  11.912   9.354 -0.0863  0.0231  0.0210
   86loPI   C2B 1374   4.047  11.931   8.968  0.2098 -0.0551 -0.2020
   86loPI   C3B 1375   3.956  12.062   8.584 -0.0005 -0.0709 -0.0006
   86loPI   C4B 1376   3.977  12.079   8.192  0.1900  0.2464  0.0996
   87loPI    C1 1377  17.658  14.328   9.605 -0.0942  0.0019  0.0127
   87loPI    C2 1378  17.467  13.978   9.643 -0.2861  0.0834 -0.1828
   87loPI    C3 1379  17.357  14.292   9.866 -0.0687  0.0034  0.0426
   87loPI   PO4 1380  17.893  14.194   9.444  0.2075  0.1360  0.0819
   87loPI   GL1 1381  17.849  13.893   9.068 -0.1340  0.0427 -0.0961
   87loPI   GL2 1382  17.433  13.993   9.004 -0.2486  0.2818  0.0159
   87loPI   C1A 1383  17.883  13.934   8.635 -0.2588  0.2719 -0.2224
   87loPI   C2A 1384  18.228  13.928   8.286 -0.1802 -0.3478  0.1997
   87loPI   C3A 1385  18.538  13.850   8.011 -0.0456 -0.1334 -0.0522
   87loPI   C4A 1386  18.965  13.710   7.873 -0.2249  0.1666 -0.4302
   87loPI   C5A 1387  19.227  13.723   7.510 -0.0875 -0.0184  0.1722
   87loPI   C6A 1388  19.564  13.746   7.265 -0.1412 -0.0702 -0.0383
   87loPI   C1B 1389  17.411  13.869   8.580 -0.1722 -0.1237 -0.0859
   87loPI   C2B 1390  17.118  13.788   8.306 -0.0209  0.0167  0.1614
   87loPI   C3B 1391  16.647  13.750   8.069  0.1612 -0.1986  0.0283
   87loPI   C4B 1392  16.508  14.057   7.798  0.2804  0.0125  0.0487
   88loPI    C1 1393   3.854  17.196  10.467 -0.3102 -0.1627  0.0723
   88loPI    C2 1394   4.018  17.474  10.704 -0.0314 -0.1145 -0.1714
   88loPI    C3 1395   3.832  17.158  10.865 -0.0407  0.0303  0.1085
   88loPI   PO4 1396   3.807  17.363  10.195  0.2802 -0.0975 -0.4115
   88loPI   GL1 1397   3.619  17.201   9.798  0.1923  0.1359  0.3214
   88loPI   GL2 1398   3.376  17.017   9.777 -0.1252 -0.0572  0.0248
   88loPI   C1A 1399   3.558  17.211   9.338 -0.1689 -0.0386 -0.0120
   88loPI   C2A 1400   3.553  17.119   8.828  0.2902  0.3001 -0.2306
   88loPI   C3A 1401   3.529  17.191   8.446 -0.1227  0.0320 -0.3686
   88loPI   C4A 1402   3.655  17.231   7.993 -0.0782  0.0302 -0.2503
   88loPI   C5A 1403   4.023  17.298   7.771  0.0653 -0.1350 -0.0685
   88loPI   C6A 1404   4.203  16.899   7.572 -0.1366 -0.1656 -0.1456
   88loPI   C1B 1405   3.246  16.712   9.484 -0.0591 -0.3209  0.1420
   88loPI   C2B 1406   3.561  16.581   9.180  0.0281 -0.4069  0.3555
   88loPI   C3B 1407   3.630  16.583   8.702  0.0968 -0.1701 -0.1578
   88loPI   C4B 1408   3.625  16.643   8.277  0.1024 -0.1045  0.1424
   89loPI    C1 1409   8.871   7.565  10.543 -0.2326 -0.0459  0.1078
   89loPI    C2 1410   9.117   7.360  10.782 -0.0447 -0.0660 -0.1003
   89loPI    C3 1411   8.723   7.289  10.792 -0.0204 -0.1817  0.0849
   89loPI   PO4 1412   8.929   7.507  10.270 -0.3383  0.2786  0.1370
   89loPI   GL1 1413   9.033   7.538   9.835  0.1175  0.0450 -0.0201
   89loPI   GL2 1414   9.135   7.237   9.931 -0.1061  0.3176  0.0482
   89loPI   C1A 1415   8.979   7.687   9.365  0.4046  0.1528 -0.0675
   89loPI   C2A 1416   9.084   7.470   9.068 -0.1694  0.0382 -0.5542
   89loPI   C3A 1417   9.065   7.329   8.653  0.2480  0.2348 -0.0615
   89loPI   C4A 1418   9.121   7.300   8.215  0.1760  0.1218  0.2435
   89loPI   C5A 1419   9.219   7.151   7.764 -0.0207  0.3203 -0.1499
   89loPI   C6A 1420   9.286   7.185   7.414 -0.3495 -0.1175  0.0156
   89loPI   C1B 1421   9.207   7.229   9.488 -0.0822  0.0328 -0.0348
   89loPI   C2B 1422   9.414   7.107   9.108  0.0379 -0.2155  0.2705
   89loPI   C3B 1423   9.484   6.972   8.692 -0.0922 -0.0317  0.1113
   89loPI   C4B 1424   9.567   7.010   8.312 -0.0413 -0.0198  0.1662
   90loPI    C1 1425   9.015  11.973  10.142  0.1315  0.1667 -0.2312
   90loPI    C2 1426   9.072  12.075  10.525 -0.0617 -0.2068 -0.0983
   90loPI    C3 1427   9.359  11.882  10.324 -0.1331 -0.4199  0.0014
   90loPI   PO4 1428   8.837  12.028   9.932  0.0719 -0.0261 -0.0006
   90loPI   GL1 1429   8.850  12.192   9.564  0.0083  0.0648 -0.2829
   90loPI   GL2 1430   8.541  12.119   9.539 -0.1084  0.2339  0.0226
   90loPI   C1A 1431   8.979  12.061   9.080 -0.1211 -0.1390  0.2478
   90loPI   C2A 1432   8.753  11.935   8.678 -0.0339 -0.2058 -0.0050
   90loPI   C3A 1433   8.831  11.562   8.364 -0.0589  0.0510  0.1714
   90loPI   C4A 1434   8.855  11.367   7.958  0.0072 -0.1937 -0.1082
   90loPI   C5A 1435   8.620  11.238   7.609  0.0566 -0.1025 -0.0505
   90loPI   C6A 1436   8.148  11.151   7.396 -0.3800  0.1927  0.2324
   90loPI   C1B 1437   8.634  11.795   9.202  0.0110  0.0717  0.0640
   90loPI   C2B 1438   8.689  11.452   8.887  0.0288  0.1059 -0.2132
   90loPI   C3B 1439   8.474  11.176   8.560 -0.0126  0.0412 -0.0557
   90loPI   C4B 1440   8.563  11.001   8.181 -0.1256 -0.3322  0.1650
   91loPI    C1 1441  15.845   0.897  10.010 -0.0062 -0.1089 -0.1323
   91loPI    C2 1442  16.119   1.128  10.188 -0.1144 -0.0848  0.0051
   91loPI    C3 1443  15.762   1.073  10.359 -0.2107 -0.0841 -0.1923
   91loPI   PO4 1444  16.002   0.929   9.728  0.0435 -0.0746 -0.3418
   91loPI   GL1 1445  15.624   1.058   9.538  0.3246  0.0193  0.0579
   91loPI   GL2 1446  15.536   1.335   9.474  0.0711 -0.0716  0.2531
   91loPI   C1A 1447  15.666   0.906   9.096  0.0239 -0.2620 -0.1667
   91loPI   C2A 1448  15.605   0.904   8.654 -0.2055 -0.1787 -0.2606
   91loPI   C3A 1449  15.282   0.758   8.367 -0.0018  0.0867  0.0762
   91loPI   C4A 1450  15.147   0.569   7.918  0.0297  0.3160  0.0923
   91loPI   C5A 1451  15.221   0.216   7.575 -0.3538  0.4279  0.3106
   91loPI   C6A 1452  15.295   0.299   7.153  0.4457  0.0747  0.1718
   91loPI   C1B 1453  15.484   1.401   8.992  0.1422 -0.1258 -0.2023
   91loPI   C2B 1454  15.506   1.589   8.581  0.1663  0.1743 -0.3588
   91loPI   C3B 1455  15.420   1.670   8.151 -0.1643  0.0672  0.1695
   91loPI   C4B 1456  15.200   1.599   7.695  0.2716  0.0894 -0.0354
   92loPI    C1 1457  10.395   1.320  10.264 -0.1188  0.1326 -0.0348
   92loPI    C2 1458  10.363   1.710  10.346  0.0345  0.1511 -0.0605
   92loPI    C3 1459  10.521   1.461  10.616 -0.1641  0.0880 -0.0006
   92loPI   PO4 1460  10.360   1.353   9.971 -0.0593  0.0459 -0.1113
   92loPI   GL1 1461  10.331   1.329   9.561 -0.0376  0.1644  0.2391
   92loPI   GL2 1462  10.394   1.731   9.665  0.0839 -0.0745 -0.2044
   92loPI   C1A 1463  10.327   1.486   9.118 -0.0327 -0.3083  0.4901
   92loPI   C2A 1464  10.430   1.394   8.678  0.1803 -0.1415  0.0972
   92loPI   C3A 1465  10.204   1.274   8.253 -0.1604  0.3272 -0.1471
   92loPI   C4A 1466   9.911   1.125   8.011  0.1524  0.1246 -0.1006
   92loPI   C5A 1467   9.741   1.096   7.620  0.0564  0.1850  0.0702
   92loPI   C6A 1468   9.519   0.994   7.294  0.1067  0.0585 -0.0424
   92loPI   C1B 1469  10.408   1.931   9.267 -0.0608 -0.0689 -0.1602
   92loPI   C2B 1470  10.255   1.861   8.866  0.2139  0.1422  0.0561
   92loPI   C3B 1471  10.256   1.777   8.362  0.1233 -0.0613 -0.1097
   92loPI   C4B 1472  10.283   1.642   7.919 -0.0109  0.2759  0.3278
   93loPI    C1 1473  15.815   3.519   9.834 -0.1045 -0.1834 -0.0222
   93loPI    C2 1474  15.647   3.614  10.185 -0.0592 -0.0888 -0.0259
   93loPI    C3 1475  15.809   3.900   9.956 -0.0412 -0.1575 -0.0995
   93loPI   PO4 1476  15.612   3.365   9.638  0.1437 -0.1162 -0.0823
   93loPI   GL1 1477  15.571   3.395   9.322 -0.0600  0.3833 -0.2460
   93loPI   GL2 1478  15.927   3.234   9.318 -0.1276  0.1197 -0.1188
   93loPI   C1A 1479  15.779   3.633   8.937  0.2167 -0.0585 -0.0747
   93loPI   C2A 1480  15.669   3.676   8.489  0.0050 -0.1394  0.0288
   93loPI   C3A 1481  15.512   3.676   8.097 -0.3373 -0.0448  0.0433
   93loPI   C4A 1482  15.642   3.671   7.678  0.0833  0.1556 -0.0826
   93loPI   C5A 1483  15.842   3.783   7.236  0.1179  0.4629  0.1185
   93loPI   C6A 1484  16.269   4.003   7.160  0.3581 -0.0663  0.1806
   93loPI   C1B 1485  15.853   2.982   8.979 -0.0276 -0.3553  0.0779
   93loPI   C2B 1486  16.077   2.820   8.594  0.3565 -0.0741 -0.1646
   93loPI   C3B 1487  16.370   2.943   8.267 -0.0859  0.0627 -0.1747
   93loPI   C4B 1488  16.425   2.997   7.845  0.2873  0.0186 -0.0157
   94loPI    C1 1489  10.323  13.793  10.270  0.3422  0.3561  0.2160
   94loPI    C2 1490  10.095  13.618  10.549  0.1502  0.1801 -0.0465
   94loPI    C3 1491  10.463  13.745  10.642  0.0010  0.3402  0.3457
   94loPI   PO4 1492  10.108  13.812  10.107  0.2514 -0.3557 -0.0695
   94loPI   GL1 1493  10.147  13.892   9.777 -0.0856 -0.1948 -0.1930
   94loPI   GL2 1494  10.074  13.872   9.541  0.1383  0.0316 -0.4110
   94loPI   C1A 1495  10.479  14.181   9.582  0.2388  0.2814  0.3927
   94loPI   C2A 1496  10.522  14.243   9.127  0.1388 -0.0714 -0.4562
   94loPI   C3A 1497  10.408  14.253   8.622  0.2128  0.0426 -0.0988
   94loPI   C4A 1498  10.151  14.051   8.324 -0.1278 -0.0465  0.0816
   94loPI   C5A 1499  10.212  13.632   8.055 -0.1364 -0.2821 -0.0831
   94loPI   C6A 1500   9.960  13.318   7.862 -0.0304  0.1006 -0.0780
   94loPI   C1B 1501  10.081  13.926   9.151 -0.1283  0.3191 -0.0290
   94loPI   C2B 1502  10.063  13.788   8.799  0.1401  0.2006  0.1270
   94loPI   C3B 1503  10.183  13.513   8.560 -0.0436  0.1478  0.2258
   94loPI   C4B 1504  10.058  13.266   8.308  0.1735  0.0536  0.1186
   95loPI    C1 1505  10.447   7.621  10.339  0.1092  0.2811  0.2577
   95loPI    C2 1506  10.712   7.830  10.125  0.2644 -0.1151  0.0524
   95loPI    C3 1507  10.780   7.757  10.513  0.2043  0.2155  0.1284
   95loPI   PO4 1508  10.406   7.394  10.148 -0.2819 -0.0439 -0.1786
   95loPI   GL1 1509  10.245   7.164   9.778 -0.1177 -0.0310 -0.0440
   95loPI   GL2 1510  10.168   6.804   9.712  0.0029 -0.2843  0.4842
   95loPI   C1A 1511  10.138   7.472   9.487  0.1533 -0.1890  0.0746
   95loPI   C2A 1512  10.394   7.811   9.191  0.1319  0.0275  0.1690
   95loPI   C3A 1513  10.425   7.966   8.695  0.3243  0.0431 -0.1320
   95loPI   C4A 1514  10.248   8.226   8.383 -0.1775 -0.0409 -0.0638
   95loPI   C5A 1515  10.033   8.381   8.010  0.1092  0.0473 -0.2335
   95loPI   C6A 1516   9.731   8.561   7.980  0.1278  0.1595  0.0759
   95loPI   C1B 1517  10.366   6.803   9.318  0.4482 -0.0707 -0.0354
   95loPI   C2B 1518  10.613   7.169   9.365  0.0434  0.1227  0.0474
   95loPI   C3B 1519  10.635   7.579   9.651  0.3607 -0.2713  0.0770
   95loPI   C4B 1520  10.406   7.937   9.660 -0.3355  0.0497 -0.2506
   96loPI    C1 1521  11.944   3.790  10.092  0.3018  0.2749  0.0130
   96loPI    C2 1522  11.860   3.737  10.480 -0.4008  0.1402 -0.1423
   96loPI    C3 1523  12.113   3.488  10.293  0.0572  0.2937  0.2524
   96loPI   PO4 1524  11.719   3.740   9.987  0.2547  0.1144 -0.0069
   96loPI   GL1 1525  11.572   3.659   9.643 -0.1373 -0.2433 -0.3802
   96loPI   GL2 1526  11.289   3.613   9.479 -0.2005 -0.0193  0.0172
   96loPI   C1A 1527  11.921   3.692   9.342  0.2425 -0.3975  0.1234
   96loPI   C2A 1528  12.027   3.726   8.889 -0.2801 -0.1230  0.2356
   96loPI   C3A 1529  12.241   3.527   8.525 -0.0335  0.1044  0.2254
   96loPI   C4A 1530  12.197   3.398   8.126 -0.1055 -0.0982  0.3275
   96loPI   C5A 1531  12.157   3.494   7.646  0.0054  0.2171 -0.3212
   96loPI   C6A 1532  12.255   3.207   7.231  0.1940  0.4837 -0.1546
   96loPI   C1B 1533  11.004   3.645   9.076 -0.2784  0.0858 -0.0082
   96loPI   C2B 1534  11.141   3.676   8.696  0.1111 -0.2870 -0.2661
   96loPI   C3B 1535  11.198   3.426   8.350  0.1458 -0.1495 -0.2054
   96loPI   C4B 1536  11.135   3.342   7.990  0.0703 -0.3400  0.2256
   97loPI    C1 1537   2.967  17.150  10.367 -0.0359 -0.0691 -0.0085
   97loPI    C2 1538   2.612  17.265  10.510  0.0076  0.0571 -0.0013
   97loPI    C3 1539   2.829  16.995  10.709  0.0049  0.1278  0.0984
   97loPI   PO4 1540   3.009  17.149  10.104  0.0970 -0.3312 -0.1534
   97loPI   GL1 1541   2.834  17.254   9.828  0.1881  0.2865 -0.1898
   97loPI   GL2 1542   2.739  17.491   9.721 -0.3861 -0.3154  0.0344
   97loPI   C1A 1543   2.916  17.085   9.437  0.0406  0.0480 -0.2837
   97loPI   C2A 1544   3.064  16.839   9.021  0.1552  0.3030  0.0239
   97loPI   C3A 1545   3.124  16.856   8.571  0.5667  0.0500  0.0187
   97loPI   C4A 1546   3.254  16.934   8.146 -0.0300 -0.1539  0.2174
   97loPI   C5A 1547   3.206  17.097   7.717  0.3568  0.3377  0.1669
   97loPI   C6A 1548   2.904  17.254   7.385 -0.2501  0.2605  0.2475
   97loPI   C1B 1549   2.601  17.525   9.375  0.0684  0.5675 -0.0206
   97loPI   C2B 1550   2.577  17.231   9.108 -0.1865  0.1115  0.0947
   97loPI   C3B 1551   2.643  17.014   8.701 -0.1972  0.2770 -0.1012
   97loPI   C4B 1552   2.480  16.935   8.345  0.1706 -0.1246 -0.0507
   98loPI    C1 1553   8.880   6.160  10.303  0.0062 -0.0356 -0.0505
   98loPI    C2 1554   8.636   6.403  10.099  0.0166 -0.0220 -0.0465
   98loPI    C3 1555   8.766   6.509  10.463  0.1602  0.0461 -0.1166
   98loPI   PO4 1556   9.058   6.143  10.091  0.0652  0.0626 -0.0835
   98loPI   GL1 1557   9.227   6.301   9.750 -0.3978 -0.1311 -0.2095
   98loPI   GL2 1558   8.987   6.420   9.672 -0.0878  0.2234 -0.1989
   98loPI   C1A 1559   9.410   6.287   9.280 -0.0115 -0.1064  0.1972
   98loPI   C2A 1560   9.324   6.310   8.890  0.1337 -0.0346  0.0849
   98loPI   C3A 1561   9.353   6.440   8.577  0.1595 -0.0885  0.1276
   98loPI   C4A 1562   9.515   6.461   8.195 -0.2479  0.1267  0.0285
   98loPI   C5A 1563   9.607   6.806   7.869  0.1893 -0.0839 -0.2005
   98loPI   C6A 1564   9.769   7.083   7.652  0.1400 -0.0776  0.0807
   98loPI   C1B 1565   8.917   6.327   9.247 -0.0033 -0.0397 -0.1932
   98loPI   C2B 1566   8.776   6.360   8.826 -0.0853  0.2165  0.0773
   98loPI   C3B 1567   8.653   6.484   8.476 -0.0285 -0.0834  0.0724
   98loPI   C4B 1568   8.573   6.506   8.122  0.1307 -0.0782  0.3775
   99loPI    C1 1569   5.651   6.169  10.405  0.1193  0.2513  0.0522
   99loPI    C2 1570   5.404   6.037  10.690 -0.2219 -0.0560 -0.3724
   99loPI    C3 1571   5.772   5.884  10.658 -0.1221  0.0967 -0.0026
   99loPI   PO4 1572   5.409   6.103  10.179 -0.2139  0.2347 -0.3710
   99loPI   GL1 1573   5.404   6.152   9.730  0.1566  0.0454 -0.0809
   99loPI   GL2 1574   5.610   6.306   9.587  0.1516 -0.0062  0.2385
   99loPI   C1A 1575   5.319   5.905   9.366 -0.0919 -0.3426 -0.2598
   99loPI   C2A 1576   5.313   5.909   8.942 -0.0723 -0.1564  0.0303
   99loPI   C3A 1577   5.206   6.301   8.810 -0.2218  0.0210  0.2769
   99loPI   C4A 1578   5.459   6.592   8.334  0.1809 -0.2641  0.1292
   99loPI   C5A 1579   5.508   6.776   7.931  0.1433  0.0883  0.1958
   99loPI   C6A 1580   5.402   7.141   7.820 -0.1492  0.0903  0.0572
   99loPI   C1B 1581   5.613   6.287   9.145 -0.0925 -0.1176 -0.3364
   99loPI   C2B 1582   5.731   6.323   8.780 -0.0058  0.2240 -0.0612
   99loPI   C3B 1583   5.941   6.365   8.306  0.0460  0.2627 -0.1171
   99loPI   C4B 1584   5.871   6.362   7.898  0.0780 -0.1754  0.0902
  100loPI    C1 1585   7.198   5.199  10.143  0.1708  0.1371  0.2219
  100loPI    C2 1586   7.178   4.835  10.309 -0.0433  0.0547  0.0212
  100loPI    C3 1587   6.999   5.146  10.485 -0.2666 -0.0316 -0.0502
  100loPI   PO4 1588   7.331   5.049   9.728 -0.0940 -0.1231  0.1437
  100loPI   GL1 1589   7.445   5.061   9.292  0.1253 -0.0702 -0.1798
  100loPI   GL2 1590   7.699   5.294   9.479  0.4212  0.1941 -0.0649
  100loPI   C1A 1591   7.372   5.090   8.809 -0.0319  0.2468 -0.3003
  100loPI   C2A 1592   7.436   5.135   8.413  0.3688 -0.1253  0.0077
  100loPI   C3A 1593   7.716   5.228   8.057  0.0059  0.0189  0.1471
  100loPI   C4A 1594   7.849   5.312   7.551 -0.2761  0.1783  0.0328
  100loPI   C5A 1595   8.087   5.002   7.356  0.0813  0.0746  0.0668
  100loPI   C6A 1596   8.316   4.744   7.104 -0.1216  0.4705 -0.1971
  100loPI   C1B 1597   7.579   5.546   9.120 -0.0904  0.1508 -0.0484
  100loPI   C2B 1598   7.520   5.565   8.730  0.2021 -0.2511 -0.1563
  100loPI   C3B 1599   7.518   5.635   8.312  0.1826 -0.3408  0.3529
  100loPI   C4B 1600   7.552   5.767   7.805  0.1904  0.2495  0.4016
  101loPI    C1 1601  11.166   4.154  10.308 -0.0619 -0.0863  0.4828
  101loPI    C2 1602  11.560   4.109  10.356  0.0096  0.1658  0.1708
  101loPI    C3 1603  11.313   3.803  10.431  0.3044 -0.1405 -0.0741
  101loPI   PO4 1604  11.108   4.295  10.138 -0.2014 -0.0800 -0.0471
  101loPI   GL1 1605  11.144   4.398   9.732  0.0793  0.0985 -0.0463
  101loPI   GL2 1606  10.838   4.216   9.757  0.2832  0.0093  0.2471
  101loPI   C1A 1607  10.905   4.542   9.309 -0.3772 -0.1415  0.0347
  101loPI   C2A 1608  10.889   4.622   8.898  0.1757 -0.1130 -0.0973
  101loPI   C3A 1609  11.000   4.667   8.537 -0.0693  0.1275 -0.2789
  101loPI   C4A 1610  10.830   4.511   8.153  0.0577 -0.0136 -0.3075
  101loPI   C5A 1611  10.802   4.473   7.596  0.0310  0.0647  0.0737
  101loPI   C6A 1612  10.760   4.762   7.287  0.0930  0.1019  0.2676
  101loPI   C1B 1613  10.974   4.042   9.401 -0.0440 -0.0241  0.0961
  101loPI   C2B 1614  11.082   4.154   8.983  0.1144 -0.3158  0.0252
  101loPI   C3B 1615  11.129   4.177   8.477 -0.1227 -0.1790 -0.1121
  101loPI   C4B 1616  10.926   3.928   8.186 -0.2882  0.1620  0.0011
  102loPI    C1 1617  11.249   2.515  10.739  0.0712 -0.0577  0.2741
  102loPI    C2 1618  11.147   2.135  10.669  0.0186 -0.0038  0.0479
  102loPI    C3 1619  11.423   2.220  10.945  0.0210 -0.2045  0.1092
  102loPI   PO4 1620  11.103   2.571  10.453 -0.1035  0.0007 -0.1779
  102loPI   GL1 1621  11.084   2.421  10.112 -0.2565 -0.0175  0.0915
  102loPI   GL2 1622  11.264   2.075  10.071  0.4445 -0.1801  0.0325
  102loPI   C1A 1623  11.326   2.518   9.705  0.0180 -0.3522  0.4123
  102loPI   C2A 1624  11.581   2.673   9.316 -0.1125 -0.0232 -0.0404
  102loPI   C3A 1625  11.588   2.870   8.963  0.0266 -0.2563 -0.1260
  102loPI   C4A 1626  11.462   2.947   8.549 -0.2396  0.1292  0.1589
  102loPI   C5A 1627  11.585   2.759   8.199  0.1109  0.1634 -0.2578
  102loPI   C6A 1628  11.755   2.583   7.848 -0.2207 -0.1715  0.2591
  102loPI   C1B 1629  10.940   2.072   9.704 -0.0614  0.1648  0.0485
  102loPI   C2B 1630  10.946   1.830   9.364 -0.1381  0.2455 -0.2298
  102loPI   C3B 1631  10.828   1.567   9.037 -0.1006  0.4368 -0.0046
  102loPI   C4B 1632  10.957   1.600   8.697  0.3522  0.2911 -0.1441
  103loPI    C1 1633  10.330  14.272  10.532  0.0379 -0.0845  0.0740
  103loPI    C2 1634   9.985  14.074  10.575 -0.0997  0.0917 -0.1905
  103loPI    C3 1635  10.176  14.215  10.897 -0.1760 -0.1689 -0.0277
  103loPI   PO4 1636  10.283  14.397  10.336  0.1867  0.0229 -0.1274
  103loPI   GL1 1637  10.190  14.434   9.865 -0.1718 -0.2413  0.1213
  103loPI   GL2 1638   9.887  14.587   9.724  0.1513 -0.0694  0.0456
  103loPI   C1A 1639  10.332  14.753   9.532 -0.2868 -0.2385 -0.1536
  103loPI   C2A 1640  10.419  14.795   9.105 -0.1318 -0.2327  0.1589
  103loPI   C3A 1641  10.437  14.782   8.638  0.2270 -0.1616  0.1256
  103loPI   C4A 1642  10.484  14.921   8.136 -0.2103  0.0727 -0.2864
  103loPI   C5A 1643  10.753  15.067   7.794  0.2659 -0.1769 -0.0302
  103loPI   C6A 1644  11.183  14.884   7.633 -0.1665  0.2218 -0.1665
  103loPI   C1B 1645  10.024  14.413   9.330  0.1172 -0.0762 -0.0819
  103loPI   C2B 1646  10.055  14.545   8.920 -0.0189 -0.0918  0.0327
  103loPI   C3B 1647  10.071  14.559   8.362  0.1595  0.1204 -0.3536
  103loPI   C4B 1648  10.256  14.499   8.014 -0.1579  0.1847  0.1420
  104loPI    C1 1649  15.485  14.002   9.781 -0.0517 -0.0402 -0.0926
  104loPI    C2 1650  15.689  13.862  10.096 -0.2900  0.0039  0.0845
  104loPI    C3 1651  15.304  13.766  10.049 -0.2524 -0.0148 -0.2043
  104loPI   PO4 1652  15.576  14.261   9.749 -0.0306  0.2146 -0.0738
  104loPI   GL1 1653  15.365  14.362   9.347 -0.0510 -0.2281 -0.3073
  104loPI   GL2 1654  15.295  14.737   9.455 -0.1451 -0.3339 -0.1993
  104loPI   C1A 1655  15.366  14.279   8.900  0.0685  0.4259  0.1028
  104loPI   C2A 1656  15.506  14.366   8.550 -0.2531 -0.2545  0.1576
  104loPI   C3A 1657  15.723  14.450   8.251 -0.0090 -0.1635 -0.2212
  104loPI   C4A 1658  15.993  14.318   7.883 -0.2779  0.0768 -0.2961
  104loPI   C5A 1659  16.090  14.560   7.490 -0.1562  0.1057 -0.1709
  104loPI   C6A 1660  15.992  14.967   7.356 -0.1510 -0.2166 -0.1175
  104loPI   C1B 1661  15.274  14.754   9.049  0.0780 -0.1630 -0.2221
  104loPI   C2B 1662  15.223  14.788   8.711 -0.0045  0.2141  0.1899
  104loPI   C3B 1663  15.017  14.744   8.290 -0.0534 -0.2506  0.2088
  104loPI   C4B 1664  15.147  14.772   7.880  0.3029 -0.1386  0.0095
  105loPI    C1 1665  16.278   5.558   9.853 -0.0221 -0.3286 -0.0162
  105loPI    C2 1666  15.954   5.737  10.004  0.0750  0.0545 -0.2473
  105loPI    C3 1667  16.072   5.383  10.148 -0.0390  0.2375  0.3229
  105loPI   PO4 1668  16.277   5.587   9.634 -0.0436 -0.2083 -0.2561
  105loPI   GL1 1669  16.387   5.357   9.258  0.3065 -0.2685 -0.2683
  105loPI   GL2 1670  16.322   5.604   9.104 -0.1389 -0.4095 -0.1838
  105loPI   C1A 1671  16.536   5.125   8.918  0.0721  0.0720  0.2362
  105loPI   C2A 1672  16.426   5.129   8.467 -0.2240 -0.0938 -0.0300
  105loPI   C3A 1673  16.535   4.999   8.023  0.1008 -0.0581  0.0535
  105loPI   C4A 1674  16.660   4.792   7.654  0.1491 -0.2345  0.2411
  105loPI   C5A 1675  16.960   4.616   7.496 -0.0561 -0.1705  0.2861
  105loPI   C6A 1676  16.836   4.233   7.138  0.0794 -0.0706 -0.3110
  105loPI   C1B 1677  16.060   5.331   8.765  0.1627  0.1375  0.2330
  105loPI   C2B 1678  16.047   5.482   8.305 -0.1132  0.0332 -0.0939
  105loPI   C3B 1679  16.053   5.612   7.940  0.0095  0.3165 -0.3171
  105loPI   C4B 1680  16.331   5.770   7.632 -0.0470 -0.0868  0.0306
  106loPI    C1 1681  10.708   8.834  10.244 -0.0195 -0.1710 -0.1188
  106loPI    C2 1682  10.777   8.646  10.590  0.2524  0.0041 -0.0748
  106loPI    C3 1683  10.872   9.032  10.550  0.2061 -0.0099 -0.3397
  106loPI   PO4 1684  10.834   8.645  10.030  0.0636  0.0826 -0.0961
  106loPI   GL1 1685  10.622   8.549   9.655  0.0687 -0.1406  0.1186
  106loPI   GL2 1686  10.816   8.781   9.416 -0.2191 -0.0866  0.3449
  106loPI   C1A 1687  10.767   8.253   9.282  0.0557  0.0830  0.1213
  106loPI   C2A 1688  10.871   7.979   8.885  0.2111 -0.1656  0.2361
  106loPI   C3A 1689  10.819   7.826   8.413 -0.1363 -0.0255 -0.3574
  106loPI   C4A 1690  10.655   7.973   8.029  0.0237  0.0776  0.0750
  106loPI   C5A 1691  10.480   8.004   7.633 -0.2452 -0.2496 -0.0881
  106loPI   C6A 1692  10.074   8.052   7.430 -0.0492 -0.0798  0.0182
  106loPI   C1B 1693  10.803   8.862   8.885  0.0328 -0.1069  0.0883
  106loPI   C2B 1694  10.681   8.960   8.539 -0.1544  0.2803 -0.0541
  106loPI   C3B 1695  10.673   8.875   8.186  0.0099  0.0879  0.0109
  106loPI   C4B 1696  10.609   8.495   8.019 -0.2141  0.0162 -0.1872
  107loPI    C1 1697  11.136  10.877  10.437  0.0182  0.1302  0.1151
  107loPI    C2 1698  10.950  10.538  10.538 -0.0183  0.1469  0.1038
  107loPI    C3 1699  11.260  10.668  10.755  0.4244 -0.2422 -0.2742
  107loPI   PO4 1700  11.208  10.824  10.112  0.1113 -0.1199  0.0101
  107loPI   GL1 1701  11.297  10.671   9.745  0.0378  0.2922 -0.0669
  107loPI   GL2 1702  11.112  10.443   9.671 -0.1157 -0.3604 -0.2430
  107loPI   C1A 1703  11.480  10.799   9.406 -0.2735  0.3064  0.0493
  107loPI   C2A 1704  11.537  10.908   8.979  0.2320 -0.2115  0.1230
  107loPI   C3A 1705  11.454  10.788   8.545  0.0822  0.1759 -0.0009
  107loPI   C4A 1706  11.481  10.798   8.136 -0.0989 -0.0437 -0.0196
  107loPI   C5A 1707  11.553  10.609   7.727  0.0687  0.0291 -0.0346
  107loPI   C6A 1708  11.615  10.633   7.254  0.4215  0.1314 -0.1166
  107loPI   C1B 1709  11.041  10.505   9.174 -0.0788  0.0554 -0.0411
  107loPI   C2B 1710  11.172  10.477   8.713  0.1242  0.1881 -0.0241
  107loPI   C3B 1711  11.076  10.504   8.359 -0.0545  0.2672 -0.2289
  107loPI   C4B 1712  11.122  10.510   7.915 -0.0055  0.0524 -0.1793
  108loPI    C1 1713   3.653   9.675  10.464  0.2957  0.3576 -0.0366
  108loPI    C2 1714   3.478   9.905  10.740  0.0902  0.0319  0.1112
  108loPI    C3 1715   3.551   9.520  10.818 -0.0586 -0.0894 -0.3231
  108loPI   PO4 1716   3.467   9.688  10.214  0.1543 -0.1597  0.1550
  108loPI   GL1 1717   3.349   9.891   9.873  0.1390  0.1242 -0.2024
  108loPI   GL2 1718   3.253   9.441   9.799 -0.0471 -0.1997 -0.0386
  108loPI   C1A 1719   3.262  10.088   9.535  0.0667  0.2253  0.0713
  108loPI   C2A 1720   3.346  10.259   9.170  0.2891  0.1168  0.1207
  108loPI   C3A 1721   3.217  10.379   8.733  0.2718  0.0683  0.0368
  108loPI   C4A 1722   3.225  10.403   8.276 -0.1565 -0.4239 -0.1317
  108loPI   C5A 1723   3.126  10.296   7.925 -0.0796 -0.2020 -0.1869
  108loPI   C6A 1724   3.289   9.971   7.741  0.4118  0.1687 -0.0357
  108loPI   C1B 1725   3.413   9.435   9.465  0.0140  0.0156 -0.0247
  108loPI   C2B 1726   3.476   9.754   9.138 -0.1968 -0.0840 -0.1005
  108loPI   C3B 1727   3.201   9.850   8.805  0.2269  0.2819  0.3118
  108loPI   C4B 1728   2.827   9.663   8.549 -0.0861 -0.3839 -0.1981
  109loPI    C1 1729   2.508  11.569  10.233 -0.1840 -0.1983 -0.0303
  109loPI    C2 1730   2.215  11.643  10.495 -0.0719 -0.1903  0.0941
  109loPI    C3 1731   2.590  11.755  10.578  0.0010 -0.3786  0.0251
  109loPI   PO4 1732   2.447  11.611  10.061 -0.1162  0.1031 -0.3137
  109loPI   GL1 1733   2.262  11.507   9.700  0.0095 -0.1776 -0.1833
  109loPI   GL2 1734   2.067  11.295   9.725 -0.1655  0.1651 -0.0480
  109loPI   C1A 1735   2.243  11.374   9.215 -0.0374 -0.0693 -0.2234
  109loPI   C2A 1736   2.353  11.347   8.800  0.2462 -0.0823 -0.0171
  109loPI   C3A 1737   2.239  11.380   8.328  0.3555 -0.2701 -0.0395
  109loPI   C4A 1738   2.236  11.552   7.909  0.0433  0.0222 -0.0773
  109loPI   C5A 1739   2.061  11.690   7.535 -0.0875  0.0944 -0.2390
  109loPI   C6A 1740   2.210  11.942   7.208 -0.0832 -0.1104  0.2316
  109loPI   C1B 1741   1.714  11.550   9.410 -0.0047  0.0803  0.0519
  109loPI   C2B 1742   1.809  11.655   9.042  0.0155 -0.0079 -0.1357
  109loPI   C3B 1743   1.782  11.564   8.581  0.0188  0.1261  0.1616
  109loPI   C4B 1744   1.754  11.615   8.182 -0.0974  0.0062  0.0562
  110loPI    C1 1745   7.282  10.434  10.075 -0.1342 -0.1008 -0.2554
  110loPI    C2 1746   7.295  10.178  10.382 -0.0140  0.1551 -0.0436
  110loPI    C3 1747   6.968  10.197  10.152 -0.1855  0.1036  0.1922
  110loPI   PO4 1748   7.381  10.665  10.240 -0.1211 -0.0541  0.0735
  110loPI   GL1 1749   7.575  10.819   9.949  0.0384 -0.2267 -0.0535
  110loPI   GL2 1750   7.770  11.029   9.729 -0.1108 -0.0036 -0.1976
  110loPI   C1A 1751   7.610  10.601   9.539  0.0994  0.5059  0.2534
  110loPI   C2A 1752   7.696  10.560   9.105 -0.3330 -0.0272 -0.1897
  110loPI   C3A 1753   7.735  10.722   8.703  0.3239  0.0871 -0.2044
  110loPI   C4A 1754   7.981  11.014   8.440 -0.1825 -0.0971 -0.2118
  110loPI   C5A 1755   8.158  10.760   8.025  0.2254  0.1096  0.5297
  110loPI   C6A 1756   8.386  10.820   7.657 -0.1894 -0.0581 -0.0680
  110loPI   C1B 1757   7.960  10.952   9.309 -0.0911 -0.2685  0.1316
  110loPI   C2B 1758   7.879  11.343   8.928  0.0624  0.1224 -0.0891
  110loPI   C3B 1759   7.865  11.462   8.516 -0.0528 -0.0372  0.1555
  110loPI   C4B 1760   7.850  11.607   8.094 -0.2449 -0.1149 -0.0551
  111loPI    C1 1761  16.512   0.118   9.999  0.0126  0.2837  0.1960
  111loPI    C2 1762  16.263   0.209  10.300 -0.0211 -0.0759  0.2806
  111loPI    C3 1763  16.652   0.149  10.373  0.0319  0.1595  0.1993
  111loPI   PO4 1764  16.470   0.290   9.821  0.2443  0.1056  0.0815
  111loPI   GL1 1765  16.596   0.099   9.391  0.0420 -0.1567  0.1369
  111loPI   GL2 1766  16.296   0.154   9.386  0.3013 -0.2985 -0.3153
  111loPI   C1A 1767  16.678  -0.092   9.042  0.0679  0.1246 -0.0204
  111loPI   C2A 1768  16.770  -0.247   8.687 -0.0070 -0.0075 -0.1383
  111loPI   C3A 1769  16.708  -0.437   8.310  0.0388  0.1773  0.3044
  111loPI   C4A 1770  16.466  -0.888   8.030 -0.0838 -0.0668  0.1824
  111loPI   C5A 1771  16.397  -0.870   7.561 -0.0937  0.3090 -0.2007
  111loPI   C6A 1772  16.480  -0.957   7.124  0.0572  0.2909  0.3393
  111loPI   C1B 1773  16.159  -0.030   9.035 -0.2292  0.0842  0.0965
  111loPI   C2B 1774  16.211  -0.185   8.648 -0.2929 -0.4082  0.2849
  111loPI   C3B 1775  16.201  -0.338   8.273  0.2425  0.2746 -0.1511
  111loPI   C4B 1776  16.336  -0.420   7.817  0.0487 -0.2881 -0.1672
  112loPI    C1 1777   5.326  16.015  10.625 -0.1020  0.3917  0.0627
  112loPI    C2 1778   5.035  15.760  10.728 -0.0010  0.2719  0.0550
  112loPI    C3 1779   5.259  15.933  11.011  0.2259  0.0025  0.0445
  112loPI   PO4 1780   5.405  15.992  10.408  0.0939 -0.0986 -0.0394
  112loPI   GL1 1781   5.554  16.059  10.050 -0.1901 -0.0805  0.0075
  112loPI   GL2 1782   5.359  16.308   9.855  0.2147 -0.1765 -0.3743
  112loPI   C1A 1783   5.483  15.852   9.621 -0.2672  0.3090 -0.0829
  112loPI   C2A 1784   5.530  15.854   9.196 -0.0400  0.1359 -0.0501
  112loPI   C3A 1785   5.502  15.851   8.769 -0.0324  0.1087  0.0756
  112loPI   C4A 1786   5.567  15.848   8.326 -0.0297 -0.1765 -0.4036
  112loPI   C5A 1787   5.342  15.714   7.929 -0.3431  0.1543 -0.0244
  112loPI   C6A 1788   5.150  15.862   7.628 -0.3431 -0.0817  0.2840
  112loPI   C1B 1789   5.406  16.362   9.391 -0.1961  0.1796 -0.0416
  112loPI   C2B 1790   5.369  16.325   8.970 -0.1480 -0.1179  0.1690
  112loPI   C3B 1791   5.429  16.331   8.516 -0.0275 -0.0619  0.0934
  112loPI   C4B 1792   5.477  16.234   8.087 -0.1108 -0.0175 -0.0298
  113loPI    C1 1793   4.842  17.089  10.529 -0.0947 -0.0429  0.0068
  113loPI    C2 1794   5.235  17.021  10.495 -0.0718  0.2544 -0.3884
  113loPI    C3 1795   5.103  17.366  10.650 -0.1794  0.1178 -0.1716
  113loPI   PO4 1796   4.749  17.097  10.321  0.3057 -0.1516  0.0618
  113loPI   GL1 1797   4.646  17.234   9.944  0.0853  0.1815 -0.1554
  113loPI   GL2 1798   4.835  17.166   9.669 -0.0823 -0.0444 -0.1095
  113loPI   C1A 1799   4.528  17.582   9.602  0.1394  0.2482 -0.0231
  113loPI   C2A 1800   4.828  17.700   9.175  0.2028 -0.2793  0.1418
  113loPI   C3A 1801   4.897  17.513   8.834 -0.2141  0.3599 -0.1919
  113loPI   C4A 1802   4.891  17.633   8.442 -0.1322  0.3220  0.0761
  113loPI   C5A 1803   4.953  17.660   8.081  0.0500 -0.1435 -0.1634
  113loPI   C6A 1804   5.096  17.985   7.951 -0.1755  0.0060 -0.2380
  113loPI   C1B 1805   4.878  17.043   9.157 -0.0797  0.0725 -0.1265
  113loPI   C2B 1806   4.879  16.997   8.731  0.0953  0.2961 -0.1056
  113loPI   C3B 1807   4.855  17.066   8.253  0.0912 -0.1104  0.0493
  113loPI   C4B 1808   4.786  16.872   7.831  0.0119 -0.0786 -0.1411
  114loPI    C1 1809  12.491   8.037   9.947  0.2076 -0.0853  0.4022
  114loPI    C2 1810  12.133   8.193  10.034  0.0562 -0.1361 -0.0950
  114loPI    C3 1811  12.304   7.933  10.285 -0.0955  0.1444  0.3104
  114loPI   PO4 1812  12.452   7.999   9.685  0.0464 -0.1147  0.0801
  114loPI   GL1 1813  12.143   8.238   9.479  0.1351  0.0722  0.1382
  114loPI   GL2 1814  11.916   8.056   9.602  0.2471 -0.0348 -0.0621
  114loPI   C1A 1815  12.284   8.329   9.042  0.1904 -0.0192 -0.0255
  114loPI   C2A 1816  12.540   8.430   8.739  0.1893  0.1723  0.0113
  114loPI   C3A 1817  12.821   8.347   8.466 -0.0492 -0.0235 -0.0789
  114loPI   C4A 1818  13.084   8.463   8.206  0.1839 -0.0223  0.1210
  114loPI   C5A 1819  13.227   8.799   8.002 -0.1063  0.2422 -0.1031
  114loPI   C6A 1820  13.350   9.113   7.716  0.0454  0.1991  0.1767
  114loPI   C1B 1821  11.964   7.946   9.134  0.0779  0.3613 -0.1249
  114loPI   C2B 1822  12.024   8.029   8.660 -0.1720  0.3855  0.1867
  114loPI   C3B 1823  12.233   7.999   8.194  0.1181  0.1233  0.2420
  114loPI   C4B 1824  12.168   7.971   7.795 -0.0426 -0.1425  0.2180
  115loPI    C1 1825  10.376  10.732  10.226  0.1610 -0.0656  0.1432
  115loPI    C2 1826  10.229  11.057  10.408  0.0508 -0.1223  0.1562
  115loPI    C3 1827  10.561  10.883  10.548  0.1817  0.0577  0.0743
  115loPI   PO4 1828  10.395  10.846   9.946  0.0787  0.1599 -0.1314
  115loPI   GL1 1829  10.063  10.763   9.550  0.1616  0.0186  0.3010
  115loPI   GL2 1830  10.342  10.667   9.522  0.0171 -0.1902  0.0581
  115loPI   C1A 1831  10.112  10.743   8.997  0.0942  0.1698 -0.1135
  115loPI   C2A 1832  10.040  10.663   8.533  0.0344  0.0536  0.1542
  115loPI   C3A 1833  10.049  10.638   8.080  0.1103 -0.2899 -0.0293
  115loPI   C4A 1834  10.223  10.559   7.625  0.1010  0.0829 -0.1765
  115loPI   C5A 1835  10.358  10.775   7.254 -0.2306  0.2137 -0.0661
  115loPI   C6A 1836  10.554  10.564   6.892  0.0810 -0.1616 -0.2661
  115loPI   C1B 1837  10.483  10.417   9.252 -0.3279 -0.0003 -0.3034
  115loPI   C2B 1838  10.658  10.404   8.816  0.0536 -0.1761  0.0737
  115loPI   C3B 1839  10.548  10.680   8.410 -0.1761  0.1274  0.0002
  115loPI   C4B 1840  10.455  11.019   8.139 -0.0941  0.0578 -0.1532
  116loPI    C1 1841  13.114   9.453   9.635 -0.0481 -0.0021 -0.0935
  116loPI    C2 1842  13.177   9.588  10.006  0.0385  0.0344 -0.1213
  116loPI    C3 1843  12.804   9.557   9.866 -0.0132 -0.2571  0.0726
  116loPI   PO4 1844  13.418   9.265   9.697 -0.0049 -0.0052  0.2465
  116loPI   GL1 1845  13.673   8.974   9.438  0.0237 -0.2278 -0.0101
  116loPI   GL2 1846  13.629   8.503   9.307 -0.2468  0.0006  0.0180
  116loPI   C1A 1847  13.788   9.145   9.065 -0.0395  0.2434  0.1843
  116loPI   C2A 1848  13.935   9.470   8.869 -0.0616  0.1470  0.0497
  116loPI   C3A 1849  14.007   9.762   8.555  0.0871  0.0760 -0.3313
  116loPI   C4A 1850  13.908   9.892   8.213  0.1964 -0.1596  0.0070
  116loPI   C5A 1851  13.862  10.025   7.898  0.2642 -0.3204  0.1981
  116loPI   C6A 1852  13.650   9.969   7.497 -0.0121 -0.2158  0.2304
  116loPI   C1B 1853  13.761   8.624   8.894 -0.3865 -0.3460 -0.0016
  116loPI   C2B 1854  13.959   8.635   8.497 -0.1843 -0.2261  0.0601
  116loPI   C3B 1855  14.173   8.528   8.112  0.0745  0.3850  0.1840
  116loPI   C4B 1856  14.208   8.722   7.764  0.0207 -0.0613 -0.0163
  117loPI    C1 1857  16.630   9.783   9.834  0.2747  0.1973 -0.3298
  117loPI    C2 1858  16.547  10.174   9.834 -0.0353  0.1425  0.2149
  117loPI    C3 1859  16.279   9.913   9.976  0.1654 -0.2743 -0.1471
  117loPI   PO4 1860  16.660   9.736   9.609 -0.0804 -0.0298  0.1364
  117loPI   GL1 1861  16.764   9.789   9.272 -0.0272 -0.0558 -0.0675
  117loPI   GL2 1862  16.441   9.801   9.032  0.3152  0.0234  0.0290
  117loPI   C1A 1863  16.928   9.794   8.849  0.0309 -0.1803 -0.1891
  117loPI   C2A 1864  17.043   9.883   8.404  0.0456 -0.1966  0.1639
  117loPI   C3A 1865  17.288   9.605   8.126 -0.1507  0.0043  0.0357
  117loPI   C4A 1866  17.444   9.553   7.755  0.0396 -0.1164 -0.2980
  117loPI   C5A 1867  17.262   9.231   7.558  0.1965  0.2276 -0.1939
  117loPI   C6A 1868  16.923   9.223   7.325 -0.1161 -0.0485 -0.0690
  117loPI   C1B 1869  16.395   9.632   8.601  0.1750 -0.2243  0.0060
  117loPI   C2B 1870  16.382   9.899   8.317 -0.1653 -0.1714 -0.0835
  117loPI   C3B 1871  16.130   9.986   7.908  0.2010 -0.1558 -0.5374
  117loPI   C4B 1872  15.734   9.957   7.568 -0.0812  0.1078 -0.0045
  118loPI    C1 1873   1.365   7.777  10.396  0.0143 -0.1218  0.0887
  118loPI    C2 1874   1.295   7.385  10.361  0.1302 -0.1439  0.1019
  118loPI    C3 1875   1.616   7.514  10.563  0.1652 -0.0451 -0.0157
  118loPI   PO4 1876   1.273   7.856  10.067 -0.0124 -0.1535  0.2325
  118loPI   GL1 1877   1.192   7.865   9.622  0.2998  0.0550  0.3738
  118loPI   GL2 1878   1.146   7.848   9.304  0.1816  0.1672 -0.0090
  118loPI   C1A 1879   1.073   8.282   9.494 -0.2146 -0.0102  0.0759
  118loPI   C2A 1880   1.090   8.364   9.064 -0.0163 -0.2239 -0.0601
  118loPI   C3A 1881   0.990   8.315   8.615 -0.3482  0.2520  0.2573
  118loPI   C4A 1882   0.885   8.199   8.197 -0.0146 -0.3541  0.1493
  118loPI   C5A 1883   0.899   8.029   7.801 -0.3303  0.3059  0.2209
  118loPI   C6A 1884   0.890   7.943   7.364  0.0609  0.2010  0.2696
  118loPI   C1B 1885   1.040   7.718   8.871 -0.1424 -0.0961  0.1118
  118loPI   C2B 1886   1.217   7.791   8.457 -0.4040 -0.2128  0.0149
  118loPI   C3B 1887   1.329   7.796   8.078  0.3771  0.0423 -0.1692
  118loPI   C4B 1888   1.257   7.618   7.644 -0.1093  0.2341  0.1711
  119loPI    C1 1889   9.488  16.951  10.233 -0.0174 -0.1725  0.2383
  119loPI    C2 1890   9.740  16.689  10.065 -0.0570 -0.0298 -0.0494
  119loPI    C3 1891   9.880  16.972  10.310  0.0344 -0.0848 -0.0380
  119loPI   PO4 1892   9.259  16.866  10.130  0.0072  0.2942  0.0350
  119loPI   GL1 1893   9.082  16.610   9.708 -0.2162  0.2382 -0.5965
  119loPI   GL2 1894   9.398  16.719   9.614  0.1405  0.1073  0.0777
  119loPI   C1A 1895   8.979  16.465   9.325  0.0562  0.3960  0.4041
  119loPI   C2A 1896   8.989  16.483   8.884  0.1073 -0.2211 -0.1991
  119loPI   C3A 1897   8.971  16.510   8.439 -0.1431 -0.3315  0.1022
  119loPI   C4A 1898   9.070  16.787   8.139 -0.1230  0.2294 -0.0133
  119loPI   C5A 1899   9.172  16.995   7.863  0.0001  0.0837  0.0863
  119loPI   C6A 1900   9.187  16.907   7.390 -0.0291  0.1558 -0.0300
  119loPI   C1B 1901   9.358  16.780   9.205  0.0720  0.2212  0.1146
  119loPI   C2B 1902   9.376  16.762   8.713 -0.3970 -0.1139  0.1806
  119loPI   C3B 1903   9.654  16.986   8.433 -0.1373  0.0039 -0.1439
  119loPI   C4B 1904  10.069  16.982   8.310  0.0769  0.1686 -0.5123
  120loPI    C1 1905  17.879   7.291   9.990  0.2060 -0.0266  0.1062
  120loPI    C2 1906  17.750   6.931   9.873  0.1878 -0.0203  0.1069
  120loPI    C3 1907  17.986   6.964  10.194  0.1505 -0.0270  0.1349
  120loPI   PO4 1908  17.981   7.384   9.658 -0.2402 -0.2237 -0.0698
  120loPI   GL1 1909  17.771   7.423   9.355  0.4424 -0.2748 -0.0670
  120loPI   GL2 1910  18.049   7.498   9.118  0.3959 -0.0672 -0.2893
  120loPI   C1A 1911  17.563   7.443   8.931  0.2324 -0.3265 -0.0352
  120loPI   C2A 1912  17.801   7.430   8.542 -0.0775 -0.0704 -0.3382
  120loPI   C3A 1913  17.674   7.565   8.072  0.0620 -0.0871 -0.1384
  120loPI   C4A 1914  17.687   7.505   7.674 -0.3152  0.3839 -0.2566
  120loPI   C5A 1915  17.919   7.496   7.208 -0.0472 -0.2756  0.0649
  120loPI   C6A 1916  18.369   7.439   7.087 -0.0713  0.3407  0.0978
  120loPI   C1B 1917  18.286   7.740   8.766 -0.2076  0.2225 -0.3125
  120loPI   C2B 1918  18.441   8.025   8.517 -0.3266  0.3036 -0.1315
  120loPI   C3B 1919  18.842   8.149   8.221 -0.0831  0.2146 -0.4085
  120loPI   C4B 1920  19.122   8.213   7.870  0.2387  0.5341 -0.0104
  121loPI    C1 1921   0.107   9.263  10.377 -0.0813 -0.3174  0.0530
  121loPI    C2 1922   0.406   9.256  10.643 -0.2220  0.0974  0.2303
  121loPI    C3 1923   0.031   9.180  10.761 -0.2138 -0.2691  0.0377
  121loPI   PO4 1924   0.212   9.187  10.089  0.1304 -0.0793  0.1366
  121loPI   GL1 1925   0.198   9.336   9.723  0.0381 -0.0895 -0.1123
  121loPI   GL2 1926  -0.097   9.157   9.536  0.0619 -0.1767  0.1261
  121loPI   C1A 1927   0.075   9.510   9.217  0.1701  0.1495  0.0323
  121loPI   C2A 1928  -0.066   9.419   8.760 -0.1125 -0.1742 -0.2062
  121loPI   C3A 1929   0.106   9.507   8.335 -0.0482 -0.0239  0.2884
  121loPI   C4A 1930   0.041   9.572   7.891 -0.1566 -0.0059 -0.2541
  121loPI   C5A 1931   0.159   9.689   7.438 -0.3536 -0.0017 -0.1483
  121loPI   C6A 1932   0.391   9.968   7.131 -0.1242 -0.0225 -0.0550
  121loPI   C1B 1933  -0.066   9.072   9.142  0.1554 -0.0900  0.0340
  121loPI   C2B 1934   0.047   8.909   8.836  0.0843 -0.0218 -0.3509
  121loPI   C3B 1935   0.101   9.011   8.412 -0.1098  0.2593 -0.2090
  121loPI   C4B 1936   0.249   9.068   7.928  0.0928 -0.0448 -0.2005
  122loPI    C1 1937   1.505  13.296  10.539  0.0705 -0.0753  0.0419
  122loPI    C2 1938   1.109  13.253  10.575  0.0599 -0.0102  0.0032
  122loPI    C3 1939   1.345  13.200  10.893  0.0031  0.1419  0.0717
  122loPI   PO4 1940   1.633  13.259  10.231  0.1107  0.0648 -0.0729
  122loPI   GL1 1941   1.812  13.131   9.924  0.0025  0.3107 -0.2183
  122loPI   GL2 1942   1.723  12.849   9.768  0.1970 -0.1271  0.3448
  122loPI   C1A 1943   1.951  13.229   9.528  0.2316  0.2095 -0.1608
  122loPI   C2A 1944   2.036  13.278   9.082  0.0948  0.1883  0.2523
  122loPI   C3A 1945   2.055  13.431   8.715 -0.1468  0.1592  0.1653
  122loPI   C4A 1946   2.119  13.433   8.328  0.0026  0.3159 -0.0118
  122loPI   C5A 1947   2.112  13.572   7.932 -0.0764 -0.2438  0.0324
  122loPI   C6A 1948   2.218  13.925   7.645 -0.1829 -0.0398  0.2530
  122loPI   C1B 1949   1.572  12.629   9.421 -0.2571  0.2248  0.1923
  122loPI   C2B 1950   1.654  12.670   8.986  0.0088 -0.1223 -0.0635
  122loPI   C3B 1951   1.661  12.626   8.531  0.0434  0.1022  0.0678
  122loPI   C4B 1952   1.616  12.652   8.066 -0.3226 -0.0043  0.0810
  123loPI    C1 1953  15.647   1.967   9.889 -0.0336 -0.0214 -0.3409
  123loPI    C2 1954  15.454   1.789  10.191  0.1575 -0.0351 -0.2254
  123loPI    C3 1955  15.250   2.001   9.920  0.0171  0.2475  0.0936
  123loPI   PO4 1956  15.688   1.778   9.687  0.1188  0.0758 -0.0677
  123loPI   GL1 1957  15.336   1.746   9.417 -0.1554 -0.2563 -0.1795
  123loPI   GL2 1958  15.021   1.603   9.355  0.3743 -0.0164  0.3056
  123loPI   C1A 1959  15.305   1.871   8.995 -0.0032  0.0150  0.0182
  123loPI   C2A 1960  15.464   2.133   8.628  0.2206 -0.2405  0.1227
  123loPI   C3A 1961  15.626   2.152   8.107 -0.0417  0.2021  0.1376
  123loPI   C4A 1962  15.661   2.441   7.789 -0.0425  0.0571  0.2383
  123loPI   C5A 1963  16.058   2.688   7.545  0.3491  0.1590 -0.2210
  123loPI   C6A 1964  16.283   2.941   7.339  0.4165  0.1482  0.3130
  123loPI   C1B 1965  14.811   1.987   9.056 -0.0332 -0.0526 -0.0431
  123loPI   C2B 1966  14.944   2.285   8.664 -0.2346 -0.1183 -0.0624
  123loPI   C3B 1967  14.935   2.585   8.382 -0.2115  0.0027  0.0928
  123loPI   C4B 1968  15.194   2.636   8.034 -0.1355 -0.1616 -0.1918
  124loPI    C1 1969  11.992  11.889  10.089  0.1171  0.0320  0.0691
  124loPI    C2 1970  12.133  12.231   9.938 -0.1965  0.2105  0.1713
  124loPI    C3 1971  12.372  11.995  10.156  0.0911  0.2403 -0.1045
  124loPI   PO4 1972  11.880  11.817   9.859 -0.2994  0.3773  0.2983
  124loPI   GL1 1973  11.722  12.227   9.690  0.0081  0.1778 -0.1564
  124loPI   GL2 1974  11.405  12.378   9.550 -0.2264  0.0222  0.1397
  124loPI   C1A 1975  11.821  12.087   9.245 -0.0776  0.1753 -0.0595
  124loPI   C2A 1976  11.729  12.235   8.846  0.0696  0.0803  0.1624
  124loPI   C3A 1977  12.039  12.424   8.468 -0.1467 -0.0095 -0.0736
  124loPI   C4A 1978  12.410  12.291   8.153 -0.0473  0.2152 -0.0606
  124loPI   C5A 1979  12.735  12.553   7.924 -0.1180  0.0895  0.1092
  124loPI   C6A 1980  12.940  12.810   7.546  0.2803 -0.0367 -0.1434
  124loPI   C1B 1981  11.266  12.241   9.227 -0.0782 -0.2715 -0.0750
  124loPI   C2B 1982  11.099  12.329   8.754  0.0814  0.0638 -0.0248
  124loPI   C3B 1983  11.227  12.286   8.243  0.0282 -0.3332  0.1361
  124loPI   C4B 1984  11.185  12.602   7.900  0.1698 -0.0445  0.1059
  125loPI    C1 1985  16.128  11.519   9.763 -0.0950  0.2114  0.1446
  125loPI    C2 1986  16.168  11.146   9.900  0.2682  0.0981 -0.2473
  125loPI    C3 1987  16.156  11.452  10.156  0.2911 -0.1546  0.0621
  125loPI   PO4 1988  15.892  11.644   9.659  0.1358 -0.2844 -0.1344
  125loPI   GL1 1989  15.735  11.858   9.356  0.1312  0.3996  0.0075
  125loPI   GL2 1990  15.894  12.127   9.259 -0.0166 -0.2396  0.2885
  125loPI   C1A 1991  15.689  11.455   9.027 -0.0783  0.0480 -0.2578
  125loPI   C2A 1992  15.402  11.184   8.736 -0.0446 -0.0745  0.1190
  125loPI   C3A 1993  15.250  11.290   8.268 -0.4204 -0.2924  0.1307
  125loPI   C4A 1994  15.342  11.717   8.083 -0.0583 -0.0092 -0.1685
  125loPI   C5A 1995  15.019  11.901   7.793  0.0919 -0.0313  0.4502
  125loPI   C6A 1996  14.656  11.820   7.712  0.0509 -0.0726  0.0645
  125loPI   C1B 1997  15.726  11.933   8.838  0.1062  0.0284 -0.0123
  125loPI   C2B 1998  15.707  11.593   8.537 -0.1622  0.1169 -0.0768
  125loPI   C3B 1999  15.720  11.381   8.155  0.1348  0.2515 -0.1572
  125loPI   C4B 2000  16.017  11.380   7.882  0.1327 -0.0514 -0.0234
  126loPI    C1 2001  11.649   6.871  10.389  0.1870 -0.0615 -0.1576
  126loPI    C2 2002  12.030   6.931  10.492  0.0812  0.1331  0.1331
  126loPI    C3 2003  11.754   7.208  10.577 -0.1838 -0.1578  0.2406
  126loPI   PO4 2004  11.675   6.751  10.168 -0.2222 -0.1255  0.2380
  126loPI   GL1 2005  11.682   6.937   9.777  0.2199 -0.4699  0.0484
  126loPI   GL2 2006  11.878   7.175   9.589  0.1627  0.0238  0.1118
  126loPI   C1A 2007  11.495   6.989   9.381  0.2652  0.0511 -0.0297
  126loPI   C2A 2008  11.320   6.881   9.030  0.0766  0.0958 -0.0581
  126loPI   C3A 2009  11.124   7.049   8.660 -0.2133  0.0756  0.2536
  126loPI   C4A 2010  11.050   6.955   8.101  0.1508  0.1701  0.0107
  126loPI   C5A 2011  10.979   7.094   7.853 -0.0353 -0.4146  0.4148
  126loPI   C6A 2012  10.883   7.190   7.510  0.1362 -0.4128  0.4093
  126loPI   C1B 2013  11.939   7.068   9.174  0.0243  0.1378  0.3461
  126loPI   C2B 2014  11.718   7.057   8.764 -0.0583 -0.1026 -0.0576
  126loPI   C3B 2015  11.488   6.983   8.363  0.0862 -0.1022  0.0545
  126loPI   C4B 2016  11.495   6.737   7.957 -0.2399  0.1367 -0.2060
  127loPI    C1 2017  17.437   0.063  10.002 -0.0447 -0.2238  0.3782
  127loPI    C2 2018  17.361   0.439   9.888  0.1308 -0.3407 -0.1525
  127loPI    C3 2019  17.139   0.267  10.173  0.0135  0.1417  0.0565
  127loPI   PO4 2020  17.463  -0.026   9.694  0.3410 -0.1421  0.0539
  127loPI   GL1 2021  17.331  -0.209   9.318  0.1825 -0.2354 -0.1151
  127loPI   GL2 2022  17.014  -0.249   9.378  0.1700 -0.0685  0.0672
  127loPI   C1A 2023  17.248  -0.274   8.947 -0.2689  0.0536  0.1614
  127loPI   C2A 2024  17.233  -0.444   8.508  0.1827 -0.0295 -0.1257
  127loPI   C3A 2025  17.115  -0.526   8.075 -0.0961  0.0921  0.3289
  127loPI   C4A 2026  16.858  -0.663   7.780  0.2984 -0.3441 -0.0724
  127loPI   C5A 2027  16.774  -0.580   7.389 -0.2053  0.2663  0.2795
  127loPI   C6A 2028  16.983  -0.495   6.981 -0.2742 -0.1021  0.2477
  127loPI   C1B 2029  16.898  -0.560   9.059  0.3022 -0.2115 -0.2632
  127loPI   C2B 2030  16.847  -0.748   8.654  0.1005 -0.2832 -0.0038
  127loPI   C3B 2031  16.914  -0.916   8.297  0.3290 -0.2568 -0.1782
  127loPI   C4B 2032  16.985  -1.142   7.989 -0.1083 -0.2375 -0.0498
  128loPI    C1 2033  15.177   3.783  10.222  0.0523  0.0085  0.2680
  128loPI    C2 2034  15.244   3.507   9.940  0.2354  0.0778  0.2423
  128loPI    C3 2035  15.149   3.395  10.312  0.2091 -0.0178  0.2070
  128loPI   PO4 2036  15.336   4.009  10.001 -0.1006 -0.0996  0.0342
  128loPI   GL1 2037  15.480   3.900   9.542  0.2378 -0.2498 -0.0128
  128loPI   GL2 2038  15.166   3.931   9.274 -0.0222 -0.2383  0.4518
  128loPI   C1A 2039  15.643   4.061   9.090 -0.0912  0.0572 -0.1923
  128loPI   C2A 2040  15.327   4.044   8.672  0.1130  0.2432 -0.0618
  128loPI   C3A 2041  15.383   4.276   8.388  0.0171  0.0221 -0.0713
  128loPI   C4A 2042  15.628   4.562   8.156 -0.0675  0.1569 -0.3376
  128loPI   C5A 2043  15.538   4.642   7.722 -0.3289 -0.3532 -0.1614
  128loPI   C6A 2044  15.389   4.962   7.485 -0.2057 -0.0532 -0.1792
  128loPI   C1B 2045  14.873   4.037   8.977 -0.1438  0.0406 -0.2020
  128loPI   C2B 2046  14.837   3.940   8.582 -0.0275  0.2093  0.2213
  128loPI   C3B 2047  15.057   3.924   8.152 -0.2719 -0.1642  0.0543
  128loPI   C4B 2048  15.090   3.751   7.769  0.1889 -0.0941 -0.2804
  129loPI    C1 2049   8.536  13.834  10.243  0.0135 -0.0703  0.1955
  129loPI    C2 2050   8.390  13.467  10.308 -0.0792 -0.1073 -0.1979
  129loPI    C3 2051   8.308  13.763  10.563 -0.0011 -0.3581  0.1247
  129loPI   PO4 2052   8.466  13.831   9.990 -0.1542  0.1349 -0.2449
  129loPI   GL1 2053   8.626  13.807   9.527  0.2731  0.0595 -0.0161
  129loPI   GL2 2054   8.245  13.938   9.465 -0.2464 -0.2291  0.1416
  129loPI   C1A 2055   8.811  13.599   9.319  0.3006 -0.2104  0.0496
  129loPI   C2A 2056   8.875  13.616   8.898  0.3862 -0.0901  0.2332
  129loPI   C3A 2057   8.833  13.718   8.510 -0.0802 -0.1611  0.0458
  129loPI   C4A 2058   8.596  13.639   8.105  0.0737 -0.3382  0.1211
  129loPI   C5A 2059   8.530  13.274   7.820  0.0676  0.2468  0.0741
  129loPI   C6A 2060   8.905  13.011   7.891 -0.0829 -0.1997  0.0772
  129loPI   C1B 2061   8.349  13.892   9.102 -0.0911  0.1779 -0.0500
  129loPI   C2B 2062   8.354  13.818   8.715 -0.0720  0.1809 -0.0798
  129loPI   C3B 2063   8.448  14.019   8.323  0.0501 -0.1425  0.0275
  129loPI   C4B 2064   8.695  14.139   7.893  0.0783  0.1331 -0.3075
  130loPI    C1 2065   5.500   6.563  10.038 -0.1313  0.2236 -0.0008
  130loPI    C2 2066   5.232   6.640  10.325 -0.1077 -0.1641  0.1311
  130loPI    C3 2067   5.624   6.670  10.403 -0.1056  0.1303  0.0183
  130loPI   PO4 2068   5.406   6.748   9.781 -0.1108 -0.1733  0.2345
  130loPI   GL1 2069   5.628   6.918   9.464 -0.0142 -0.0457  0.0690
  130loPI   GL2 2070   5.629   7.149   9.294  0.1517  0.0271  0.3664
  130loPI   C1A 2071   5.894   6.742   9.119 -0.0864 -0.1453 -0.1534
  130loPI   C2A 2072   6.149   6.604   8.739  0.1045  0.1213  0.1390
  130loPI   C3A 2073   6.330   6.660   8.457  0.1206 -0.1136 -0.1280
  130loPI   C4A 2074   6.126   6.791   8.102  0.0075  0.1179 -0.0759
  130loPI   C5A 2075   5.966   6.816   7.709 -0.3428 -0.1582  0.1504
  130loPI   C6A 2076   5.796   7.150   7.466  0.1059 -0.1944  0.3270
  130loPI   C1B 2077   5.773   7.246   8.918  0.0218 -0.0593  0.0216
  130loPI   C2B 2078   5.969   7.355   8.484  0.3441  0.0316  0.2684
  130loPI   C3B 2079   6.001   7.624   8.207 -0.1434  0.0968 -0.1939
  130loPI   C4B 2080   5.993   7.611   7.796  0.2932 -0.0163 -0.0310
  131loPI    C1 2081   3.645   6.324  10.159 -0.3684 -0.1099 -0.2307
  131loPI    C2 2082   3.467   6.035  10.371 -0.0208 -0.1028  0.0815
  131loPI    C3 2083   3.371   6.418  10.435  0.0793 -0.1010  0.2254
  131loPI   PO4 2084   3.667   6.200   9.881  0.1431  0.0662 -0.1250
  131loPI   GL1 2085   3.646   6.365   9.473 -0.2626 -0.0250  0.0914
  131loPI   GL2 2086   3.735   6.068   9.401  0.3007  0.0375 -0.1440
  131loPI   C1A 2087   3.732   6.387   8.935  0.1233  0.0975  0.0566
  131loPI   C2A 2088   3.671   6.580   8.526  0.0694 -0.0842  0.1601
  131loPI   C3A 2089   3.298   6.645   8.267 -0.1228 -0.1523  0.3366
  131loPI   C4A 2090   2.920   6.731   7.942  0.1389  0.1028  0.0192
  131loPI   C5A 2091   2.765   6.741   7.615  0.1401 -0.0535 -0.2872
  131loPI   C6A 2092   2.417   6.894   7.442 -0.0651  0.2155 -0.1799
  131loPI   C1B 2093   3.870   5.872   9.018 -0.1927  0.0557  0.2968
  131loPI   C2B 2094   3.863   5.911   8.569  0.2259  0.1396  0.2071
  131loPI   C3B 2095   3.791   6.051   8.215 -0.1006 -0.2428  0.3342
  131loPI   C4B 2096   4.041   6.093   7.828  0.0375 -0.1975  0.3194
  132loPI    C1 2097  18.451  14.776   9.957  0.0216  0.0285 -0.0016
  132loPI    C2 2098  18.116  14.938  10.105  0.0821  0.0548  0.1077
  132loPI    C3 2099  18.434  14.883  10.342  0.0329 -0.3080  0.0950
  132loPI   PO4 2100  18.484  14.875   9.741 -0.1332  0.1924 -0.0039
  132loPI   GL1 2101  18.387  14.798   9.328 -0.0419  0.0228  0.2282
  132loPI   GL2 2102  18.758  14.822   9.306 -0.0695  0.2712 -0.0456
  132loPI   C1A 2103  18.287  14.838   8.942 -0.0647 -0.0470  0.0325
  132loPI   C2A 2104  18.318  14.841   8.501  0.1427  0.0050 -0.2873
  132loPI   C3A 2105  18.312  14.748   8.091 -0.1625 -0.2015  0.1691
  132loPI   C4A 2106  18.354  14.843   7.700  0.3228 -0.2026 -0.2807
  132loPI   C5A 2107  18.444  15.150   7.490 -0.0679  0.1708  0.3061
  132loPI   C6A 2108  18.766  15.204   7.344 -0.3230  0.0638  0.1142
  132loPI   C1B 2109  18.857  15.122   9.073 -0.1200  0.1196  0.4207
  132loPI   C2B 2110  18.670  15.191   8.683 -0.1117 -0.0235  0.0812
  132loPI   C3B 2111  18.505  15.276   8.230  0.0442 -0.0030  0.0101
  132loPI   C4B 2112  18.307  15.384   7.920  0.0280  0.1625 -0.2536
  133loPI    C1 2113  14.131  12.808   9.938 -0.2836 -0.1174 -0.0471
  133loPI    C2 2114  14.081  12.534  10.225  0.0777 -0.0875  0.0484
  133loPI    C3 2115  14.393  12.785  10.239 -0.0855  0.1340 -0.1960
  133loPI   PO4 2116  14.074  12.549   9.678 -0.3091  0.1348 -0.1776
  133loPI   GL1 2117  14.224  12.624   9.284  0.0407 -0.2540  0.4044
  133loPI   GL2 2118  14.202  12.884   9.328 -0.0744  0.0344  0.1249
  133loPI   C1A 2119  14.037  12.386   8.921 -0.0013  0.1060 -0.3216
  133loPI   C2A 2120  14.092  12.433   8.558  0.2647 -0.1033 -0.0521
  133loPI   C3A 2121  13.987  12.508   8.139 -0.0963 -0.1145 -0.0351
  133loPI   C4A 2122  13.855  12.510   7.699  0.0546 -0.2315  0.4042
  133loPI   C5A 2123  13.799  12.113   7.497  0.0048  0.1876 -0.5270
  133loPI   C6A 2124  14.017  11.699   7.500 -0.0732  0.2586 -0.1189
  133loPI   C1B 2125  14.090  12.849   8.860 -0.2114  0.4461  0.1581
  133loPI   C2B 2126  14.056  12.959   8.400  0.3748 -0.2688  0.0876
  133loPI   C3B 2127  14.382  13.156   8.180  0.0709 -0.1422  0.3850
  133loPI   C4B 2128  14.700  13.532   8.115  0.2959  0.4820 -0.0514
  134loPI    C1 2129  11.986  10.862  10.427 -0.0828  0.0722 -0.1951
  134loPI    C2 2130  11.884  11.214  10.587  0.1184  0.0698 -0.0572
  134loPI    C3 2131  11.957  10.900  10.824 -0.3166 -0.1400 -0.1892
  134loPI   PO4 2132  12.114  11.007  10.155  0.2237 -0.1186 -0.3703
  134loPI   GL1 2133  12.021  11.339   9.785 -0.0861  0.0541  0.2361
  134loPI   GL2 2134  12.304  11.300   9.495  0.0442  0.4063 -0.0357
  134loPI   C1A 2135  11.833  11.137   9.440  0.1967  0.1514  0.1626
  134loPI   C2A 2136  11.947  11.230   8.922  0.1736 -0.4534 -0.3258
  134loPI   C3A 2137  11.938  11.117   8.511  0.2138 -0.1473 -0.1154
  134loPI   C4A 2138  11.977  11.001   8.034 -0.1095 -0.0143  0.2470
  134loPI   C5A 2139  12.050  10.820   7.641 -0.2162  0.1348  0.1268
  134loPI   C6A 2140  12.079  10.678   7.351  0.1585 -0.2263 -0.1682
  134loPI   C1B 2141  12.390  11.159   9.088  0.2567  0.2342 -0.0570
  134loPI   C2B 2142  12.724  11.201   8.804  0.0071  0.3663 -0.1255
  134loPI   C3B 2143  12.862  11.289   8.360 -0.0742 -0.0397 -0.0855
  134loPI   C4B 2144  12.811  11.197   7.935  0.2387 -0.0341 -0.1432
  135loPI    C1 2145  16.695   3.642   9.759 -0.0562  0.1137  0.1604
  135loPI    C2 2146  16.302   3.608   9.827 -0.0388 -0.0383  0.1883
  135loPI    C3 2147  16.558   3.627  10.134 -0.0217  0.0332  0.1699
  135loPI   PO4 2148  16.787   3.465   9.606 -0.1222 -0.0828 -0.1229
  135loPI   GL1 2149  16.884   3.212   9.219 -0.1294  0.1252 -0.1738
  135loPI   GL2 2150  17.232   2.922   9.093 -0.0534 -0.2385  0.2986
  135loPI   C1A 2151  16.786   3.443   8.822 -0.1254  0.0465 -0.2974
  135loPI   C2A 2152  16.518   3.419   8.478 -0.0300 -0.1493 -0.0965
  135loPI   C3A 2153  16.452   3.519   8.104  0.2202  0.3631  0.0847
  135loPI   C4A 2154  16.601   3.520   7.642  0.0996 -0.2420 -0.3648
  135loPI   C5A 2155  16.758   3.681   7.282 -0.0005  0.0934 -0.2089
  135loPI   C6A 2156  16.604   3.776   6.835  0.1667 -0.0373  0.0945
  135loPI   C1B 2157  17.353   2.798   8.635 -0.3073 -0.4869 -0.1684
  135loPI   C2B 2158  17.248   2.824   8.218  0.0548  0.1086  0.0936
  135loPI   C3B 2159  17.413   2.668   7.747  0.1109  0.0841  0.2315
  135loPI   C4B 2160  17.191   2.414   7.412  0.2573 -0.0235  0.0452
  136loPI    C1 2161  18.780  13.001  10.064  0.0223 -0.1927  0.0212
  136loPI    C2 2162  18.498  13.160  10.299  0.0296 -0.0425 -0.0706
  136loPI    C3 2163  18.869  13.311  10.300  0.0286 -0.0383 -0.1810
  136loPI   PO4 2164  18.650  12.975   9.849 -0.1441  0.1096 -0.0712
  136loPI   GL1 2165  18.848  12.652   9.531 -0.0050 -0.1145  0.1177
  136loPI   GL2 2166  18.933  12.346   9.372 -0.2111  0.1443  0.0826
  136loPI   C1A 2167  18.857  12.814   9.179  0.0230  0.1928  0.3550
  136loPI   C2A 2168  18.887  12.914   8.791 -0.0473 -0.1701 -0.0651
  136loPI   C3A 2169  18.965  13.232   8.442 -0.1243 -0.1433 -0.2714
  136loPI   C4A 2170  18.793  13.307   8.133 -0.1904 -0.0762 -0.0999
  136loPI   C5A 2171  18.367  13.409   8.155  0.1093 -0.3231  0.0991
  136loPI   C6A 2172  18.014  13.659   7.962  0.0119  0.0308  0.0318
  136loPI   C1B 2173  18.998  12.345   8.943 -0.0618  0.2998  0.0717
  136loPI   C2B 2174  19.140  12.437   8.507 -0.0566  0.0008  0.0567
  136loPI   C3B 2175  19.067  12.424   8.096  0.1329  0.0326 -0.0779
  136loPI   C4B 2176  19.079  12.543   7.686  0.2326 -0.0976  0.2532
  137loPI    C1 2177  13.411  14.775  10.269  0.2212  0.0512  0.1193
  137loPI    C2 2178  13.145  14.918  10.532  0.1516 -0.0025  0.0785
  137loPI    C3 2179  13.496  15.103  10.481  0.0854  0.1209  0.0671
  137loPI   PO4 2180  13.240  14.668  10.053 -0.5295  0.0661 -0.0450
  137loPI   GL1 2181  13.244  14.734   9.559  0.0149  0.2598  0.1399
  137loPI   GL2 2182  13.365  15.018   9.631  0.1093  0.0852 -0.0353
  137loPI   C1A 2183  13.359  14.646   9.201 -0.1277 -0.3574  0.0944
  137loPI   C2A 2184  13.349  14.615   8.810  0.1018  0.2187 -0.1931
  137loPI   C3A 2185  13.417  14.320   8.479  0.0371  0.0341  0.2046
  137loPI   C4A 2186  13.552  14.274   8.045  0.3397  0.1841  0.0147
  137loPI   C5A 2187  13.811  14.452   7.756 -0.2256  0.0128 -0.0627
  137loPI   C6A 2188  14.079  14.178   7.499 -0.0234 -0.2046  0.0050
  137loPI   C1B 2189  13.690  15.101   9.327  0.0477 -0.1731  0.1076
  137loPI   C2B 2190  13.772  15.010   8.948  0.0114  0.0234 -0.2433
  137loPI   C3B 2191  13.748  14.873   8.581  0.1430 -0.0739 -0.0157
  137loPI   C4B 2192  13.662  14.704   8.285 -0.4608 -0.0036 -0.0962
  138loPI    C1 2193   8.562  17.494  10.476  0.2730  0.1515 -0.1342
  138loPI    C2 2194   8.497  17.859  10.325  0.1859  0.2064  0.0335
  138loPI    C3 2195   8.282  17.730  10.637  0.0692 -0.0704 -0.1576
  138loPI   PO4 2196   8.636  17.371  10.301  0.1440 -0.0220  0.4503
  138loPI   GL1 2197   8.757  17.320   9.960  0.1299  0.5129  0.1178
  138loPI   GL2 2198   8.868  17.041   9.936  0.1661  0.1522 -0.1289
  138loPI   C1A 2199   8.623  17.288   9.535  0.1071  0.1666  0.1781
  138loPI   C2A 2200   8.434  17.297   9.240  0.0344  0.0223 -0.0705
  138loPI   C3A 2201   8.446  17.303   8.790 -0.0070 -0.1554  0.2966
  138loPI   C4A 2202   8.526  17.437   8.325 -0.4408  0.3180 -0.6240
  138loPI   C5A 2203   8.758  17.253   8.003  0.1346 -0.1364 -0.6886
  138loPI   C6A 2204   8.790  17.055   7.582 -0.0385 -0.0303 -0.2578
  138loPI   C1B 2205   8.983  16.960   9.457 -0.0765 -0.0199  0.1439
  138loPI   C2B 2206   8.977  17.003   9.037  0.1881  0.3121  0.1027
  138loPI   C3B 2207   8.906  17.004   8.630 -0.1338  0.2572  0.1134
  138loPI   C4B 2208   9.145  17.240   8.325 -0.1242  0.0020  0.0110
  139loPI    C1 2209   3.095  18.912  10.201 -0.1133  0.0529 -0.0850
  139loPI    C2 2210   3.193  18.563  10.371  0.0410  0.0926 -0.0912
  139loPI    C3 2211   2.924  18.802  10.545  0.0878  0.0648  0.0199
  139loPI   PO4 2212   3.052  18.828   9.933  0.2528 -0.1868 -0.0936
  139loPI   GL1 2213   3.298  18.807   9.589 -0.0190 -0.0265  0.0802
  139loPI   GL2 2214   3.706  18.610   9.604  0.1806 -0.2573  0.0511
  139loPI   C1A 2215   3.384  18.791   9.194  0.0346 -0.0401  0.0600
  139loPI   C2A 2216   3.519  18.792   8.767  0.0562  0.0665  0.1227
  139loPI   C3A 2217   3.492  18.967   8.242  0.1611  0.0785 -0.0121
  139loPI   C4A 2218   3.797  19.191   7.950 -0.0235  0.1187  0.0407
  139loPI   C5A 2219   4.125  19.450   7.881 -0.0186  0.0915  0.0756
  139loPI   C6A 2220   4.324  19.262   7.704 -0.2917  0.1534 -0.0728
  139loPI   C1B 2221   3.782  18.538   9.247  0.0494  0.0202  0.1565
  139loPI   C2B 2222   3.871  18.429   8.863  0.3171 -0.0841  0.2141
  139loPI   C3B 2223   3.650  18.287   8.534  0.0883  0.0669 -0.0250
  139loPI   C4B 2224   3.607  18.246   8.135  0.1354  0.0282  0.0062
  140loPI    C1 2225   0.298  13.330  10.216  0.1358 -0.1174  0.1395
  140loPI    C2 2226   0.325  12.968  10.050  0.0371 -0.1319  0.1544
  140loPI    C3 2227   0.150  13.011  10.407  0.0562 -0.0708  0.1565
  140loPI   PO4 2228   0.202  13.412  10.009 -0.0377 -0.2849  0.0299
  140loPI   GL1 2229   0.360  13.351   9.633  0.1534 -0.2325  0.0156
  140loPI   GL2 2230   0.534  13.663   9.534 -0.0813  0.4316 -0.0087
  140loPI   C1A 2231   0.165  13.267   9.218 -0.3407 -0.0257 -0.0405
  140loPI   C2A 2232   0.227  13.243   8.775 -0.0892 -0.2216 -0.4474
  140loPI   C3A 2233   0.275  13.372   8.225  0.1417  0.3037  0.0244
  140loPI   C4A 2234   0.294  13.312   7.790 -0.1247 -0.1665 -0.0587
  140loPI   C5A 2235   0.327  13.108   7.366  0.2221 -0.0027 -0.1511
  140loPI   C6A 2236   0.362  12.643   7.287  0.0340  0.1958 -0.0107
  140loPI   C1B 2237   0.556  13.578   9.004 -0.0314 -0.2733  0.1333
  140loPI   C2B 2238   0.715  13.690   8.593 -0.2988  0.1879  0.1886
  140loPI   C3B 2239   0.673  13.751   8.137 -0.0036 -0.4152  0.1240
  140loPI   C4B 2240   0.343  13.957   7.899  0.1429 -0.2750  0.1512
  141loPI    C1 2241  13.755  16.571  10.465  0.2069 -0.0011 -0.0819
  141loPI    C2 2242  13.956  16.799  10.725  0.0414  0.1251 -0.0628
  141loPI    C3 2243  13.653  16.571  10.852  0.2258 -0.1322 -0.0763
  141loPI   PO4 2244  13.759  16.734  10.279 -0.0560  0.0694  0.3318
  141loPI   GL1 2245  13.650  16.777   9.879  0.4201 -0.0275 -0.1043
  141loPI   GL2 2246  13.581  17.121   9.867 -0.2998  0.1394 -0.2875
  141loPI   C1A 2247  13.965  16.930   9.600  0.2620  0.0023  0.2926
  141loPI   C2A 2248  13.959  17.023   9.133 -0.0117  0.0644  0.0738
  141loPI   C3A 2249  14.190  16.866   8.869 -0.0647  0.2685  0.3422
  141loPI   C4A 2250  14.363  16.657   8.619  0.0792  0.0678 -0.0381
  141loPI   C5A 2251  14.206  16.350   8.423 -0.0171 -0.0815 -0.1619
  141loPI   C6A 2252  13.995  16.297   8.015 -0.1270  0.1385 -0.0942
  141loPI   C1B 2253  13.409  16.967   9.388  0.0375  0.0020  0.1033
  141loPI   C2B 2254  13.112  17.050   9.014 -0.0915  0.0180 -0.2363
  141loPI   C3B 2255  13.116  17.012   8.624  0.0174  0.3544  0.1633
  141loPI   C4B 2256  13.386  16.845   8.353  0.3507 -0.3747  0.0009
  142loPI    C1 2257   2.946  11.358  10.465  0.0843 -0.0124 -0.0133
  142loPI    C2 2258   2.964  10.998  10.291  0.2862 -0.0191  0.0188
  142loPI    C3 2259   2.628  11.115  10.475  0.2413 -0.2176  0.0657
  142loPI   PO4 2260   3.053  11.505  10.245  0.1163  0.1346 -0.1512
  142loPI   GL1 2261   2.890  11.560   9.790 -0.2908  0.1970  0.1123
  142loPI   GL2 2262   2.734  11.272   9.908 -0.2457 -0.3025  0.3961
  142loPI   C1A 2263   2.721  11.716   9.449  0.3152 -0.0952 -0.1414
  142loPI   C2A 2264   2.699  11.582   9.040  0.0711 -0.1294  0.2535
  142loPI   C3A 2265   2.687  11.655   8.518  0.1663  0.4377  0.1560
  142loPI   C4A 2266   2.670  11.763   8.098 -0.2867  0.0685 -0.0988
  142loPI   C5A 2267   2.594  11.980   7.621  0.2167 -0.0003 -0.0264
  142loPI   C6A 2268   2.565  12.334   7.279  0.1314  0.2076  0.0172
  142loPI   C1B 2269   2.649  11.197   9.471  0.1128  0.2068 -0.0105
  142loPI   C2B 2270   2.808  11.138   8.996 -0.0246 -0.2443  0.0712
  142loPI   C3B 2271   2.746  11.147   8.600 -0.0372  0.0377  0.1222
  142loPI   C4B 2272   2.711  11.080   8.183 -0.3191  0.0879 -0.0632
  143loPI    C1 2273  13.128  16.203  10.213  0.0052  0.0642  0.0600
  143loPI    C2 2274  13.243  16.440  10.514 -0.0120  0.0087  0.1105
  143loPI    C3 2275  12.980  16.146  10.580 -0.0625  0.0350  0.0285
  143loPI   PO4 2276  13.270  16.311  10.043 -0.1140 -0.2178 -0.2646
  143loPI   GL1 2277  13.214  16.501   9.616  0.2518  0.1511 -0.0899
  143loPI   GL2 2278  13.048  16.080   9.685 -0.0471 -0.1390  0.3440
  143loPI   C1A 2279  13.411  16.399   9.307  0.4158  0.0109  0.1901
  143loPI   C2A 2280  13.381  16.179   8.837  0.2762 -0.0237 -0.2415
  143loPI   C3A 2281  13.364  15.899   8.452  0.0046  0.3098 -0.0346
  143loPI   C4A 2282  13.313  15.458   8.249 -0.0414  0.1366 -0.1774
  143loPI   C5A 2283  13.485  15.203   7.980 -0.0742  0.4197  0.0694
  143loPI   C6A 2284  13.544  14.850   7.789 -0.2480  0.0292  0.0663
  143loPI   C1B 2285  13.181  15.941   9.233 -0.0870 -0.0594 -0.1370
  143loPI   C2B 2286  13.185  15.664   8.827  0.0096 -0.0600  0.4268
  143loPI   C3B 2287  13.308  15.293   8.736 -0.0640  0.2210  0.2230
  143loPI   C4B 2288  13.245  15.006   8.429  0.2643 -0.2586 -0.1559
  144loPI    C1 2289  12.218   8.742  10.179  0.0040 -0.0455  0.0032
  144loPI    C2 2290  12.544   8.871  10.371  0.0701  0.1706 -0.2484
  144loPI    C3 2291  12.181   8.937  10.526  0.1370  0.0463 -0.0337
  144loPI   PO4 2292  12.409   8.633   9.953 -0.0482 -0.0619  0.2367
  144loPI   GL1 2293  12.224   8.774   9.545 -0.1830  0.1312  0.4619
  144loPI   GL2 2294  12.545   8.788   9.435  0.0498 -0.0279  0.2681
  144loPI   C1A 2295  12.065   8.801   9.175 -0.1050  0.3150  0.3413
  144loPI   C2A 2296  12.262   8.831   8.848  0.1896 -0.0060 -0.0108
  144loPI   C3A 2297  12.511   8.754   8.380  0.0188  0.0703 -0.3784
  144loPI   C4A 2298  12.518   8.564   7.985 -0.3020  0.1283 -0.1151
  144loPI   C5A 2299  12.902   8.574   7.730 -0.1260 -0.0737  0.0502
  144loPI   C6A 2300  13.188   8.670   7.347 -0.1175 -0.1345 -0.1707
  144loPI   C1B 2301  12.809   8.669   9.141 -0.2192  0.0813  0.3057
  144loPI   C2B 2302  12.889   8.757   8.725 -0.1519 -0.0099 -0.2418
  144loPI   C3B 2303  13.062   9.144   8.586  0.0888 -0.0773  0.0527
  144loPI   C4B 2304  13.224   9.225   8.202  0.1086 -0.1714 -0.0734
  145loPI    C1 2305   8.006   7.645  10.263  0.0324 -0.1352  0.0164
  145loPI    C2 2306   7.750   7.463  10.511 -0.2504  0.1711 -0.0439
  145loPI    C3 2307   7.966   7.773  10.640  0.0949 -0.0841  0.0057
  145loPI   PO4 2308   7.924   7.696  10.054  0.0460  0.1162  0.2012
  145loPI   GL1 2309   8.061   7.448   9.771  0.2425 -0.0061 -0.1423
  145loPI   GL2 2310   8.124   7.625   9.586 -0.3421 -0.1767 -0.0099
  145loPI   C1A 2311   8.120   7.102   9.524  0.1256 -0.1857 -0.0913
  145loPI   C2A 2312   8.184   7.047   9.056 -0.0270  0.2614  0.0695
  145loPI   C3A 2313   8.092   6.960   8.674  0.2686 -0.2432  0.0240
  145loPI   C4A 2314   8.210   6.871   8.333  0.1108 -0.0544 -0.0948
  145loPI   C5A 2315   8.102   6.844   7.850 -0.2480 -0.0099  0.2392
  145loPI   C6A 2316   8.159   6.931   7.415 -0.1938  0.2637 -0.0223
  145loPI   C1B 2317   8.029   7.563   9.108 -0.4861 -0.0398  0.1907
  145loPI   C2B 2318   7.890   7.657   8.664 -0.0054  0.0393 -0.2843
  145loPI   C3B 2319   7.739   7.864   8.289  0.1029  0.0018  0.0334
  145loPI   C4B 2320   7.588   7.920   7.901 -0.2904 -0.1561  0.1631
  146loPI    C1 2321  10.818   3.804  10.293  0.0397  0.0022 -0.0294
  146loPI    C2 2322  10.636   4.113  10.471  0.0795 -0.1154  0.2204
  146loPI    C3 2323  10.919   3.909  10.666  0.0738 -0.2922  0.0466
  146loPI   PO4 2324  10.718   3.840  10.046  0.3348 -0.3316 -0.1733
  146loPI   GL1 2325  10.689   3.724   9.626 -0.0278 -0.1653 -0.1911
  146loPI   GL2 2326  10.806   3.372   9.649  0.0991  0.0760 -0.1830
  146loPI   C1A 2327  10.512   3.742   9.337  0.0575 -0.0508  0.0137
  146loPI   C2A 2328  10.588   3.460   9.001  0.0406 -0.0690  0.1745
  146loPI   C3A 2329  10.626   3.582   8.558  0.2353  0.0860 -0.0793
  146loPI   C4A 2330  10.697   3.462   8.136 -0.1191  0.1231 -0.0596
  146loPI   C5A 2331  10.679   3.081   8.007  0.2367  0.3592 -0.1256
  146loPI   C6A 2332  10.421   2.838   7.675 -0.0204 -0.2160  0.0259
  146loPI   C1B 2333  10.638   3.148   9.380 -0.1417  0.2327  0.1151
  146loPI   C2B 2334  10.636   2.838   8.919 -0.0502 -0.0078 -0.1682
  146loPI   C3B 2335  10.563   2.448   8.740 -0.0009 -0.1990  0.0903
  146loPI   C4B 2336  10.166   2.234   8.569 -0.0295  0.2262 -0.0784
  147loPI    C1 2337   1.690   5.217   9.776 -0.0929  0.2542 -0.0639
  147loPI    C2 2338   1.852   4.974  10.049  0.0273  0.1687 -0.2096
  147loPI    C3 2339   1.518   4.866   9.860  0.0518  0.1401 -0.2366
  147loPI   PO4 2340   1.932   5.303   9.658 -0.0036  0.1424 -0.1090
  147loPI   GL1 2341   2.111   5.172   9.301  0.0177 -0.1724  0.0821
  147loPI   GL2 2342   1.815   5.084   9.187 -0.3255 -0.2178 -0.3853
  147loPI   C1A 2343   2.478   5.218   8.992  0.3588  0.2610 -0.0127
  147loPI   C2A 2344   2.392   5.106   8.528  0.0069 -0.1242 -0.0376
  147loPI   C3A 2345   2.340   5.170   8.095 -0.0365 -0.1157  0.0842
  147loPI   C4A 2346   2.500   4.864   7.738 -0.1130 -0.0328  0.2438
  147loPI   C5A 2347   2.353   4.658   7.362 -0.2512  0.0795  0.1053
  147loPI   C6A 2348   1.999   4.458   7.213 -0.1525  0.2941 -0.1817
  147loPI   C1B 2349   1.995   5.294   8.762 -0.0978 -0.2826 -0.0294
  147loPI   C2B 2350   1.985   5.453   8.355 -0.2520 -0.4899 -0.0682
  147loPI   C3B 2351   1.829   5.266   7.868  0.1821 -0.1218 -0.2574
  147loPI   C4B 2352   1.650   5.291   7.446  0.0988  0.1674  0.0440
  148loPI    C1 2353   4.668   3.131  10.135  0.3686 -0.3884 -0.0008
  148loPI    C2 2354   4.899   3.032  10.447  0.3240  0.1803  0.2248
  148loPI    C3 2355   4.987   3.354  10.227 -0.0519  0.1984  0.0926
  148loPI   PO4 2356   4.576   3.065   9.889 -0.0334  0.0826  0.1495
  148loPI   GL1 2357   4.512   3.173   9.443  0.2562 -0.0804  0.0685
  148loPI   GL2 2358   4.699   2.950   9.377  0.1597 -0.6077  0.0850
  148loPI   C1A 2359   4.199   3.089   9.112  0.2976  0.2531  0.3962
  148loPI   C2A 2360   4.031   3.150   8.648 -0.0190 -0.0315  0.0359
  148loPI   C3A 2361   3.894   3.348   8.183  0.1152 -0.0142 -0.0105
  148loPI   C4A 2362   3.640   3.416   7.764  0.1076 -0.1907 -0.0620
  148loPI   C5A 2363   3.432   3.143   7.280 -0.2971 -0.1928 -0.0732
  148loPI   C6A 2364   3.346   2.906   6.930 -0.2217 -0.2507  0.1249
  148loPI   C1B 2365   4.769   2.506   9.149  0.0236 -0.0699 -0.1653
  148loPI   C2B 2366   4.918   2.496   8.786 -0.1098 -0.0851  0.1285
  148loPI   C3B 2367   5.145   2.425   8.377  0.2158  0.2297  0.1767
  148loPI   C4B 2368   5.303   2.145   8.008  0.1258  0.0533 -0.0805
  149loPI    C1 2369   2.969   5.862   9.873 -0.0203 -0.1790 -0.0797
  149loPI    C2 2370   3.271   5.979   9.637  0.1455 -0.1335  0.1514
  149loPI    C3 2371   3.166   6.201   9.954 -0.2549 -0.0517 -0.0314
  149loPI   PO4 2372   2.809   5.750   9.657 -0.1049  0.1245  0.4642
  149loPI   GL1 2373   2.918   5.635   9.348  0.2066  0.0205 -0.4214
  149loPI   GL2 2374   2.973   5.396   9.270 -0.1382  0.0806  0.1064
  149loPI   C1A 2375   2.827   5.803   8.980  0.0104  0.0780  0.2180
  149loPI   C2A 2376   2.771   5.973   8.626 -0.0773 -0.0072  0.1910
  149loPI   C3A 2377   2.557   5.975   8.208 -0.3338  0.6567 -0.3167
  149loPI   C4A 2378   2.513   6.062   7.800  0.0899  0.1459 -0.0380
  149loPI   C5A 2379   2.351   6.423   7.585  0.1745 -0.2532  0.1963
  149loPI   C6A 2380   2.083   6.666   7.796 -0.0978 -0.0954 -0.0422
  149loPI   C1B 2381   2.923   5.281   8.784 -0.0369 -0.2149 -0.1183
  149loPI   C2B 2382   3.061   5.128   8.429 -0.0034  0.1429 -0.0994
  149loPI   C3B 2383   3.328   5.209   8.164 -0.1831 -0.2103  0.0592
  149loPI   C4B 2384   3.262   5.310   7.723  0.2393  0.1473 -0.3097
  150loPI    C1 2385  16.948   7.605   9.861 -0.1691 -0.2347 -0.1162
  150loPI    C2 2386  16.782   7.253   9.951 -0.0699 -0.1887  0.2659
  150loPI    C3 2387  16.670   7.583  10.147 -0.1863  0.0023 -0.1124
  150loPI   PO4 2388  16.963   7.531   9.612  0.0681 -0.0111 -0.1791
  150loPI   GL1 2389  17.001   7.507   9.237 -0.1553  0.2081 -0.1655
  150loPI   GL2 2390  16.935   7.164   9.254 -0.0148 -0.0691  0.0133
  150loPI   C1A 2391  17.077   7.519   8.844  0.1545 -0.0050 -0.1474
  150loPI   C2A 2392  16.903   7.596   8.348  0.0385 -0.0006 -0.3234
  150loPI   C3A 2393  16.779   7.589   7.923  0.0217 -0.1767  0.3456
  150loPI   C4A 2394  16.858   7.430   7.487  0.1717 -0.2677  0.0773
  150loPI   C5A 2395  16.883   7.463   7.053  0.1437 -0.1266 -0.3898
  150loPI   C6A 2396  17.149   7.669   6.876  0.2114 -0.0864  0.1246
  150loPI   C1B 2397  16.844   7.059   8.846 -0.0263  0.4293  0.2881
  150loPI   C2B 2398  16.707   7.037   8.446 -0.2742 -0.0154  0.0149
  150loPI   C3B 2399  16.802   7.049   8.027 -0.0278  0.3243  0.2108
  150loPI   C4B 2400  16.891   6.930   7.571  0.1115  0.0888 -0.0468
  151loPI    C1 2401  14.781   0.747  10.158  0.2758 -0.0188 -0.0504
  151loPI    C2 2402  14.953   0.640   9.813  0.2287 -0.1151 -0.0444
  151loPI    C3 2403  15.043   0.445  10.150  0.0095 -0.2533 -0.0638
  151loPI   PO4 2404  14.536   0.728  10.149  0.0964 -0.2905  0.0104
  151loPI   GL1 2405  14.478   0.761   9.763 -0.1266 -0.2974  0.0882
  151loPI   GL2 2406  14.367   0.557   9.704 -0.1058  0.0525  0.1073
  151loPI   C1A 2407  14.695   0.817   9.340  0.2478 -0.0933 -0.2416
  151loPI   C2A 2408  15.094   0.538   9.070  0.0755 -0.0437  0.1344
  151loPI   C3A 2409  15.473   0.470   8.800 -0.1894  0.0139  0.1569
  151loPI   C4A 2410  15.535   0.327   8.364  0.1971  0.0785 -0.2357
  151loPI   C5A 2411  15.596   0.244   7.981 -0.2113 -0.0254 -0.2779
  151loPI   C6A 2412  15.771   0.164   7.502  0.4457 -0.0598 -0.1533
  151loPI   C1B 2413  14.293   0.393   9.348  0.1165 -0.2150 -0.1111
  151loPI   C2B 2414  14.168   0.285   8.972 -0.1722 -0.1081  0.1863
  151loPI   C3B 2415  14.029   0.589   8.740 -0.0260 -0.0799 -0.0054
  151loPI   C4B 2416  14.345   0.656   8.415 -0.0573 -0.1518  0.0981
  152loPI    C1 2417   4.951  15.222  10.395 -0.1293  0.0742 -0.0178
  152loPI    C2 2418   5.166  15.069  10.094 -0.2155 -0.1974  0.0559
  152loPI    C3 2419   5.260  14.980  10.473 -0.3438 -0.1682  0.0951
  152loPI   PO4 2420   4.679  15.139  10.272 -0.1020  0.2156  0.2483
  152loPI   GL1 2421   4.616  15.365   9.910  0.2279 -0.1492  0.2727
  152loPI   GL2 2422   4.468  15.077   9.825  0.1412  0.1268 -0.0989
  152loPI   C1A 2423   4.710  15.265   9.459  0.1431 -0.1437 -0.1554
  152loPI   C2A 2424   4.705  15.216   9.065 -0.0017  0.0504  0.0105
  152loPI   C3A 2425   4.704  15.127   8.555 -0.1069 -0.0610  0.0248
  152loPI   C4A 2426   4.678  15.091   8.093 -0.0229 -0.0941  0.0039
  152loPI   C5A 2427   4.787  15.116   7.692  0.0121  0.0480  0.0728
  152loPI   C6A 2428   4.880  15.119   7.255  0.0313 -0.2766 -0.0421
  152loPI   C1B 2429   4.238  14.920   9.492  0.1736  0.0862  0.2551
  152loPI   C2B 2430   4.236  14.886   9.107  0.0755 -0.0985 -0.1346
  152loPI   C3B 2431   4.210  14.856   8.688  0.0622 -0.3951  0.2216
  152loPI   C4B 2432   4.264  14.968   8.316 -0.0001  0.1679  0.0834
  153loPI    C1 2433   2.510   6.075   9.964 -0.1520 -0.0696 -0.0664
  153loPI    C2 2434   2.379   6.183  10.326 -0.0278  0.0049 -0.0432
  153loPI    C3 2435   2.490   5.805  10.259  0.0691  0.0196  0.0323
  153loPI   PO4 2436   2.618   6.262   9.891  0.2341 -0.2688 -0.3942
  153loPI   GL1 2437   2.893   6.290   9.506 -0.1405  0.0520  0.2552
  153loPI   GL2 2438   3.159   6.483   9.344 -0.0077  0.1337  0.0791
  153loPI   C1A 2439   2.678   6.373   9.192 -0.0919  0.0092  0.0211
  153loPI   C2A 2440   2.416   6.114   8.893 -0.0558  0.1936  0.1647
  153loPI   C3A 2441   2.137   6.102   8.563 -0.0736  0.1214 -0.0280
  153loPI   C4A 2442   2.022   5.959   8.232  0.1558 -0.2367  0.0041
  153loPI   C5A 2443   1.979   6.145   7.850 -0.0799 -0.1245  0.1935
  153loPI   C6A 2444   2.041   6.024   7.418  0.2275  0.0620 -0.2378
  153loPI   C1B 2445   3.235   6.061   9.121  0.0324  0.2068 -0.3515
  153loPI   C2B 2446   3.413   6.088   8.686 -0.0332  0.1619 -0.2422
  153loPI   C3B 2447   3.197   6.130   8.348  0.1970  0.0179  0.2857
  153loPI   C4B 2448   2.932   6.266   8.000  0.0660  0.0490  0.3791
  154loPI    C1 2449   3.574  16.345  10.404  0.1739  0.0414 -0.0324
  154loPI    C2 2450   3.932  16.472  10.278  0.1280  0.1640 -0.0406
  154loPI    C3 2451   3.713  16.701  10.523 -0.0051  0.1509 -0.1464
  154loPI   PO4 2452   3.641  16.096  10.302 -0.2024  0.1440  0.1203
  154loPI   GL1 2453   4.050  16.094  10.007  0.2255  0.0808  0.1481
  154loPI   GL2 2454   3.839  15.939   9.860  0.0026 -0.1103  0.1537
  154loPI   C1A 2455   4.016  16.399   9.740  0.2358  0.0801 -0.0870
  154loPI   C2A 2456   4.028  16.438   9.287  0.2116 -0.1951 -0.0482
  154loPI   C3A 2457   4.087  16.405   8.847  0.0986  0.2897  0.1047
  154loPI   C4A 2458   4.097  16.477   8.464  0.2317  0.2273  0.0773
  154loPI   C5A 2459   4.097  16.438   8.052 -0.0925  0.0399 -0.1575
  154loPI   C6A 2460   4.436  16.562   7.841  0.2524  0.0465  0.1741
  154loPI   C1B 2461   4.150  15.974   9.491  0.0462  0.2776  0.1596
  154loPI   C2B 2462   4.121  15.925   9.037  0.0876 -0.0700 -0.1279
  154loPI   C3B 2463   4.050  15.853   8.615 -0.1788  0.2517 -0.1069
  154loPI   C4B 2464   4.044  15.899   8.214 -0.1121 -0.2270  0.1667
  155loPI    C1 2465   0.319   7.782  10.080  0.0859  0.3016  0.1959
  155loPI    C2 2466   0.087   7.705  10.397  0.0842 -0.1095  0.1004
  155loPI    C3 2467   0.412   7.482  10.327  0.0279 -0.0904 -0.2422
  155loPI   PO4 2468   0.160   7.723   9.847  0.0208 -0.0827 -0.0913
  155loPI   GL1 2469   0.345   7.611   9.423  0.1882  0.0654 -0.0155
  155loPI   GL2 2470   0.687   7.629   9.294  0.5080 -0.2396  0.0265
  155loPI   C1A 2471  -0.014   7.490   9.095 -0.1296  0.4520 -0.0185
  155loPI   C2A 2472   0.137   7.370   8.642  0.2746  0.0799  0.0404
  155loPI   C3A 2473   0.138   7.330   8.234 -0.1166 -0.3258  0.1716
  155loPI   C4A 2474   0.354   7.404   7.734 -0.0169 -0.1611  0.1385
  155loPI   C5A 2475   0.203   7.447   7.300  0.0997  0.0108 -0.1497
  155loPI   C6A 2476   0.050   7.540   6.944 -0.1631 -0.3013 -0.1744
  155loPI   C1B 2477   0.564   7.580   8.904 -0.3735  0.3242  0.0921
  155loPI   C2B 2478   0.733   7.665   8.418  0.2220  0.0234 -0.0893
  155loPI   C3B 2479   0.927   7.406   8.075 -0.3292 -0.0955 -0.0678
  155loPI   C4B 2480   0.817   7.249   7.706  0.0201  0.2006  0.0949
  156loPI    C1 2481   8.454  11.748  10.166 -0.1291 -0.1350  0.2121
  156loPI    C2 2482   8.230  11.919  10.449  0.0512  0.1682  0.1757
  156loPI    C3 2483   8.614  12.024  10.407  0.1055 -0.0894  0.0092
  156loPI   PO4 2484   8.352  11.810   9.863  0.2348 -0.2052 -0.2722
  156loPI   GL1 2485   8.217  11.455   9.575 -0.1012  0.0600 -0.4030
  156loPI   GL2 2486   7.907  11.455   9.486  0.1575  0.2507 -0.0010
  156loPI   C1A 2487   8.315  11.331   9.165 -0.1654 -0.2879 -0.0119
  156loPI   C2A 2488   8.470  10.972   9.055 -0.0937 -0.0638  0.0188
  156loPI   C3A 2489   8.229  10.672   8.804  0.1776 -0.0780  0.0100
  156loPI   C4A 2490   8.414  10.539   8.373 -0.1226 -0.2120  0.1363
  156loPI   C5A 2491   8.421  10.381   7.941  0.2611  0.1771  0.1707
  156loPI   C6A 2492   8.382  10.357   7.472 -0.1082 -0.0831  0.1240
  156loPI   C1B 2493   8.096  11.762   9.128 -0.0225  0.0218 -0.1027
  156loPI   C2B 2494   8.277  11.678   8.755 -0.1112 -0.2470  0.0680
  156loPI   C3B 2495   8.324  11.607   8.290 -0.0439  0.1238 -0.1379
  156loPI   C4B 2496   8.178  11.266   8.028  0.0541 -0.0473  0.0397
  157loPI    C1 2497   5.019   7.939   9.979 -0.1337 -0.3061  0.2348
  157loPI    C2 2498   5.254   8.052  10.282 -0.0256 -0.2453  0.1294
  157loPI    C3 2499   4.929   8.266  10.192  0.0783 -0.1216  0.0464
  157loPI   PO4 2500   5.163   7.739   9.805  0.1004 -0.4034 -0.2144
  157loPI   GL1 2501   5.055   7.394   9.543  0.1513  0.3283 -0.1649
  157loPI   GL2 2502   5.153   7.049   9.475 -0.0950  0.1125  0.0104
  157loPI   C1A 2503   5.235   7.399   9.153 -0.0285  0.0192 -0.0179
  157loPI   C2A 2504   5.309   7.244   8.755  0.0388 -0.0697  0.0299
  157loPI   C3A 2505   5.391   7.178   8.382 -0.0640 -0.0371 -0.1204
  157loPI   C4A 2506   5.019   6.972   8.119  0.1990  0.3315 -0.0868
  157loPI   C5A 2507   4.582   7.280   8.026 -0.2069  0.1433  0.0699
  157loPI   C6A 2508   4.232   7.594   7.928  0.0557 -0.1166  0.0543
  157loPI   C1B 2509   5.193   6.826   9.132 -0.3555 -0.0462  0.0055
  157loPI   C2B 2510   5.460   6.774   8.815  0.0997  0.2810  0.1380
  157loPI   C3B 2511   5.819   6.901   8.444 -0.2854  0.1778  0.0066
  157loPI   C4B 2512   5.795   7.138   8.071 -0.1393  0.0129 -0.1846
  158loPI    C1 2513  12.742  16.510  10.403 -0.0203  0.0336 -0.0675
  158loPI    C2 2514  12.931  16.807  10.592  0.1068 -0.3066  0.3572
  158loPI    C3 2515  12.532  16.785  10.604  0.0778 -0.0017  0.0854
  158loPI   PO4 2516  12.808  16.599  10.110 -0.1820 -0.2385  0.1377
  158loPI   GL1 2517  12.705  16.468   9.766 -0.1707 -0.2722  0.3345
  158loPI   GL2 2518  12.378  16.429   9.789 -0.0155  0.0483  0.1796
  158loPI   C1A 2519  12.739  16.491   9.330 -0.2407  0.0702  0.0147
  158loPI   C2A 2520  12.986  16.472   8.998 -0.2765  0.0858  0.0761
  158loPI   C3A 2521  13.059  16.454   8.601  0.0514 -0.1675  0.1236
  158loPI   C4A 2522  12.852  16.658   8.208 -0.2406  0.2617  0.4646
  158loPI   C5A 2523  12.690  17.055   7.932 -0.2896 -0.0685 -0.0352
  158loPI   C6A 2524  12.727  17.323   7.635 -0.2453 -0.1283  0.1720
  158loPI   C1B 2525  12.207  16.327   9.390 -0.0370 -0.0005 -0.0121
  158loPI   C2B 2526  12.139  16.073   8.963  0.2891 -0.1704 -0.1310
  158loPI   C3B 2527  12.490  15.894   8.724 -0.0577  0.4323 -0.0555
  158loPI   C4B 2528  12.902  15.980   8.578  0.3345 -0.2130  0.1428
  159loPI    C1 2529   7.622   6.614  10.408 -0.1872  0.0211 -0.3023
  159loPI    C2 2530   7.512   6.322  10.657 -0.0643  0.2603  0.0397
  159loPI    C3 2531   7.242   6.588  10.528 -0.1838 -0.0177 -0.2997
  159loPI   PO4 2532   7.697   6.534  10.170  0.0914 -0.2893 -0.1011
  159loPI   GL1 2533   7.855   6.644   9.859 -0.0073 -0.1858 -0.2453
  159loPI   GL2 2534   7.679   6.791   9.705  0.2744  0.0443  0.1019
  159loPI   C1A 2535   7.979   6.518   9.412  0.2003  0.1945  0.3300
  159loPI   C2A 2536   8.077   6.470   8.952  0.2380  0.2396 -0.2306
  159loPI   C3A 2537   8.196   6.470   8.652  0.0554 -0.0430 -0.3662
  159loPI   C4A 2538   8.134   6.400   8.219  0.3099 -0.0189 -0.2682
  159loPI   C5A 2539   8.221   6.274   7.767 -0.0461 -0.2268  0.2470
  159loPI   C6A 2540   8.437   5.993   7.611 -0.0193 -0.1584  0.2158
  159loPI   C1B 2541   7.617   6.693   9.184  0.0202 -0.0986 -0.1180
  159loPI   C2B 2542   7.659   6.752   8.680  0.1905  0.0416 -0.0419
  159loPI   C3B 2543   7.252   7.050   8.551 -0.2727 -0.2792 -0.2117
  159loPI   C4B 2544   6.872   7.327   8.408  0.0987 -0.0429 -0.0566
  160loPI    C1 2545   0.676  15.699  10.041  0.0271  0.0023  0.1097
  160loPI    C2 2546   0.618  15.852  10.406 -0.0274 -0.0706  0.1319
  160loPI    C3 2547   0.404  15.536  10.286 -0.1814  0.1008 -0.0526
  160loPI   PO4 2548   0.739  15.918   9.945 -0.1199 -0.1300  0.2548
  160loPI   GL1 2549   0.894  15.928   9.552 -0.0091  0.2818  0.1881
  160loPI   GL2 2550   1.256  15.950   9.604 -0.1257  0.2253 -0.0672
  160loPI   C1A 2551   1.056  16.099   9.173  0.1241 -0.2191  0.1130
  160loPI   C2A 2552   1.065  15.993   8.834 -0.1044  0.1246 -0.0330
  160loPI   C3A 2553   1.230  15.668   8.549  0.3242 -0.2231  0.1120
  160loPI   C4A 2554   1.301  15.607   8.113  0.0107  0.0061  0.4025
  160loPI   C5A 2555   1.155  15.442   7.753 -0.1000  0.0192 -0.1131
  160loPI   C6A 2556   1.249  15.415   7.396 -0.0346 -0.0938 -0.2036
  160loPI   C1B 2557   1.537  16.046   9.309  0.0349  0.0190  0.3583
  160loPI   C2B 2558   1.523  15.884   8.904  0.1253 -0.0363 -0.1175
  160loPI   C3B 2559   1.735  15.866   8.542 -0.1422 -0.1890  0.1281
  160loPI   C4B 2560   1.816  15.771   8.118 -0.2789  0.2907  0.1602
  161loPI    C1 2561  17.895  11.663   9.878  0.1594 -0.1844 -0.1583
  161loPI    C2 2562  18.091  11.634  10.225 -0.0049 -0.1038 -0.0578
  161loPI    C3 2563  17.848  11.339  10.108 -0.0238 -0.0881 -0.0578
  161loPI   PO4 2564  18.068  11.732   9.638  0.2588 -0.0421 -0.3463
  161loPI   GL1 2565  18.152  11.654   9.232 -0.0546  0.1117 -0.3583
  161loPI   GL2 2566  18.465  11.534   9.377 -0.1853  0.1165 -0.1606
  161loPI   C1A 2567  18.256  11.629   8.819  0.0126  0.2170  0.0607
  161loPI   C2A 2568  18.397  11.535   8.412 -0.1168 -0.0115 -0.1219
  161loPI   C3A 2569  18.552  11.674   8.014  0.0099 -0.1729  0.0194
  161loPI   C4A 2570  18.868  11.557   7.673 -0.1116  0.1751  0.0552
  161loPI   C5A 2571  19.381  11.654   7.686  0.0511 -0.1446 -0.0415
  161loPI   C6A 2572  19.726  11.581   7.347 -0.0665 -0.0143  0.2457
  161loPI   C1B 2573  18.704  11.309   9.071  0.0391 -0.1625  0.4494
  161loPI   C2B 2574  18.870  11.358   8.731  0.1987  0.0075 -0.1191
  161loPI   C3B 2575  19.248  11.417   8.676  0.2252  0.0066  0.2910
  161loPI   C4B 2576  19.644  11.243   8.561  0.0405 -0.0640  0.2468
  162loPI    C1 2577   9.098   9.443  10.083  0.0457  0.0264  0.1168
  162loPI    C2 2578   8.987   9.681  10.384 -0.2241  0.0597 -0.0062
  162loPI    C3 2579   9.242   9.815  10.106 -0.2312  0.1413  0.0264
  162loPI   PO4 2580   8.950   9.363  10.020  0.2031  0.0905  0.1072
  162loPI   GL1 2581   9.025   9.161   9.552 -0.1615 -0.2052  0.2560
  162loPI   GL2 2582   8.777   9.263   9.440 -0.0347 -0.1605  0.1732
  162loPI   C1A 2583   9.072   9.210   9.010  0.2647 -0.1300 -0.1813
  162loPI   C2A 2584   9.217   9.259   8.567  0.2555  0.2301  0.0835
  162loPI   C3A 2585   9.044   9.191   8.258 -0.2937  0.1581 -0.0394
  162loPI   C4A 2586   9.089   9.308   7.760  0.1587  0.1017  0.0756
  162loPI   C5A 2587   9.342   9.425   7.462  0.2091  0.1924  0.1629
  162loPI   C6A 2588   9.480   9.691   7.073 -0.2565  0.0372 -0.1633
  162loPI   C1B 2589   8.677   9.479   9.092 -0.2332  0.1360 -0.1415
  162loPI   C2B 2590   8.796   9.843   8.788  0.0371 -0.2525  0.0400
  162loPI   C3B 2591   8.949   9.688   8.436 -0.3215  0.0434  0.0370
  162loPI   C4B 2592   9.027   9.730   8.042  0.0370  0.1280 -0.3470
  163loPI    C1 2593  13.337   4.127  10.177  0.0978 -0.0718  0.1125
  163loPI    C2 2594  13.182   4.295  10.506 -0.1677  0.1436 -0.1175
  163loPI    C3 2595  13.577   4.307  10.442 -0.1339  0.2628  0.1019
  163loPI   PO4 2596  13.129   4.223   9.975  0.0364 -0.2067 -0.1234
  163loPI   GL1 2597  12.819   4.357   9.633 -0.1697 -0.4096 -0.0650
  163loPI   GL2 2598  12.475   4.264   9.479 -0.0212  0.2185 -0.0127
  163loPI   C1A 2599  12.943   4.530   9.278 -0.1870  0.1440  0.3616
  163loPI   C2A 2600  13.286   4.224   9.089  0.1847  0.0640 -0.2618
  163loPI   C3A 2601  13.530   4.436   8.734 -0.0566 -0.2571 -0.0742
  163loPI   C4A 2602  13.743   4.512   8.398 -0.2168 -0.1242 -0.1589
  163loPI   C5A 2603  13.778   4.614   7.971 -0.1663 -0.2967  0.2488
  163loPI   C6A 2604  13.664   4.679   7.636  0.1069 -0.2992  0.0455
  163loPI   C1B 2605  12.360   3.971   9.139 -0.1377  0.0146 -0.1964
  163loPI   C2B 2606  12.403   4.038   8.718 -0.0644 -0.1029 -0.1551
  163loPI   C3B 2607  12.675   4.081   8.418 -0.1196  0.1285 -0.1019
  163loPI   C4B 2608  12.830   4.461   8.118  0.0356  0.0665  0.4361
  164loPI    C1 2609  13.802   5.960  10.309 -0.0510 -0.2508 -0.0791
  164loPI    C2 2610  13.527   5.756  10.516 -0.0127  0.0385  0.2658
  164loPI    C3 2611  13.881   5.841  10.683  0.1028  0.0879  0.0000
  164loPI   PO4 2612  13.767   5.796  10.089 -0.0088 -0.1082 -0.0193
  164loPI   GL1 2613  13.859   5.692   9.540  0.0936  0.4024 -0.2303
  164loPI   GL2 2614  13.506   5.589   9.681 -0.1851  0.0097 -0.3709
  164loPI   C1A 2615  14.038   5.876   9.180 -0.3342  0.3738 -0.2347
  164loPI   C2A 2616  14.120   5.880   8.734 -0.0976 -0.0360  0.0091
  164loPI   C3A 2617  14.212   6.157   8.405  0.2241 -0.3089  0.0856
  164loPI   C4A 2618  14.243   6.357   7.974  0.0422 -0.0466 -0.2881
  164loPI   C5A 2619  14.247   6.273   7.506  0.0703 -0.1368  0.1117
  164loPI   C6A 2620  14.224   6.228   7.035  0.3839 -0.2549 -0.4038
  164loPI   C1B 2621  13.438   5.440   9.288  0.1195  0.3333  0.2903
  164loPI   C2B 2622  13.292   5.418   8.853  0.2869 -0.0963  0.0723
  164loPI   C3B 2623  13.300   5.267   8.418  0.2458  0.2070 -0.0813
  164loPI   C4B 2624  13.284   5.447   8.110  0.1526 -0.1211  0.1310
  165loPI    C1 2625   2.716  18.156   9.807  0.0159  0.1380  0.1218
  165loPI    C2 2626   3.039  17.923   9.845  0.0012  0.1147  0.1030
  165loPI    C3 2627   2.914  18.143  10.155  0.1399  0.2604  0.0571
  165loPI   PO4 2628   2.525  18.053   9.693 -0.2096  0.0568  0.0094
  165loPI   GL1 2629   2.438  18.030   9.255  0.1922  0.2283 -0.0213
  165loPI   GL2 2630   2.573  18.312   9.262 -0.0908  0.0012 -0.3060
  165loPI   C1A 2631   2.395  17.654   8.882 -0.1128 -0.0849 -0.3712
  165loPI   C2A 2632   2.490  17.446   8.501 -0.0515 -0.0931 -0.1707
  165loPI   C3A 2633   2.303  17.396   8.132  0.1019 -0.2181  0.1944
  165loPI   C4A 2634   1.924  17.410   7.961  0.1465  0.2324  0.1214
  165loPI   C5A 2635   1.804  16.979   7.724 -0.2833 -0.0076 -0.1647
  165loPI   C6A 2636   1.748  16.617   8.031 -0.1596  0.1921  0.2494
  165loPI   C1B 2637   2.779  18.144   8.886 -0.2076  0.3697  0.3247
  165loPI   C2B 2638   2.696  17.894   8.481  0.1252  0.0328 -0.0197
  165loPI   C3B 2639   2.738  17.825   7.975 -0.0917 -0.0999 -0.2767
  165loPI   C4B 2640   2.849  17.676   7.619 -0.2647 -0.2143 -0.1050
  166loPI    C1 2641   9.583  15.913  10.940 -0.0451 -0.0889  0.0891
  166loPI    C2 2642   9.343  15.995  11.249  0.0719  0.0072  0.1553
  166loPI    C3 2643   9.739  16.048  11.283  0.1035 -0.1535  0.0481
  166loPI   PO4 2644   9.658  16.052  10.682 -0.0316  0.2169 -0.0564
  166loPI   GL1 2645   9.733  16.127  10.222  0.1009  0.2231  0.0445
  166loPI   GL2 2646   9.683  15.921  10.141  0.2728  0.2821 -0.1656
  166loPI   C1A 2647   9.590  16.284   9.768  0.2799  0.0077  0.1461
  166loPI   C2A 2648   9.642  16.401   9.346 -0.1138  0.0339 -0.0752
  166loPI   C3A 2649   9.460  16.289   8.983 -0.0264  0.0691 -0.0163
  166loPI   C4A 2650   9.468  16.281   8.613 -0.0426 -0.1763  0.1526
  166loPI   C5A 2651   9.404  16.360   8.161  0.0072  0.1522  0.0827
  166loPI   C6A 2652   9.459  16.632   7.821 -0.1797 -0.1018 -0.2036
  166loPI   C1B 2653   9.776  15.877   9.594 -0.0038 -0.2052 -0.2121
  166loPI   C2B 2654   9.789  15.937   9.123  0.0395  0.0350  0.3599
  166loPI   C3B 2655   9.841  15.962   8.737 -0.2425  0.0478  0.0106
  166loPI   C4B 2656   9.875  16.034   8.288 -0.1599  0.1269  0.0738
  167loPI    C1 2657  11.208   9.723  10.273  0.1589 -0.1985  0.0392
  167loPI    C2 2658  11.078   9.944  10.581  0.0287 -0.0657 -0.1090
  167loPI    C3 2659  11.084   9.545  10.609  0.1534 -0.0497  0.1171
  167loPI   PO4 2660  11.460   9.846  10.123  0.0125  0.2050 -0.0395
  167loPI   GL1 2661  11.397   9.966   9.799 -0.0499 -0.0256  0.0283
  167loPI   GL2 2662  11.065   9.925   9.795 -0.1397  0.0531  0.1963
  167loPI   C1A 2663  11.372  10.090   9.346  0.1347 -0.2204  0.0089
  167loPI   C2A 2664  11.326  10.063   8.925 -0.1113 -0.4201  0.1558
  167loPI   C3A 2665  11.312   9.997   8.418  0.0618 -0.0312 -0.5089
  167loPI   C4A 2666  11.140   9.889   8.034 -0.0792  0.1012 -0.0391
  167loPI   C5A 2667  10.870   9.958   7.684  0.0242  0.0275 -0.0394
  167loPI   C6A 2668  10.715   9.809   7.295 -0.1832  0.0899  0.2545
  167loPI   C1B 2669  11.059   9.628   9.526 -0.2397  0.0330 -0.1503
  167loPI   C2B 2670  10.782   9.533   9.202  0.2305 -0.2573 -0.1193
  167loPI   C3B 2671  10.864   9.435   8.757 -0.0675  0.1837  0.1388
  167loPI   C4B 2672  11.061   9.527   8.335 -0.2211 -0.3375  0.0622
  168loPI    C1 2673   8.375   0.581  10.199  0.0995  0.0863  0.0276
  168loPI    C2 2674   8.061   0.528  10.441  0.1348 -0.1085  0.0326
  168loPI    C3 2675   8.039   0.788  10.138  0.1094  0.1786  0.2765
  168loPI   PO4 2676   8.436   0.248  10.123 -0.1458 -0.3209 -0.1929
  168loPI   GL1 2677   8.621   0.078   9.817  0.1321  0.2598  0.1009
  168loPI   GL2 2678   8.674  -0.188   9.839  0.0080  0.1432 -0.2753
  168loPI   C1A 2679   8.516   0.109   9.400  0.0474  0.0824 -0.2009
  168loPI   C2A 2680   8.368   0.211   9.065 -0.0399  0.0353 -0.0262
  168loPI   C3A 2681   8.359   0.150   8.667  0.1557 -0.1112 -0.3756
  168loPI   C4A 2682   8.458  -0.256   8.385  0.0617  0.2713 -0.0873
  168loPI   C5A 2683   8.573  -0.410   7.987 -0.1011  0.0371  0.2537
  168loPI   C6A 2684   8.600  -0.777   7.808 -0.0743 -0.2077  0.0005
  168loPI   C1B 2685   8.777  -0.315   9.309 -0.1537 -0.0239  0.1905
  168loPI   C2B 2686   9.041  -0.522   8.999  0.1044  0.0334 -0.1584
  168loPI   C3B 2687   9.318  -0.641   8.764  0.1183  0.0563 -0.1303
  168loPI   C4B 2688   9.404  -0.845   8.383 -0.0679 -0.0873  0.0655
  169loPI    C1 2689   3.022  10.809  10.743  0.0159 -0.0170 -0.1240
  169loPI    C2 2690   2.717  10.887  10.990  0.1280 -0.1458  0.0581
  169loPI    C3 2691   3.006  11.159  10.936 -0.1443  0.0803 -0.3109
  169loPI   PO4 2692   2.912  10.533  10.523  0.0913  0.1129 -0.0003
  169loPI   GL1 2693   2.902  10.536  10.095  0.0157  0.1534  0.0993
  169loPI   GL2 2694   3.005  10.311   9.852  0.0809 -0.1970 -0.1241
  169loPI   C1A 2695   2.982  10.825   9.855 -0.0092  0.0089 -0.0758
  169loPI   C2A 2696   3.147  11.111   9.559 -0.1273 -0.1800  0.1359
  169loPI   C3A 2697   3.261  11.398   9.271  0.0458 -0.0516 -0.0054
  169loPI   C4A 2698   3.133  11.433   8.799  0.2017  0.0556  0.4499
  169loPI   C5A 2699   3.127  11.412   8.380  0.2029  0.0235  0.1434
  169loPI   C6A 2700   3.009  11.433   8.013 -0.1986 -0.0027  0.1719
  169loPI   C1B 2701   3.172  10.614   9.496  0.1939  0.3414  0.0414
  169loPI   C2B 2702   3.289  10.831   9.073  0.2357 -0.0767 -0.0953
  169loPI   C3B 2703   3.244  10.904   8.653 -0.0904  0.0906  0.4531
  169loPI   C4B 2704   3.186  10.976   8.238  0.0379 -0.0699 -0.1576
  170loPI    C1 2705   1.403   0.486  10.148 -0.0077 -0.0839  0.0329
  170loPI    C2 2706   1.316   0.874  10.191  0.1022 -0.0444 -0.0969
  170loPI    C3 2707   1.265   0.623  10.498 -0.0278  0.0612 -0.0312
  170loPI   PO4 2708   1.418   0.508   9.792 -0.3243  0.3491 -0.0290
  170loPI   GL1 2709   1.504   0.309   9.433 -0.0592 -0.2647  0.2592
  170loPI   GL2 2710   1.610  -0.065   9.537 -0.0625 -0.3347 -0.1478
  170loPI   C1A 2711   1.627   0.402   9.009 -0.2252  0.1675 -0.2928
  170loPI   C2A 2712   1.775   0.284   8.620 -0.3804 -0.3103 -0.1475
  170loPI   C3A 2713   1.704   0.232   8.197  0.0237 -0.0883 -0.0323
  170loPI   C4A 2714   1.885   0.017   7.717  0.2386  0.0492 -0.2342
  170loPI   C5A 2715   2.148  -0.191   7.499 -0.1113  0.1631 -0.2587
  170loPI   C6A 2716   2.533  -0.346   7.257 -0.2482  0.0408 -0.0370
  170loPI   C1B 2717   1.407  -0.169   9.157  0.0954 -0.1359  0.1799
  170loPI   C2B 2718   1.387  -0.076   8.828  0.0013  0.0966 -0.2774
  170loPI   C3B 2719   1.225   0.038   8.448  0.4583 -0.0788  0.2493
  170loPI   C4B 2720   1.346  -0.062   7.970 -0.1505 -0.1257  0.1774
  171loPI    C1 2721  12.938   8.837   9.995  0.1043 -0.4127 -0.0402
  171loPI    C2 2722  13.259   9.039  10.124 -0.1872 -0.0069  0.0702
  171loPI    C3 2723  13.035   8.831  10.383 -0.2310  0.0251  0.0581
  171loPI   PO4 2724  12.909   9.050   9.722  0.2399 -0.3631 -0.1314
  171loPI   GL1 2725  13.050   9.115   9.262 -0.0750  0.1930 -0.3821
  171loPI   GL2 2726  13.179   9.390   9.038 -0.0770 -0.0891 -0.1344
  171loPI   C1A 2727  13.367   8.947   8.935  0.0032 -0.2988  0.2171
  171loPI   C2A 2728  13.456   8.784   8.465 -0.0542 -0.1412  0.1735
  171loPI   C3A 2729  13.739   8.909   8.144 -0.0923  0.2456  0.0522
  171loPI   C4A 2730  13.903   9.081   7.727 -0.1016  0.3245 -0.1795
  171loPI   C5A 2731  14.138   9.037   7.340  0.1329  0.1320  0.0385
  171loPI   C6A 2732  14.005   8.701   7.113  0.3186 -0.0402 -0.0394
  171loPI   C1B 2733  13.477   9.405   8.673  0.1568 -0.1136  0.0943
  171loPI   C2B 2734  13.504   9.653   8.390  0.1198  0.0272 -0.1117
  171loPI   C3B 2735  13.481  10.149   8.186 -0.0103 -0.0532 -0.1200
  171loPI   C4B 2736  13.418  10.365   7.805 -0.1635 -0.0232  0.0377
  172loPI    C1 2737   7.209   6.419   9.926  0.0630  0.0779  0.2028
  172loPI    C2 2738   6.923   6.646  10.089 -0.2733 -0.2935  0.1467
  172loPI    C3 2739   6.912   6.249  10.133  0.0531 -0.3392 -0.1398
  172loPI   PO4 2740   7.280   6.535   9.728  0.0205 -0.3339  0.2401
  172loPI   GL1 2741   7.069   6.599   9.321  0.1453  0.0782  0.0064
  172loPI   GL2 2742   6.906   6.330   9.232  0.0648  0.3800  0.1296
  172loPI   C1A 2743   7.237   6.580   8.890 -0.2361 -0.1445  0.0707
  172loPI   C2A 2744   7.199   6.462   8.522 -0.0112  0.0451 -0.0791
  172loPI   C3A 2745   7.150   6.650   8.060 -0.1453  0.1067 -0.2229
  172loPI   C4A 2746   7.196   6.741   7.646 -0.1261  0.1205  0.1674
  172loPI   C5A 2747   7.162   7.188   7.410 -0.3370  0.1936 -0.2750
  172loPI   C6A 2748   7.372   7.659   7.424 -0.1599  0.0251 -0.0361
  172loPI   C1B 2749   6.649   5.932   8.958 -0.2009  0.1661 -0.1645
  172loPI   C2B 2750   6.572   5.628   8.576  0.0170 -0.1944  0.2748
  172loPI   C3B 2751   6.711   5.705   8.175  0.0516  0.0385 -0.0496
  172loPI   C4B 2752   7.080   5.785   7.817 -0.0108 -0.0408 -0.1564
  173loPI    C1 2753  12.921  15.365  10.511  0.1321 -0.0440  0.1415
  173loPI    C2 2754  13.202  15.628  10.401 -0.1502  0.1548 -0.1203
  173loPI    C3 2755  13.040  15.650  10.765  0.1246  0.0786  0.0094
  173loPI   PO4 2756  12.724  15.358  10.359 -0.2374 -0.1604  0.2067
  173loPI   GL1 2757  12.639  15.450   9.982  0.3654 -0.3519 -0.1999
  173loPI   GL2 2758  12.914  15.710   9.979  0.0144 -0.0471  0.1189
  173loPI   C1A 2759  12.626  15.394   9.549  0.0884 -0.1091  0.0337
  173loPI   C2A 2760  12.731  15.388   9.067 -0.2267 -0.0546  0.0225
  173loPI   C3A 2761  12.770  15.480   8.680  0.2161 -0.0300 -0.1474
  173loPI   C4A 2762  12.617  15.742   8.259  0.2799  0.3336 -0.1785
  173loPI   C5A 2763  12.636  16.102   7.873 -0.0054  0.1034  0.4183
  173loPI   C6A 2764  12.526  16.528   7.782  0.1658  0.0194  0.0205
  173loPI   C1B 2765  13.106  15.488   9.679 -0.0850 -0.0246 -0.1127
  173loPI   C2B 2766  13.490  15.529   9.441  0.1241  0.1215  0.4271
  173loPI   C3B 2767  13.660  15.515   9.027 -0.0389  0.0343 -0.1518
  173loPI   C4B 2768  13.728  15.505   8.545 -0.0288  0.0581  0.1560
  174loPI    C1 2769   0.648   8.200  10.227  0.1883  0.2203 -0.0367
  174loPI    C2 2770   0.766   7.829  10.136 -0.1686  0.0487  0.1777
  174loPI    C3 2771   0.968   8.042  10.407  0.1362  0.0790 -0.0675
  174loPI   PO4 2772   0.553   8.254   9.997  0.0588  0.2018  0.0945
  174loPI   GL1 2773   0.580   8.078   9.531 -0.0044  0.3860  0.2720
  174loPI   GL2 2774   0.570   8.407   9.526 -0.1128  0.0042  0.3307
  174loPI   C1A 2775   0.665   8.082   9.006 -0.1341  0.2316 -0.0551
  174loPI   C2A 2776   0.561   8.081   8.539  0.0839 -0.1791 -0.1768
  174loPI   C3A 2777   0.448   7.956   8.063  0.1623  0.2302 -0.1417
  174loPI   C4A 2778   0.386   7.960   7.626  0.0875  0.5042 -0.3582
  174loPI   C5A 2779   0.293   8.147   7.251 -0.0204 -0.3194 -0.0196
  174loPI   C6A 2780   0.028   8.071   6.939  0.2356 -0.6780 -0.0855
  174loPI   C1B 2781   0.733   8.640   9.262 -0.1777 -0.1653  0.0646
  174loPI   C2B 2782   0.986   8.845   8.953  0.1791  0.0418  0.2077
  174loPI   C3B 2783   0.994   9.104   8.560 -0.4487 -0.2986  0.3225
  174loPI   C4B 2784   0.995   9.166   8.068 -0.2201  0.0790  0.0841
  175loPI    C1 2785   6.773   7.512   9.792  0.0939  0.0133 -0.0334
  175loPI    C2 2786   6.949   7.636  10.129 -0.0679  0.1944 -0.0134
  175loPI    C3 2787   6.894   7.245  10.064 -0.1029  0.1618  0.2044
  175loPI   PO4 2788   6.736   7.758   9.711 -0.1681 -0.1584  0.1692
  175loPI   GL1 2789   6.843   8.075   9.448  0.0506  0.1980  0.2223
  175loPI   GL2 2790   6.679   7.864   9.235 -0.1590 -0.1772  0.2275
  175loPI   C1A 2791   7.005   8.385   9.175  0.0296  0.1152 -0.0530
  175loPI   C2A 2792   7.012   8.401   8.783 -0.0842  0.2663  0.3168
  175loPI   C3A 2793   6.927   8.524   8.381  0.0227  0.1925  0.0196
  175loPI   C4A 2794   6.723   8.628   8.051  0.1183  0.2054 -0.0283
  175loPI   C5A 2795   6.660   8.934   7.703  0.0424  0.0932  0.2203
  175loPI   C6A 2796   6.293   9.167   7.569 -0.0758 -0.0252  0.1409
  175loPI   C1B 2797   6.523   8.007   8.908 -0.1189 -0.0083  0.3130
  175loPI   C2B 2798   6.552   8.247   8.593  0.0196  0.0903  0.0042
  175loPI   C3B 2799   6.482   8.186   8.186 -0.3636  0.0398  0.3040
  175loPI   C4B 2800   6.651   8.217   7.842  0.1071  0.0024  0.0939
  176loPI    C1 2801   3.124  12.558  10.691  0.1783 -0.1929 -0.1332
  176loPI    C2 2802   3.154  12.241  10.932  0.3066 -0.1449 -0.0849
  176loPI    C3 2803   2.881  12.524  11.007  0.0538 -0.3422 -0.2439
  176loPI   PO4 2804   3.029  12.416  10.404  0.1349 -0.0774  0.2578
  176loPI   GL1 2805   3.259  12.286  10.093 -0.1593 -0.0664 -0.3809
  176loPI   GL2 2806   3.292  12.030   9.916  0.1960  0.0567 -0.3428
  176loPI   C1A 2807   3.005  12.337   9.624  0.0166 -0.1299 -0.1170
  176loPI   C2A 2808   3.083  12.434   9.231 -0.0336  0.0996  0.1869
  176loPI   C3A 2809   3.071  12.413   8.738  0.0591  0.3790  0.0623
  176loPI   C4A 2810   2.961  12.454   8.270 -0.3063  0.0961 -0.2231
  176loPI   C5A 2811   2.938  12.523   7.820  0.2631 -0.0568  0.3883
  176loPI   C6A 2812   2.871  12.661   7.434 -0.1662 -0.0624 -0.2630
  176loPI   C1B 2813   3.205  11.871   9.539  0.0674 -0.2278  0.0275
  176loPI   C2B 2814   3.118  11.878   9.141  0.1811  0.3252 -0.0475
  176loPI   C3B 2815   3.047  11.940   8.631 -0.0770  0.1236 -0.0511
  176loPI   C4B 2816   3.123  11.986   8.181  0.0470 -0.2614  0.1481
  177loPI    C1 2817  14.342   5.882  10.212 -0.0645 -0.0558  0.0356
  177loPI    C2 2818  14.402   5.736  10.579  0.1799  0.0446  0.0378
  177loPI    C3 2819  14.336   6.127  10.528  0.0162  0.0109 -0.0138
  177loPI   PO4 2820  14.323   5.621  10.030  0.0954 -0.0005 -0.2438
  177loPI   GL1 2821  14.338   5.489   9.587 -0.0168  0.0439  0.2681
  177loPI   GL2 2822  14.645   5.353   9.711  0.4310  0.0412 -0.0255
  177loPI   C1A 2823  14.368   5.407   9.143 -0.0080 -0.0852 -0.1305
  177loPI   C2A 2824  14.215   5.316   8.719  0.0898  0.0689  0.3151
  177loPI   C3A 2825  14.188   5.312   8.322 -0.2478  0.0259 -0.3154
  177loPI   C4A 2826  14.212   5.224   7.929  0.2463 -0.2366  0.0759
  177loPI   C5A 2827  14.380   5.304   7.517 -0.2213 -0.1726 -0.3805
  177loPI   C6A 2828  14.534   5.286   7.150 -0.1921  0.0662  0.2980
  177loPI   C1B 2829  14.679   5.059   9.451 -0.0966  0.1708 -0.1167
  177loPI   C2B 2830  14.987   4.957   9.177 -0.1289 -0.0422 -0.0611
  177loPI   C3B 2831  15.062   5.019   8.788  0.0457 -0.2367 -0.2172
  177loPI   C4B 2832  15.272   4.831   8.425  0.1216 -0.1740 -0.0698
  178loPI    C1 2833   6.935   3.997  10.066 -0.0793 -0.0836 -0.0683
  178loPI    C2 2834   6.562   4.045  10.201 -0.1078 -0.2120 -0.1005
  178loPI    C3 2835   6.866   4.017  10.460 -0.0848  0.1696 -0.0802
  178loPI   PO4 2836   6.970   4.167   9.808 -0.1141  0.2091  0.1402
  178loPI   GL1 2837   7.132   4.288   9.390  0.0096  0.5796  0.0463
  178loPI   GL2 2838   7.053   4.538   9.236 -0.1178  0.1540  0.1113
  178loPI   C1A 2839   7.428   4.095   9.123  0.1883  0.2949  0.1398
  178loPI   C2A 2840   7.694   4.077   8.740 -0.0794 -0.1360  0.0445
  178loPI   C3A 2841   7.945   4.070   8.334 -0.1698  0.0815 -0.0658
  178loPI   C4A 2842   8.059   3.958   7.884  0.1685  0.0288  0.0994
  178loPI   C5A 2843   8.069   3.935   7.520 -0.0395 -0.3570  0.4867
  178loPI   C6A 2844   8.317   4.281   7.276  0.1099  0.2287  0.0457
  178loPI   C1B 2845   7.114   4.541   8.846 -0.0957  0.0017  0.1298
  178loPI   C2B 2846   7.220   4.353   8.491  0.1187 -0.3123  0.0359
  178loPI   C3B 2847   7.375   4.026   8.324 -0.1576  0.0093 -0.0902
  178loPI   C4B 2848   7.719   3.670   8.178  0.1781 -0.2535 -0.3356
  179loPI    C1 2849  16.036   2.572   9.995 -0.0374 -0.0191 -0.0733
  179loPI    C2 2850  16.126   2.544  10.384 -0.1910  0.3714 -0.0051
  179loPI    C3 2851  15.982   2.226  10.188  0.2414  0.0643  0.1608
  179loPI   PO4 2852  16.192   2.603   9.819 -0.1463 -0.2318 -0.0791
  179loPI   GL1 2853  16.334   2.280   9.432 -0.1195  0.0563  0.2667
  179loPI   GL2 2854  16.523   2.601   9.398 -0.1465 -0.0349  0.0478
  179loPI   C1A 2855  16.326   2.058   8.998  0.0426  0.1439 -0.0813
  179loPI   C2A 2856  16.380   1.999   8.488 -0.0034  0.5357  0.1554
  179loPI   C3A 2857  16.377   1.667   8.117  0.1621  0.2543  0.0800
  179loPI   C4A 2858  16.704   1.360   7.949  0.4580  0.2416 -0.2084
  179loPI   C5A 2859  16.901   1.342   7.562  0.0577 -0.2256  0.0418
  179loPI   C6A 2860  16.856   1.470   7.179 -0.0352  0.1840  0.1753
  179loPI   C1B 2861  16.641   2.476   8.949  0.0904  0.0977  0.2929
  179loPI   C2B 2862  16.619   2.552   8.433  0.2828  0.1255 -0.0591
  179loPI   C3B 2863  16.873   2.610   8.012  0.1310 -0.0608  0.1079
  179loPI   C4B 2864  16.756   2.676   7.561  0.0967  0.0622  0.1487
  180loPI    C1 2865   9.171   8.333  10.479 -0.0045 -0.1464  0.0350
  180loPI    C2 2866   8.825   8.138  10.533 -0.1274  0.0804  0.0784
  180loPI    C3 2867   9.172   7.954  10.608 -0.2485 -0.0552  0.3162
  180loPI   PO4 2868   9.186   8.417  10.176  0.4615 -0.2399 -0.0216
  180loPI   GL1 2869   9.128   8.435   9.714 -0.1291 -0.2559  0.0594
  180loPI   GL2 2870   9.306   8.714   9.663 -0.0183  0.2389  0.0676
  180loPI   C1A 2871   9.033   8.272   9.354 -0.0437  0.2834 -0.1028
  180loPI   C2A 2872   8.818   8.010   8.976  0.1698 -0.2274 -0.1094
  180loPI   C3A 2873   8.796   7.758   8.764  0.1366 -0.0233 -0.0216
  180loPI   C4A 2874   8.674   7.573   8.299 -0.0741  0.1840 -0.0170
  180loPI   C5A 2875   8.514   7.581   8.015  0.0277  0.2066  0.2391
  180loPI   C6A 2876   8.345   7.405   7.569 -0.0914 -0.0181  0.1674
  180loPI   C1B 2877   9.287   8.794   9.271  0.0065  0.1395  0.6023
  180loPI   C2B 2878   9.003   8.698   9.026 -0.0468  0.0706  0.0116
  180loPI   C3B 2879   8.836   8.789   8.529  0.0050 -0.2853  0.0691
  180loPI   C4B 2880   8.681   8.644   8.144 -0.4250  0.3629  0.3832
  181loPI    C1 2881  18.501  17.091  10.224 -0.0548 -0.0257 -0.0208
  181loPI    C2 2882  18.795  17.229  10.458  0.1435 -0.1499 -0.1922
  181loPI    C3 2883  18.598  16.896  10.560 -0.1071  0.0665  0.0484
  181loPI   PO4 2884  18.580  17.224   9.996  0.1416  0.0913  0.1442
  181loPI   GL1 2885  18.617  17.219   9.491 -0.1263 -0.2771 -0.1387
  181loPI   GL2 2886  18.367  17.073   9.471  0.2164 -0.2335 -0.1969
  181loPI   C1A 2887  18.754  17.421   9.139  0.0865 -0.0933 -0.4253
  181loPI   C2A 2888  18.755  17.530   8.785 -0.0564  0.1034 -0.0211
  181loPI   C3A 2889  18.703  17.838   8.493 -0.0345 -0.1903 -0.0478
  181loPI   C4A 2890  18.997  18.075   8.258  0.1954 -0.2418 -0.0976
  181loPI   C5A 2891  19.365  18.175   8.054 -0.3479  0.3360 -0.2819
  181loPI   C6A 2892  19.615  18.562   7.980 -0.2021 -0.1530 -0.2059
  181loPI   C1B 2893  18.639  16.886   9.059  0.0763  0.1273 -0.1199
  181loPI   C2B 2894  18.927  17.081   8.753 -0.1344 -0.0015  0.1611
  181loPI   C3B 2895  19.168  17.257   8.464 -0.2932 -0.1124  0.1802
  181loPI   C4B 2896  19.390  17.181   8.071  0.0290  0.1427 -0.0068
  182loPI    C1 2897  17.900  12.542  10.196 -0.1148 -0.0004  0.0246
  182loPI    C2 2898  17.698  12.707  10.499  0.0449  0.2529 -0.0041
  182loPI    C3 2899  17.897  12.364  10.554 -0.4153 -0.0186  0.0151
  182loPI   PO4 2900  17.724  12.587   9.923 -0.2166 -0.0764 -0.0360
  182loPI   GL1 2901  17.872  12.561   9.547  0.1807  0.2041  0.0063
  182loPI   GL2 2902  17.919  12.163   9.335  0.1258 -0.2878  0.1508
  182loPI   C1A 2903  17.991  12.648   9.143  0.0908  0.0649  0.0777
  182loPI   C2A 2904  18.148  12.554   8.723 -0.1533 -0.2105 -0.0763
  182loPI   C3A 2905  18.323  12.472   8.274 -0.1609 -0.3135  0.1701
  182loPI   C4A 2906  18.238  12.442   7.739  0.0847  0.0962  0.3393
  182loPI   C5A 2907  17.943  12.723   7.569  0.1959  0.0958 -0.3020
  182loPI   C6A 2908  17.918  13.070   7.190  0.1467 -0.4181 -0.1128
  182loPI   C1B 2909  18.086  12.182   9.026 -0.0260  0.3104 -0.0501
  182loPI   C2B 2910  18.134  12.063   8.537 -0.0196  0.0841 -0.2359
  182loPI   C3B 2911  18.134  12.009   8.055  0.1309 -0.1385 -0.0753
  182loPI   C4B 2912  17.989  12.037   7.562  0.1368 -0.0353 -0.1325
  183loPI    C1 2913  18.825   4.746   9.705  0.0921  0.0715  0.1106
  183loPI    C2 2914  18.830   4.400   9.907  0.0442  0.0087  0.0051
  183loPI    C3 2915  18.680   4.730  10.078  0.1233 -0.0138  0.1194
  183loPI   PO4 2916  18.785   4.712   9.446  0.1827  0.0267 -0.0498
  183loPI   GL1 2917  19.147   4.758   9.058  0.0306  0.0098 -0.0865
  183loPI   GL2 2918  19.155   5.173   8.983 -0.1239  0.0189 -0.0994
  183loPI   C1A 2919  19.333   4.575   8.687  0.1308  0.1312  0.0183
  183loPI   C2A 2920  19.367   4.710   8.307  0.1682  0.0856 -0.1533
  183loPI   C3A 2921  19.165   4.759   7.882 -0.3763 -0.2162  0.2361
  183loPI   C4A 2922  18.919   4.626   7.446 -0.2437  0.0923  0.0961
  183loPI   C5A 2923  18.575   4.582   7.048 -0.0884  0.1199  0.0474
  183loPI   C6A 2924  18.266   4.839   7.009 -0.1983 -0.0011 -0.0916
  183loPI   C1B 2925  19.133   5.075   8.541  0.0238 -0.0210  0.2937
  183loPI   C2B 2926  19.051   5.187   8.193  0.2988  0.4848 -0.0865
  183loPI   C3B 2927  18.717   5.160   7.839  0.0250 -0.1851 -0.0519
  183loPI   C4B 2928  18.480   5.352   7.557  0.0233  0.1572  0.1856
  184loPI    C1 2929  18.949  10.177  10.202  0.0109  0.1672  0.0862
  184loPI    C2 2930  18.690  10.258   9.908 -0.2388 -0.1678  0.2070
  184loPI    C3 2931  18.598  10.348  10.287 -0.1209 -0.1679  0.2361
  184loPI   PO4 2932  19.165  10.237   9.997  0.0890 -0.1983  0.2072
  184loPI   GL1 2933  19.356  10.041   9.626  0.2789 -0.3808 -0.3071
  184loPI   GL2 2934  19.605  10.074   9.515 -0.0288 -0.0145 -0.0798
  184loPI   C1A 2935  19.129   9.992   9.232 -0.0056 -0.3275 -0.0439
  184loPI   C2A 2936  19.085   9.955   8.747 -0.0758 -0.0399  0.2190
  184loPI   C3A 2937  19.169  10.017   8.335 -0.2275  0.1346  0.2606
  184loPI   C4A 2938  19.214  10.102   7.903 -0.2069  0.3761 -0.1311
  184loPI   C5A 2939  19.287  10.552   7.638  0.0435 -0.3225  0.1091
  184loPI   C6A 2940  19.252  11.024   7.533  0.1849 -0.1307 -0.1302
  184loPI   C1B 2941  19.597  10.194   9.117  0.0320  0.3250  0.0652
  184loPI   C2B 2942  19.650  10.289   8.752  0.0167  0.0375 -0.2323
  184loPI   C3B 2943  19.609  10.263   8.313  0.1780  0.2407  0.0235
  184loPI   C4B 2944  19.674  10.322   7.931  0.2135  0.0496 -0.0099
  185loPI    C1 2945   5.631   9.241   9.832 -0.1578 -0.5648 -0.2375
  185loPI    C2 2946   5.504   9.097  10.182 -0.1808  0.3987  0.1791
  185loPI    C3 2947   5.266   9.334   9.965  0.0378  0.2562 -0.2256
  185loPI   PO4 2948   5.850   9.389   9.855 -0.2252  0.3078  0.1816
  185loPI   GL1 2949   6.100   9.472   9.492  0.2234 -0.0300 -0.4308
  185loPI   GL2 2950   5.787   9.440   9.381 -0.0213  0.1079  0.5594
  185loPI   C1A 2951   6.420   9.436   9.239 -0.0899 -0.0551 -0.1138
  185loPI   C2A 2952   6.295   9.355   8.813 -0.0601 -0.0665  0.0081
  185loPI   C3A 2953   6.254   9.663   8.458  0.1630 -0.2790 -0.3531
  185loPI   C4A 2954   6.015   9.898   8.219 -0.0940  0.4013 -0.3352
  185loPI   C5A 2955   6.094  10.223   7.997  0.0750 -0.1660 -0.1001
  185loPI   C6A 2956   6.533  10.420   7.858 -0.0796 -0.0513 -0.3286
  185loPI   C1B 2957   5.879   9.634   8.955  0.1215  0.1225 -0.0078
  185loPI   C2B 2958   5.657   9.841   8.664 -0.0704  0.2200  0.2241
  185loPI   C3B 2959   5.517  10.030   8.371 -0.1040  0.2524  0.1468
  185loPI   C4B 2960   5.440  10.057   8.029  0.0227 -0.1818 -0.0555
  186loPI    C1 2961  16.453   3.124   9.847 -0.0798  0.0827 -0.0122
  186loPI    C2 2962  16.643   2.810  10.008 -0.2608 -0.1206 -0.1900
  186loPI    C3 2963  16.298   2.938  10.165 -0.0990  0.1036 -0.0093
  186loPI   PO4 2964  16.370   3.036   9.585 -0.3197 -0.0148  0.4069
  186loPI   GL1 2965  16.410   3.123   9.253  0.1972  0.0514 -0.0772
  186loPI   GL2 2966  16.418   3.396   9.251  0.0151  0.2772  0.2043
  186loPI   C1A 2967  16.572   3.016   8.928 -0.0748 -0.0969 -0.1617
  186loPI   C2A 2968  16.914   2.954   8.636  0.3496  0.0872 -0.0019
  186loPI   C3A 2969  16.833   3.072   8.251  0.2398  0.0324 -0.0032
  186loPI   C4A 2970  17.007   3.139   7.745  0.1048  0.3028  0.1455
  186loPI   C5A 2971  16.843   3.199   7.290  0.0035  0.0050 -0.0637
  186loPI   C6A 2972  16.702   3.309   6.875 -0.0814  0.0098  0.3642
  186loPI   C1B 2973  16.203   3.366   8.841 -0.1261  0.0747  0.0961
  186loPI   C2B 2974  16.004   3.304   8.424 -0.1269  0.3141  0.0714
  186loPI   C3B 2975  15.969   3.353   7.980 -0.1344 -0.0116  0.0745
  186loPI   C4B 2976  15.939   3.286   7.461 -0.0525  0.1390 -0.0033
  187loPI    C1 2977  13.120   3.439  10.214 -0.2740 -0.1853  0.0094
  187loPI    C2 2978  13.328   3.699  10.437  0.0186 -0.4852  0.0953
  187loPI    C3 2979  13.081   3.438  10.612 -0.3660 -0.1943  0.0005
  187loPI   PO4 2980  12.996   3.576   9.996  0.0231 -0.2140  0.2659
  187loPI   GL1 2981  12.778   3.876   9.682 -0.0697 -0.1494 -0.0230
  187loPI   GL2 2982  13.138   3.921   9.568  0.0178  0.1210 -0.1035
  187loPI   C1A 2983  12.593   3.625   9.469 -0.0870 -0.0022  0.2460
  187loPI   C2A 2984  12.439   3.514   8.993 -0.0666  0.0905  0.0989
  187loPI   C3A 2985  12.607   3.201   8.804  0.1462  0.0529  0.4123
  187loPI   C4A 2986  12.570   3.115   8.380  0.2467  0.1204  0.1666
  187loPI   C5A 2987  12.715   2.810   8.050 -0.1243 -0.0605 -0.1571
  187loPI   C6A 2988  12.782   2.606   7.666 -0.0619 -0.0473  0.0436
  187loPI   C1B 2989  12.874   3.964   9.209 -0.3146 -0.0274 -0.2872
  187loPI   C2B 2990  12.893   4.049   8.888 -0.1110 -0.3843  0.1879
  187loPI   C3B 2991  12.851   4.428   8.688 -0.1414 -0.0692 -0.1304
  187loPI   C4B 2992  12.752   4.831   8.485  0.0823  0.2522 -0.1757
  188loPI    C1 2993  10.523   2.124  10.048  0.0169  0.0362  0.1795
  188loPI    C2 2994  10.735   1.789   9.995  0.1062  0.0617  0.3668
  188loPI    C3 2995  10.812   2.027  10.307  0.0154  0.2359  0.2580
  188loPI   PO4 2996  10.166   2.082  10.052 -0.2395  0.0880 -0.1740
  188loPI   GL1 2997   9.943   2.013   9.631 -0.2383 -0.0018 -0.1803
  188loPI   GL2 2998   9.820   2.282   9.413 -0.0186 -0.2225 -0.1224
  188loPI   C1A 2999   9.934   1.572   9.418 -0.3912  0.2500  0.0878
  188loPI   C2A 3000   9.830   1.433   9.010  0.1672 -0.1305  0.1760
  188loPI   C3A 3001   9.901   1.355   8.607  0.3872  0.0571 -0.0233
  188loPI   C4A 3002   9.799   1.563   8.133  0.0253 -0.1167 -0.0812
  188loPI   C5A 3003   9.497   1.698   7.837  0.0440 -0.1076  0.1601
  188loPI   C6A 3004   9.228   1.917   7.544  0.1756 -0.3625 -0.0327
  188loPI   C1B 3005   9.905   2.072   9.108 -0.0317  0.0681 -0.1162
  188loPI   C2B 3006   9.791   1.847   8.726 -0.2482  0.2093  0.1458
  188loPI   C3B 3007   9.708   2.082   8.365  0.2178  0.3673 -0.1642
  188loPI   C4B 3008   9.856   2.064   7.969  0.0652  0.1519 -0.0937
  189loPI    C1 3009  13.960   6.467  10.163  0.3787  0.1828 -0.1906
  189loPI    C2 3010  13.807   6.784   9.973  0.2501  0.1803 -0.0933
  189loPI    C3 3011  13.655   6.670  10.324  0.2511 -0.0302 -0.1597
  189loPI   PO4 3012  14.022   6.279  10.013  0.2402 -0.0829  0.2283
  189loPI   GL1 3013  13.812   6.298   9.580  0.1754 -0.0122 -0.0212
  189loPI   GL2 3014  13.506   6.080   9.564  0.2158  0.4263 -0.0122
  189loPI   C1A 3015  13.960   6.380   9.188  0.0223  0.0200  0.2577
  189loPI   C2A 3016  13.937   6.404   8.849 -0.0019  0.0683  0.0708
  189loPI   C3A 3017  14.010   6.679   8.496  0.0531  0.0483  0.1073
  189loPI   C4A 3018  14.338   7.004   8.219 -0.0651 -0.2447  0.0985
  189loPI   C5A 3019  14.402   7.222   8.001  0.0621  0.1145 -0.1037
  189loPI   C6A 3020  14.348   7.593   7.755  0.1518 -0.2539 -0.0601
  189loPI   C1B 3021  13.538   5.947   9.189 -0.0668  0.0426  0.0061
  189loPI   C2B 3022  13.554   5.941   8.641 -0.1347 -0.0008 -0.2742
  189loPI   C3B 3023  13.404   5.875   8.190 -0.1694 -0.1896 -0.1243
  189loPI   C4B 3024  13.148   6.208   8.016 -0.0759  0.1505 -0.1752
  190loPI    C1 3025   3.596   3.324   9.738  0.1385  0.0380  0.1084
  190loPI    C2 3026   3.562   3.175  10.108 -0.0838  0.0068  0.0769
  190loPI    C3 3027   3.546   2.931   9.792 -0.1113  0.0583  0.0382
  190loPI   PO4 3028   3.802   3.439   9.714 -0.0596  0.0104 -0.1600
  190loPI   GL1 3029   3.954   3.607   9.308 -0.0604 -0.2377  0.0189
  190loPI   GL2 3030   4.245   3.606   9.340 -0.1992 -0.1648  0.1062
  190loPI   C1A 3031   3.946   3.857   8.923 -0.1204 -0.1691 -0.2912
  190loPI   C2A 3032   4.034   3.750   8.545  0.3049 -0.2173 -0.2612
  190loPI   C3A 3033   4.104   3.837   8.171  0.0621 -0.3454  0.0444
  190loPI   C4A 3034   3.930   3.871   7.820 -0.1082 -0.2220 -0.2258
  190loPI   C5A 3035   4.106   4.238   7.633 -0.3584  0.0827  0.1576
  190loPI   C6A 3036   4.326   4.640   7.406  0.0824  0.0056 -0.0369
  190loPI   C1B 3037   4.391   3.545   8.931 -0.1821 -0.0172  0.0121
  190loPI   C2B 3038   4.552   3.766   8.514  0.2168  0.2638 -0.0318
  190loPI   C3B 3039   4.587   3.866   8.039  0.2036  0.1253  0.2062
  190loPI   C4B 3040   4.714   3.594   7.791 -0.1630  0.1475 -0.1923
  191loPI    C1 3041  15.415  11.005   9.839  0.0479  0.0793 -0.0814
  191loPI    C2 3042  15.698  11.166   9.608  0.2272 -0.2639 -0.1069
  191loPI    C3 3043  15.712  11.216  10.004  0.0811  0.0796 -0.1414
  191loPI   PO4 3044  15.285  10.855   9.585 -0.0294  0.0273  0.1815
  191loPI   GL1 3045  15.553  10.550   9.305  0.0092 -0.3549 -0.2223
  191loPI   GL2 3046  15.730  10.704   9.331  0.0630  0.1597 -0.0251
  191loPI   C1A 3047  15.711  10.488   8.888  0.2805  0.2762 -0.1448
  191loPI   C2A 3048  15.687  10.505   8.408  0.2408  0.1849 -0.0565
  191loPI   C3A 3049  15.512  10.819   8.048  0.1589  0.0116 -0.3951
  191loPI   C4A 3050  15.748  10.976   7.737 -0.1961 -0.2921 -0.2588
  191loPI   C5A 3051  15.900  10.746   7.439 -0.0778  0.0966  0.0191
  191loPI   C6A 3052  16.029  10.313   7.423 -0.0602 -0.0006  0.2182
  191loPI   C1B 3053  15.787  10.981   9.016  0.1026  0.1970 -0.1979
  191loPI   C2B 3054  15.787  10.996   8.525 -0.0916  0.1653  0.1500
  191loPI   C3B 3055  16.007  10.989   8.189 -0.1735  0.0383 -0.0040
  191loPI   C4B 3056  16.327  10.902   7.996  0.0074  0.2042  0.2255
  192loPI    C1 3057   8.269  12.281  10.057 -0.1268 -0.1714 -0.0825
  192loPI    C2 3058   8.348  12.478  10.395  0.1674 -0.4263  0.0027
  192loPI    C3 3059   7.970  12.392  10.298  0.0399  0.0971  0.0048
  192loPI   PO4 3060   8.323  12.368   9.883 -0.1294 -0.2231 -0.1945
  192loPI   GL1 3061   8.189  12.467   9.484  0.2368  0.0033  0.4130
  192loPI   GL2 3062   8.316  12.738   9.236 -0.1356 -0.0706 -0.1152
  192loPI   C1A 3063   8.330  12.236   9.038  0.0473  0.1862 -0.2740
  192loPI   C2A 3064   8.252  12.175   8.673  0.2090  0.1216 -0.0293
  192loPI   C3A 3065   8.015  11.998   8.391 -0.0927 -0.3292  0.1784
  192loPI   C4A 3066   7.935  12.040   7.922  0.0683  0.1724  0.2404
  192loPI   C5A 3067   7.786  12.094   7.536 -0.0889 -0.0528 -0.1125
  192loPI   C6A 3068   7.731  12.422   7.247  0.2390  0.1185 -0.2942
  192loPI   C1B 3069   7.971  12.658   9.057  0.1933  0.0662 -0.0330
  192loPI   C2B 3070   7.801  12.794   8.632  0.1531  0.1164  0.1308
  192loPI   C3B 3071   7.693  13.112   8.412  0.4602  0.1162  0.1836
  192loPI   C4B 3072   7.517  13.328   8.045 -0.0924 -0.2787  0.2076
  193loPI    C1 3073   6.686  15.502  10.304  0.0577 -0.0710  0.0902
  193loPI    C2 3074   6.725  15.802  10.567 -0.0760 -0.0637  0.1023
  193loPI    C3 3075   6.917  15.456  10.628 -0.1025 -0.0601  0.2072
  193loPI   PO4 3076   6.674  15.672  10.089  0.0001  0.0762 -0.2330
  193loPI   GL1 3077   6.948  15.779   9.755  0.0200 -0.1932  0.0980
  193loPI   GL2 3078   7.100  15.533   9.679 -0.1083  0.1726 -0.0164
  193loPI   C1A 3079   6.756  15.682   9.286  0.0673 -0.1945  0.2156
  193loPI   C2A 3080   6.769  15.711   8.784 -0.1525  0.1579  0.0477
  193loPI   C3A 3081   6.786  15.720   8.241  0.0924  0.3571 -0.0333
  193loPI   C4A 3082   6.942  15.895   7.771  0.0087  0.2579  0.3608
  193loPI   C5A 3083   6.844  16.179   7.405 -0.0530  0.1068  0.1288
  193loPI   C6A 3084   6.818  16.016   7.008 -0.0831 -0.0879  0.1419
  193loPI   C1B 3085   7.295  15.390   9.198  0.1207 -0.1175 -0.2973
  193loPI   C2B 3086   7.271  15.360   8.700 -0.1321 -0.5905 -0.0460
  193loPI   C3B 3087   7.269  15.432   8.278 -0.2688 -0.0201  0.1880
  193loPI   C4B 3088   7.110  15.418   7.880  0.1611  0.0021 -0.3150
  194loPI    C1 3089   7.488  16.628  10.502  0.0295 -0.1141 -0.0625
  194loPI    C2 3090   7.411  16.283  10.689  0.0294 -0.0737  0.0123
  194loPI    C3 3091   7.507  16.608  10.901 -0.1291  0.0131 -0.0478
  194loPI   PO4 3092   7.703  16.569  10.340  0.0496  0.0229 -0.0655
  194loPI   GL1 3093   7.923  16.668   9.875 -0.1723 -0.1316  0.0864
  194loPI   GL2 3094   7.795  16.348   9.804 -0.0677  0.0063 -0.4185
  194loPI   C1A 3095   7.692  16.774   9.450  0.0716  0.0144 -0.1818
  194loPI   C2A 3096   7.618  16.726   9.037 -0.0075 -0.1907 -0.0058
  194loPI   C3A 3097   7.644  16.855   8.613  0.1159 -0.0239 -0.2047
  194loPI   C4A 3098   7.659  16.913   8.212  0.2972 -0.4116 -0.1707
  194loPI   C5A 3099   7.758  17.279   8.010  0.0195  0.1164 -0.4171
  194loPI   C6A 3100   7.615  17.231   7.639 -0.0375  0.1550 -0.2507
  194loPI   C1B 3101   7.682  16.239   9.364 -0.0952 -0.0397 -0.0892
  194loPI   C2B 3102   7.616  16.220   8.933 -0.0169 -0.0580 -0.2165
  194loPI   C3B 3103   7.699  16.213   8.473 -0.2430 -0.1389 -0.2305
  194loPI   C4B 3104   7.676  16.421   8.060  0.2960 -0.1944 -0.0098
  195loPI    C1 3105  18.900  11.089  10.225 -0.4688  0.0928 -0.2795
  195loPI    C2 3106  18.734  10.830  10.480  0.2825  0.0170  0.1604
  195loPI    C3 3107  18.882  11.176  10.615  0.2533  0.1980 -0.2575
  195loPI   PO4 3108  18.939  11.018  10.071  0.1927  0.1804  0.0258
  195loPI   GL1 3109  19.016  10.712   9.881 -0.3411  0.2723  0.1342
  195loPI   GL2 3110  19.287  10.903   9.788  0.1798  0.1479  0.0578
  195loPI   C1A 3111  19.039  10.517   9.411  0.1377  0.2174 -0.4050
  195loPI   C2A 3112  19.015  10.445   8.937  0.2058 -0.3996  0.2612
  195loPI   C3A 3113  19.110  10.485   8.575  0.1365  0.3143  0.1306
  195loPI   C4A 3114  19.210  10.530   8.161  0.1929 -0.2345  0.1699
  195loPI   C5A 3115  18.926  10.744   7.897 -0.0693 -0.0827  0.0035
  195loPI   C6A 3116  18.762  11.012   7.596  0.0798 -0.0584 -0.2023
  195loPI   C1B 3117  19.481  10.705   9.389  0.2306  0.2227 -0.0256
  195loPI   C2B 3118  19.423  10.718   9.011  0.4890  0.1728  0.1595
  195loPI   C3B 3119  19.590  10.772   8.650  0.5100  0.0642 -0.2075
  195loPI   C4B 3120  19.660  10.722   8.271 -0.0295  0.1601 -0.0672
  196loPI    C1 3121   5.197   8.766   9.896  0.1144  0.0462 -0.0412
  196loPI    C2 3122   5.019   8.867  10.240 -0.0024 -0.0603 -0.0696
  196loPI    C3 3123   5.313   8.597  10.239  0.1783  0.1335 -0.0194
  196loPI   PO4 3124   5.022   8.642   9.766  0.0671 -0.1360 -0.0616
  196loPI   GL1 3125   4.893   8.575   9.371  0.0423  0.1581 -0.1725
  196loPI   GL2 3126   5.221   8.618   9.266  0.2485 -0.0700 -0.1710
  196loPI   C1A 3127   4.876   9.093   9.185 -0.0929 -0.2307  0.0840
  196loPI   C2A 3128   4.866   9.115   8.755  0.1073 -0.4508  0.1143
  196loPI   C3A 3129   4.879   9.197   8.343  0.1701 -0.1011  0.1596
  196loPI   C4A 3130   4.760   9.178   7.987  0.1771 -0.1557  0.2521
  196loPI   C5A 3131   4.905   9.569   7.805  0.0425  0.4723 -0.2385
  196loPI   C6A 3132   5.151   9.915   7.563 -0.0957  0.1028  0.1360
  196loPI   C1B 3133   5.141   8.748   8.851  0.1140  0.3350  0.0185
  196loPI   C2B 3134   4.980   8.685   8.376  0.2570  0.0700  0.2561
  196loPI   C3B 3135   4.948   8.752   7.981 -0.2336  0.1962  0.1897
  196loPI   C4B 3136   5.152   8.861   7.731  0.0172  0.0228  0.2834
  197loPI    C1 3137   0.806   1.932   9.798  0.1015 -0.1097  0.0515
  197loPI    C2 3138   0.871   2.219  10.069 -0.0242 -0.0440  0.0126
  197loPI    C3 3139   1.039   1.859  10.114  0.0780  0.0141  0.0977
  197loPI   PO4 3140   0.607   1.895   9.557  0.0095  0.0223 -0.0116
  197loPI   GL1 3141   0.626   1.653   9.232 -0.2308 -0.1664 -0.0752
  197loPI   GL2 3142   0.951   1.661   9.328  0.1181  0.1990 -0.3711
  197loPI   C1A 3143   0.477   1.767   8.734 -0.2156 -0.1698 -0.1715
  197loPI   C2A 3144   0.421   2.077   8.490 -0.0969 -0.0155 -0.0930
  197loPI   C3A 3145   0.374   2.393   8.163 -0.0783 -0.2421 -0.1678
  197loPI   C4A 3146   0.419   2.541   7.805 -0.1100 -0.3653  0.3600
  197loPI   C5A 3147   0.375   2.613   7.425 -0.0846 -0.2609  0.1682
  197loPI   C6A 3148   0.403   2.934   7.166 -0.3186  0.0450  0.0462
  197loPI   C1B 3149   1.028   1.776   8.874 -0.0749 -0.0900 -0.0174
  197loPI   C2B 3150   0.924   1.755   8.480  0.2084  0.0316 -0.6804
  197loPI   C3B 3151   0.557   1.785   8.143  0.0194  0.2306 -0.0122
  197loPI   C4B 3152   0.358   2.065   7.807 -0.0115  0.0219  0.2377
  198loPI    C1 3153   1.339  12.904  10.245 -0.1023 -0.0394 -0.0374
  198loPI    C2 3154   1.052  12.705  10.440 -0.0029  0.0038  0.1552
  198loPI    C3 3155   1.393  12.797  10.627  0.0906  0.0531 -0.0379
  198loPI   PO4 3156   1.232  12.804   9.952  0.1326  0.1895  0.0285
  198loPI   GL1 3157   1.060  12.697   9.675  0.0855  0.1648 -0.3424
  198loPI   GL2 3158   0.695  12.752   9.766 -0.0926  0.1812  0.1500
  198loPI   C1A 3159   1.113  12.886   9.332 -0.3239  0.1350  0.4224
  198loPI   C2A 3160   1.236  12.949   8.872  0.2832 -0.0646  0.2480
  198loPI   C3A 3161   1.251  12.936   8.459  0.1827 -0.0702 -0.1645
  198loPI   C4A 3162   1.227  13.065   8.073  0.1754  0.2105  0.0962
  198loPI   C5A 3163   1.242  13.153   7.679 -0.0435 -0.1329 -0.4780
  198loPI   C6A 3164   1.071  13.073   7.339 -0.2610  0.0376  0.2069
  198loPI   C1B 3165   0.694  13.045   9.473  0.1061  0.0843 -0.2550
  198loPI   C2B 3166   0.595  13.095   9.067 -0.2149  0.2826 -0.2815
  198loPI   C3B 3167   0.760  13.167   8.642  0.0930 -0.0538 -0.0944
  198loPI   C4B 3168   0.728  13.196   8.211  0.0432 -0.0875 -0.0455
  199loPI    C1 3169   3.938  14.712  10.591 -0.2072  0.0616 -0.0643
  199loPI    C2 3170   3.791  15.024  10.793 -0.2633 -0.0561  0.0783
  199loPI    C3 3171   3.882  14.686  10.986 -0.1460 -0.1079 -0.0663
  199loPI   PO4 3172   3.824  14.725  10.376  0.1126  0.2151 -0.1286
  199loPI   GL1 3173   3.784  14.641   9.938  0.2993  0.0673 -0.2935
  199loPI   GL2 3174   3.905  14.935   9.880  0.0235  0.1072 -0.1694
  199loPI   C1A 3175   3.794  14.566   9.547 -0.1607  0.1201  0.1061
  199loPI   C2A 3176   3.800  14.578   9.098 -0.0727 -0.1937  0.1319
  199loPI   C3A 3177   3.794  14.546   8.688  0.1032  0.1837 -0.0895
  199loPI   C4A 3178   3.855  14.677   8.242 -0.2435  0.0026  0.1105
  199loPI   C5A 3179   3.827  14.558   7.830 -0.0305  0.0245  0.0622
  199loPI   C6A 3180   3.795  14.654   7.470 -0.2707  0.0066  0.3815
  199loPI   C1B 3181   3.753  15.117   9.425 -0.1801  0.1635  0.1707
  199loPI   C2B 3182   3.701  15.096   9.005  0.0377 -0.0881 -0.0492
  199loPI   C3B 3183   3.751  15.029   8.568 -0.0257 -0.2169 -0.3210
  199loPI   C4B 3184   3.680  15.168   8.213 -0.0601 -0.2224  0.1138
  200loPI    C1 3185  18.491  18.865   9.964  0.1848 -0.0432  0.3083
  200loPI    C2 3186  18.264  18.920  10.288 -0.0827  0.0301  0.1121
  200loPI    C3 3187  18.293  18.557  10.124 -0.3644  0.0912 -0.0807
  200loPI   PO4 3188  18.336  19.057   9.798 -0.0410  0.0831  0.1783
  200loPI   GL1 3189  18.341  19.156   9.352 -0.0680 -0.2973  0.0795
  200loPI   GL2 3190  18.213  18.850   9.074 -0.0893 -0.0570 -0.0759
  200loPI   C1A 3191  18.352  19.301   8.968  0.0421  0.1341  0.0490
  200loPI   C2A 3192  18.116  19.281   8.740 -0.0103 -0.1723  0.0701
  200loPI   C3A 3193  17.966  19.282   8.352 -0.3230 -0.0365 -0.2065
  200loPI   C4A 3194  17.815  19.188   7.971  0.0447  0.1844 -0.4310
  200loPI   C5A 3195  17.968  19.259   7.555 -0.0347  0.0192 -0.0495
  200loPI   C6A 3196  17.897  19.552   7.327  0.1632 -0.0077  0.2076
  200loPI   C1B 3197  18.367  18.739   8.656 -0.0157 -0.0924  0.0455
  200loPI   C2B 3198  18.125  18.693   8.318 -0.1403 -0.2090 -0.0087
  200loPI   C3B 3199  18.210  18.506   7.977  0.3543 -0.1491 -0.2345
  200loPI   C4B 3200  18.106  18.343   7.636  0.0427  0.2347  0.0903
  201loPI    C1 3201   7.634  13.384   9.743  0.2728 -0.1104  0.0662
  201loPI    C2 3202   7.379  13.268  10.028 -0.0646  0.0353 -0.1695
  201loPI    C3 3203   7.522  13.642  10.028 -0.0523  0.0307 -0.1835
  201loPI   PO4 3204   7.483  13.290   9.495  0.1744 -0.0416 -0.3255
  201loPI   GL1 3205   7.502  12.927   9.255 -0.1770 -0.3082 -0.1490
  201loPI   GL2 3206   7.803  13.102   9.074  0.3074  0.0894 -0.0065
  201loPI   C1A 3207   7.353  13.154   8.874 -0.2098 -0.2548 -0.2153
  201loPI   C2A 3208   7.385  13.536   8.672  0.0808 -0.3504 -0.0161
  201loPI   C3A 3209   7.526  13.799   8.243  0.0063 -0.0809 -0.0438
  201loPI   C4A 3210   7.569  14.153   7.962  0.1916 -0.0408 -0.0878
  201loPI   C5A 3211   7.866  14.224   7.618 -0.1552  0.1261 -0.1631
  201loPI   C6A 3212   7.985  14.190   7.199  0.1988 -0.0289 -0.0370
  201loPI   C1B 3213   8.052  13.110   8.892 -0.1730 -0.0704 -0.0071
  201loPI   C2B 3214   8.371  12.839   8.701  0.0110 -0.3150 -0.2236
  201loPI   C3B 3215   8.377  12.511   8.319  0.2611  0.0348 -0.3165
  201loPI   C4B 3216   8.496  12.066   8.193  0.2469  0.0991 -0.0003
  202loPI    C1 3217   1.067  15.044  10.519 -0.1072 -0.5496  0.1696
  202loPI    C2 3218   0.699  15.197  10.551  0.1254  0.1540 -0.2673
  202loPI    C3 3219   0.947  15.205  10.865 -0.0738  0.1020 -0.1063
  202loPI   PO4 3220   1.118  15.206  10.179 -0.1632 -0.1450  0.0387
  202loPI   GL1 3221   1.429  15.134   9.911 -0.1052  0.0690 -0.1360
  202loPI   GL2 3222   1.534  15.400   9.826  0.1051  0.1001  0.2754
  202loPI   C1A 3223   1.432  14.593   9.752 -0.0636 -0.0506  0.1497
  202loPI   C2A 3224   1.544  14.177   9.467 -0.4615  0.1377  0.2400
  202loPI   C3A 3225   1.830  14.046   9.126  0.0829 -0.0312  0.1055
  202loPI   C4A 3226   2.085  13.953   8.825 -0.2668  0.0099  0.2932
  202loPI   C5A 3227   2.006  13.932   8.409 -0.1290  0.0412 -0.1646
  202loPI   C6A 3228   2.002  14.090   8.041  0.3902 -0.0649 -0.2244
  202loPI   C1B 3229   1.286  15.558   9.382 -0.0536  0.4574 -0.1785
  202loPI   C2B 3230   1.395  15.426   8.956  0.0470 -0.0600  0.0834
  202loPI   C3B 3231   1.509  15.267   8.558 -0.1938 -0.1433  0.2013
  202loPI   C4B 3232   1.261  15.137   8.232  0.0414 -0.2145 -0.1301
  203loPI    C1 3233   3.279   1.263   9.880 -0.2440  0.0257 -0.1582
  203loPI    C2 3234   3.277   0.866   9.831 -0.0346 -0.0221  0.1843
  203loPI    C3 3235   2.958   1.050   9.987 -0.2056 -0.0278 -0.1491
  203loPI   PO4 3236   3.308   1.335   9.687 -0.1211  0.1554 -0.0924
  203loPI   GL1 3237   3.297   1.480   9.284 -0.1953 -0.1582 -0.0110
  203loPI   GL2 3238   3.370   1.806   9.396 -0.2668  0.0787 -0.0301
  203loPI   C1A 3239   3.129   1.202   8.974  0.0304  0.0588 -0.0567
  203loPI   C2A 3240   3.081   0.868   8.597 -0.1195 -0.1936  0.1883
  203loPI   C3A 3241   2.805   0.659   8.304  0.2468 -0.0114  0.2147
  203loPI   C4A 3242   2.425   0.673   7.867  0.0362 -0.0734 -0.2804
  203loPI   C5A 3243   2.392   0.764   7.478  0.0207 -0.1513 -0.2148
  203loPI   C6A 3244   2.198   1.127   7.165  0.2485  0.1280 -0.1978
  203loPI   C1B 3245   3.354   1.912   8.984  0.5124  0.0039  0.0883
  203loPI   C2B 3246   3.381   1.912   8.513  0.1243 -0.1135 -0.2375
  203loPI   C3B 3247   3.356   1.957   8.056 -0.1058  0.2263  0.2604
  203loPI   C4B 3248   3.364   2.195   7.550  0.0696  0.1990  0.1943
  204loPI    C1 3249   3.940   0.039  10.376 -0.1586 -0.0038  0.2454
  204loPI    C2 3250   4.141  -0.050  10.710  0.1025 -0.1301  0.0583
  204loPI    C3 3251   4.139   0.326  10.571  0.0371 -0.0880  0.1719
  204loPI   PO4 3252   3.995  -0.089  10.141 -0.3063  0.0710 -0.0913
  204loPI   GL1 3253   4.257  -0.082   9.767 -0.0637  0.0971 -0.0219
  204loPI   GL2 3254   4.241   0.070   9.450  0.1276  0.0597 -0.0531
  204loPI   C1A 3255   4.229  -0.409   9.420 -0.2603  0.0063  0.2256
  204loPI   C2A 3256   4.314  -0.728   9.189  0.1596 -0.1944 -0.1695
  204loPI   C3A 3257   4.380  -0.832   8.785  0.2903 -0.1706 -0.1430
  204loPI   C4A 3258   4.519  -0.648   8.404 -0.1585  0.2180 -0.1607
  204loPI   C5A 3259   4.681  -0.557   8.034 -0.3022 -0.0922  0.0718
  204loPI   C6A 3260   4.967  -0.715   7.665 -0.2563  0.1159 -0.0565
  204loPI   C1B 3261   4.626  -0.017   9.182 -0.0458  0.1117  0.0665
  204loPI   C2B 3262   4.699   0.054   8.769 -0.1852  0.1649 -0.1402
  204loPI   C3B 3263   4.713  -0.096   8.314 -0.2414  0.0023  0.0897
  204loPI   C4B 3264   4.760  -0.008   7.882 -0.2061 -0.2220  0.0681
  205loPI    C1 3265   4.443  10.370  10.482  0.1200 -0.0567  0.1123
  205loPI    C2 3266   4.345  10.710  10.296  0.3029 -0.0590  0.0094
  205loPI    C3 3267   4.546  10.722  10.641  0.0998 -0.0585  0.1295
  205loPI   PO4 3268   4.474  10.198  10.246  0.0953  0.0064 -0.0122
  205loPI   GL1 3269   4.200  10.241   9.972 -0.1003  0.0310  0.1098
  205loPI   GL2 3270   3.930  10.321  10.034  0.0028 -0.1738 -0.2351
  205loPI   C1A 3271   4.273  10.342   9.563  0.0685  0.4191  0.0213
  205loPI   C2A 3272   4.212  10.439   9.086 -0.1661 -0.0198  0.1489
  205loPI   C3A 3273   4.084  10.290   8.685  0.0785 -0.2910 -0.0266
  205loPI   C4A 3274   3.783  10.296   8.268 -0.1659 -0.0158  0.1193
  205loPI   C5A 3275   3.856  10.087   7.848  0.1467  0.0940  0.1530
  205loPI   C6A 3276   4.136  10.214   7.507 -0.0318 -0.1915  0.0242
  205loPI   C1B 3277   4.081  10.732   9.898  0.2939  0.0960  0.2616
  205loPI   C2B 3278   4.250  10.838   9.507  0.0966  0.1601 -0.2112
  205loPI   C3B 3279   4.140  10.930   9.137  0.0096 -0.1441  0.0704
  205loPI   C4B 3280   4.009  11.104   8.816 -0.2946  0.4712  0.0873
  206loPI    C1 3281   6.178   4.357   9.724 -0.0231 -0.0022 -0.0709
  206loPI    C2 3282   6.292   4.562  10.048 -0.1742  0.0041 -0.0209
  206loPI    C3 3283   6.549   4.506   9.746 -0.1216  0.2407 -0.0224
  206loPI   PO4 3284   5.917   4.316   9.747 -0.0383  0.0952  0.1621
  206loPI   GL1 3285   5.796   4.413   9.340  0.1647  0.0895  0.0895
  206loPI   GL2 3286   5.606   4.187   9.147  0.0886 -0.0864  0.0234
  206loPI   C1A 3287   6.144   4.507   9.106 -0.0276 -0.1817  0.0374
  206loPI   C2A 3288   6.517   4.731   8.864  0.3552 -0.3041 -0.1536
  206loPI   C3A 3289   6.750   4.499   8.563 -0.3361 -0.1295  0.2748
  206loPI   C4A 3290   6.852   4.295   8.162 -0.0275 -0.3751  0.0858
  206loPI   C5A 3291   7.138   4.137   7.857  0.0051  0.1082  0.1648
  206loPI   C6A 3292   7.128   3.851   7.620  0.1285  0.1914 -0.0387
  206loPI   C1B 3293   5.700   4.032   8.808 -0.2619 -0.4759  0.0163
  206loPI   C2B 3294   5.568   3.671   8.700 -0.1698 -0.1986  0.3721
  206loPI   C3B 3295   5.406   3.342   8.457 -0.0655 -0.0155 -0.0366
  206loPI   C4B 3296   5.308   3.134   8.142 -0.1005 -0.2052 -0.0375
  207loPI    C1 3297  17.212   4.460  10.254 -0.0325  0.1585  0.1934
  207loPI    C2 3298  17.563   4.652  10.270  0.0277  0.0846 -0.1553
  207loPI    C3 3299  17.546   4.260  10.346 -0.0183  0.1323  0.0872
  207loPI   PO4 3300  17.042   4.469   9.924  0.0685 -0.1473 -0.0838
  207loPI   GL1 3301  17.048   4.469   9.413  0.2240 -0.0299 -0.0506
  207loPI   GL2 3302  17.305   4.363   9.393 -0.0267 -0.0556  0.0221
  207loPI   C1A 3303  17.073   4.678   9.077  0.3625  0.0170  0.0212
  207loPI   C2A 3304  17.317   4.788   8.656 -0.3469  0.0204  0.1435
  207loPI   C3A 3305  17.374   4.702   8.209  0.2290 -0.0719 -0.1108
  207loPI   C4A 3306  17.399   4.539   7.821  0.0692  0.3311 -0.2805
  207loPI   C5A 3307  17.631   4.210   7.651  0.2686  0.1415  0.0711
  207loPI   C6A 3308  17.724   4.154   7.194  0.1680 -0.0600  0.2343
  207loPI   C1B 3309  17.437   4.295   8.938  0.2117 -0.1998  0.1168
  207loPI   C2B 3310  17.610   4.343   8.486 -0.0513 -0.1592 -0.1564
  207loPI   C3B 3311  17.956   4.323   8.272 -0.2645 -0.0169  0.3333
  207loPI   C4B 3312  17.943   4.053   8.027  0.2060  0.2746  0.0971
  208loPI    C1 3313   1.221  14.265  10.394 -0.2176 -0.0151 -0.0495
  208loPI    C2 3314   0.917  14.110  10.602 -0.1506  0.0028  0.0624
  208loPI    C3 3315   1.288  14.098  10.751 -0.0647 -0.1951 -0.1603
  208loPI   PO4 3316   1.143  14.542  10.301  0.2423  0.0289  0.0082
  208loPI   GL1 3317   0.995  14.792   9.973 -0.1643 -0.1100  0.0085
  208loPI   GL2 3318   0.800  14.549   9.767 -0.2191 -0.1817 -0.0228
  208loPI   C1A 3319   1.146  14.881   9.509 -0.0031 -0.0549 -0.1408
  208loPI   C2A 3320   1.005  15.045   9.115  0.1427 -0.1044  0.0834
  208loPI   C3A 3321   0.611  14.974   8.827 -0.0912 -0.0783 -0.0720
  208loPI   C4A 3322   0.513  15.177   8.457 -0.2194  0.0239 -0.1021
  208loPI   C5A 3323   0.344  15.393   8.148  0.1233 -0.0264 -0.1215
  208loPI   C6A 3324   0.325  15.688   7.769 -0.1150 -0.0598 -0.3696
  208loPI   C1B 3325   1.039  14.345   9.482  0.0988  0.0435  0.1359
  208loPI   C2B 3326   1.245  14.429   9.175  0.0510  0.1324  0.0249
  208loPI   C3B 3327   1.532  14.374   8.863 -0.0676  0.0180  0.0513
  208loPI   C4B 3328   1.617  14.105   8.561 -0.1274 -0.1398  0.0161
  209loPI    C1 3329  11.438  19.001  10.016  0.2160 -0.2580 -0.0854
  209loPI    C2 3330  11.517  19.087   9.634  0.0858  0.0804 -0.0396
  209loPI    C3 3331  11.700  19.290   9.926 -0.0728  0.0613  0.0745
  209loPI   PO4 3332  11.306  18.769  10.047 -0.1192 -0.2558 -0.0380
  209loPI   GL1 3333  11.127  18.710   9.735 -0.0064  0.2165 -0.3788
  209loPI   GL2 3334  11.384  18.511   9.539 -0.2599 -0.0669 -0.0287
  209loPI   C1A 3335  11.009  18.883   9.282 -0.1733 -0.2834 -0.0869
  209loPI   C2A 3336  11.272  18.901   8.953 -0.1581 -0.0424 -0.2490
  209loPI   C3A 3337  11.341  18.811   8.583  0.2003  0.0353 -0.2257
  209loPI   C4A 3338  11.382  18.704   8.154 -0.0529 -0.1968 -0.0181
  209loPI   C5A 3339  11.229  18.450   7.841 -0.1838 -0.1528 -0.1501
  209loPI   C6A 3340  10.752  18.298   7.717 -0.0561 -0.0442  0.2285
  209loPI   C1B 3341  11.575  18.535   9.135  0.0744 -0.0373  0.0689
  209loPI   C2B 3342  11.771  18.610   8.710 -0.0288 -0.1721  0.0831
  209loPI   C3B 3343  11.854  18.514   8.307  0.1632 -0.1057 -0.1037
  209loPI   C4B 3344  11.830  18.232   8.027 -0.0451  0.0243  0.1101
  210loPI    C1 3345   8.948  10.398  10.102  0.2078 -0.3650 -0.0419
  210loPI    C2 3346   9.227  10.236  10.339  0.1898 -0.0587  0.1949
  210loPI    C3 3347   8.988  10.525  10.479  0.0437 -0.0127 -0.1385
  210loPI   PO4 3348   8.893  10.148   9.961  0.0577 -0.2517  0.1752
  210loPI   GL1 3349   8.985   9.993   9.542 -0.0783 -0.1408  0.2802
  210loPI   GL2 3350   8.948   9.721   9.665 -0.4144 -0.0576  0.0735
  210loPI   C1A 3351   8.647  10.108   9.324 -0.0094 -0.4179 -0.2645
  210loPI   C2A 3352   8.620  10.276   8.877 -0.0574 -0.1047  0.1215
  210loPI   C3A 3353   8.755  10.721   8.686 -0.2446  0.0179  0.0241
  210loPI   C4A 3354   9.065  11.045   8.665  0.0687  0.4193 -0.4242
  210loPI   C5A 3355   9.233  11.207   8.249  0.0769 -0.5131  0.1028
  210loPI   C6A 3356   9.472  11.359   7.934 -0.1541  0.0605 -0.0071
  210loPI   C1B 3357   9.175   9.598   9.306  0.0017  0.2561  0.0791
  210loPI   C2B 3358   9.297   9.723   8.908  0.2442  0.1834 -0.1478
  210loPI   C3B 3359   9.503   9.765   8.521  0.2099  0.2189 -0.0122
  210loPI   C4B 3360   9.429   9.452   8.148  0.0274  0.1316 -0.0925
  211loPI    C1 3361   3.404  18.319   9.974 -0.0780 -0.0843 -0.1066
  211loPI    C2 3362   3.417  18.011  10.230  0.0718 -0.0777 -0.1051
  211loPI    C3 3363   3.648  18.332  10.291 -0.0755  0.0314 -0.1129
  211loPI   PO4 3364   3.164  18.372   9.824 -0.0105 -0.0051 -0.2934
  211loPI   GL1 3365   3.112  18.366   9.396  0.2574  0.0898 -0.0738
  211loPI   GL2 3366   3.417  18.141   9.461 -0.0314 -0.2907 -0.0110
  211loPI   C1A 3367   3.046  18.508   8.966 -0.0613 -0.0554  0.0716
  211loPI   C2A 3368   3.153  18.551   8.550 -0.0670  0.1322 -0.2366
  211loPI   C3A 3369   3.265  18.567   8.080  0.3715 -0.2184 -0.3193
  211loPI   C4A 3370   3.370  18.456   7.737  0.2621  0.0601  0.0906
  211loPI   C5A 3371   3.577  18.232   7.426 -0.0757  0.0684  0.0521
  211loPI   C6A 3372   3.980  18.137   7.200 -0.5082 -0.1088 -0.1406
  211loPI   C1B 3373   3.457  18.234   9.046  0.2655 -0.0168  0.1776
  211loPI   C2B 3374   3.206  18.088   8.710 -0.0288  0.0795 -0.3068
  211loPI   C3B 3375   3.170  18.047   8.255  0.0215 -0.0847  0.1037
  211loPI   C4B 3376   3.252  18.006   7.785 -0.0062  0.3657  0.1168
  212loPI    C1 3377   9.141   2.408  10.042  0.0430  0.0696 -0.1723
  212loPI    C2 3378   9.379   2.667   9.852  0.0925 -0.0445 -0.2674
  212loPI    C3 3379   9.422   2.608  10.245 -0.1004  0.2933 -0.1910
  212loPI   PO4 3380   9.138   2.193   9.898 -0.2739  0.1473 -0.2241
  212loPI   GL1 3381   9.226   2.323   9.535  0.3123 -0.1898  0.2502
  212loPI   GL2 3382   9.415   1.957   9.529 -0.2178 -0.1679  0.3170
  212loPI   C1A 3383   9.504   2.731   9.322 -0.0207  0.3017  0.0577
  212loPI   C2A 3384   9.948   2.847   9.328 -0.0496 -0.0212  0.2465
  212loPI   C3A 3385  10.234   3.120   9.004  0.2422 -0.0036  0.0378
  212loPI   C4A 3386  10.223   3.247   8.629  0.1202  0.1362 -0.1594
  212loPI   C5A 3387  10.175   3.060   8.202 -0.1991 -0.0208 -0.1812
  212loPI   C6A 3388  10.256   3.355   7.851  0.3044  0.2359 -0.1094
  212loPI   C1B 3389   9.436   2.307   9.097  0.5225  0.1709 -0.0115
  212loPI   C2B 3390   9.709   2.443   8.808 -0.0958 -0.0400  0.1357
  212loPI   C3B 3391   9.782   2.593   8.373  0.1253  0.2431  0.0483
  212loPI   C4B 3392  10.125   2.604   8.105  0.0632  0.0029  0.0165
  213loPI    C1 3393  17.970   7.950   9.988  0.1169  0.0194  0.1182
  213loPI    C2 3394  17.893   7.683  10.276  0.0987 -0.0122  0.0840
  213loPI    C3 3395  17.938   8.069  10.369  0.1969 -0.0375  0.1431
  213loPI   PO4 3396  17.956   7.872   9.772  0.3240  0.4328  0.1523
  213loPI   GL1 3397  18.046   8.108   9.371 -0.1470  0.1322  0.2375
  213loPI   GL2 3398  18.252   8.444   9.412 -0.2629 -0.0512 -0.2635
  213loPI   C1A 3399  17.827   7.940   9.033  0.0995  0.0465  0.2112
  213loPI   C2A 3400  17.936   7.956   8.584 -0.0808 -0.3120 -0.3703
  213loPI   C3A 3401  18.095   7.906   8.197  0.0308  0.0019  0.4148
  213loPI   C4A 3402  18.343   8.320   8.093  0.2274 -0.5032  0.0410
  213loPI   C5A 3403  18.625   8.428   7.797 -0.1035  0.2080 -0.0137
  213loPI   C6A 3404  18.735   8.698   7.474  0.0256  0.0910 -0.1166
  213loPI   C1B 3405  18.203   8.784   9.015 -0.1007 -0.1292  0.0625
  213loPI   C2B 3406  18.235   8.892   8.616 -0.0571  0.2421  0.0187
  213loPI   C3B 3407  18.357   8.928   8.283 -0.2025 -0.0378 -0.0446
  213loPI   C4B 3408  18.378   8.801   7.860  0.0535  0.1564  0.1036
  214loPI    C1 3409  13.532   8.268   9.933 -0.2423 -0.0349  0.0500
  214loPI    C2 3410  13.179   8.422  10.044 -0.0507  0.2833  0.2323
  214loPI    C3 3411  13.519   8.571  10.193  0.1878  0.2927 -0.2955
  214loPI   PO4 3412  13.507   8.184   9.643  0.1591 -0.0790  0.0449
  214loPI   GL1 3413  13.382   7.932   9.302 -0.3486 -0.2144 -0.1314
  214loPI   GL2 3414  13.115   7.723   9.286  0.0299  0.3390  0.1483
  214loPI   C1A 3415  13.396   7.957   8.852  0.2919 -0.1096  0.0608
  214loPI   C2A 3416  13.229   7.861   8.454 -0.0927  0.1357  0.4119
  214loPI   C3A 3417  13.253   7.708   8.048 -0.2977 -0.3681 -0.2145
  214loPI   C4A 3418  13.397   7.416   7.765 -0.0925 -0.2386  0.1046
  214loPI   C5A 3419  13.341   6.945   7.693  0.0645  0.2514  0.0089
  214loPI   C6A 3420  13.413   6.519   7.763 -0.1779 -0.2204 -0.3549
  214loPI   C1B 3421  12.902   7.644   8.941  0.1120 -0.0323  0.2892
  214loPI   C2B 3422  12.727   7.347   8.558  0.0967 -0.1143 -0.3543
  214loPI   C3B 3423  12.828   7.261   8.175  0.4977 -0.0760 -0.1587
  214loPI   C4B 3424  12.964   7.214   7.830 -0.1601 -0.3132  0.0451
  215loPI    C1 3425   8.610  18.648  10.733  0.0354  0.2820 -0.1606
  215loPI    C2 3426   8.868  18.611  11.037  0.0446 -0.1800 -0.2176
  215loPI    C3 3427   8.494  18.736  11.106  0.1398  0.0275 -0.0655
  215loPI   PO4 3428   8.819  18.653  10.538 -0.0110  0.0265 -0.0605
  215loPI   GL1 3429   9.063  18.734  10.218 -0.0284 -0.1488 -0.1677
  215loPI   GL2 3430   9.451  18.772  10.304  0.1906 -0.2666  0.5585
  215loPI   C1A 3431   9.140  18.806   9.742 -0.0563  0.1673 -0.1216
  215loPI   C2A 3432   9.354  18.823   9.341  0.1017  0.1359  0.1665
  215loPI   C3A 3433   9.689  18.692   8.977 -0.0639  0.1143 -0.1449
  215loPI   C4A 3434   9.834  18.568   8.552 -0.2571 -0.0006  0.3457
  215loPI   C5A 3435   9.774  18.423   8.084  0.1155 -0.2225 -0.2385
  215loPI   C6A 3436   9.833  18.500   7.605  0.2034  0.0641 -0.0914
  215loPI   C1B 3437   9.416  18.441   9.969  0.2299 -0.0879  0.0904
  215loPI   C2B 3438   9.196  18.247   9.688  0.0674  0.2434  0.2613
  215loPI   C3B 3439   8.797  18.287   9.631 -0.2423 -0.2048 -0.0794
  215loPI   C4B 3440   8.491  18.558   9.621 -0.2038 -0.3037  0.1674
  216loPI    C1 3441  11.731  12.383  10.183  0.0444 -0.1595  0.0690
  216loPI    C2 3442  11.943  12.621  10.424 -0.1628 -0.1075  0.2021
  216loPI    C3 3443  12.015  12.228  10.417 -0.0083 -0.0794  0.1866
  216loPI   PO4 3444  11.667  12.651   9.989 -0.0520 -0.1144 -0.1096
  216loPI   GL1 3445  11.727  12.992   9.581  0.0716 -0.1831 -0.3793
  216loPI   GL2 3446  11.802  13.192   9.435 -0.2211 -0.2198  0.2052
  216loPI   C1A 3447  11.440  12.815   9.298  0.0940 -0.0873  0.2616
  216loPI   C2A 3448  11.433  12.663   8.926  0.0365 -0.0424 -0.1433
  216loPI   C3A 3449  11.522  12.559   8.518  0.0725 -0.2381  0.1344
  216loPI   C4A 3450  11.703  12.586   8.126 -0.0844  0.0955  0.0145
  216loPI   C5A 3451  11.652  12.496   7.656  0.1190 -0.4014 -0.0385
  216loPI   C6A 3452  11.579  12.364   7.242  0.2898  0.0493  0.0430
  216loPI   C1B 3453  11.941  13.371   9.113  0.1410 -0.0279 -0.1965
  216loPI   C2B 3454  12.095  13.630   8.794  0.0077  0.1028 -0.2381
  216loPI   C3B 3455  12.367  13.880   8.560  0.0417  0.5219 -0.0564
  216loPI   C4B 3456  12.699  14.069   8.289  0.2597  0.0854 -0.2119
  217loPI    C1 3457  18.090  16.209  10.392 -0.1256 -0.0939  0.0934
  217loPI    C2 3458  18.153  16.590  10.495 -0.0224 -0.1024  0.0626
  217loPI    C3 3459  18.344  16.295  10.688 -0.0967 -0.1384  0.0818
  217loPI   PO4 3460  18.137  16.168  10.111  0.0134  0.0634 -0.3828
  217loPI   GL1 3461  18.005  16.356   9.697  0.0511  0.0350  0.0251
  217loPI   GL2 3462  18.162  16.605   9.513  0.1276 -0.2470 -0.0617
  217loPI   C1A 3463  17.907  16.225   9.333 -0.0193 -0.1683  0.2329
  217loPI   C2A 3464  17.894  16.239   8.942 -0.1242  0.0373  0.1345
  217loPI   C3A 3465  17.991  16.254   8.560  0.1276  0.0673 -0.2271
  217loPI   C4A 3466  17.577  16.412   8.201 -0.1492  0.1417 -0.0093
  217loPI   C5A 3467  17.557  16.404   7.768 -0.1090  0.1705 -0.0031
  217loPI   C6A 3468  17.645  16.553   7.348  0.0811 -0.2956  0.6226
  217loPI   C1B 3469  18.256  16.558   9.164  0.3210  0.2686 -0.1706
  217loPI   C2B 3470  18.170  16.662   8.765  0.1338 -0.0030 -0.1708
  217loPI   C3B 3471  18.242  16.620   8.307 -0.2960  0.1808 -0.2564
  217loPI   C4B 3472  18.021  16.435   7.988  0.1054 -0.1413  0.1663
  218loPI    C1 3473   1.599   4.330   9.761 -0.1170  0.1469  0.0921
  218loPI    C2 3474   1.653   4.494  10.122  0.0694  0.2522  0.0179
  218loPI    C3 3475   1.922   4.235   9.978 -0.1719 -0.0456  0.0917
  218loPI   PO4 3476   1.595   4.424   9.609 -0.1183  0.2452  0.2002
  218loPI   GL1 3477   1.508   4.707   9.366  0.1613 -0.0910 -0.0883
  218loPI   GL2 3478   1.339   4.519   9.214  0.2199 -0.2509  0.1345
  218loPI   C1A 3479   1.598   4.808   8.871  0.1849  0.2946  0.2106
  218loPI   C2A 3480   1.415   4.759   8.531  0.1401  0.0114  0.0107
  218loPI   C3A 3481   1.516   4.875   8.031  0.1311 -0.1467  0.0038
  218loPI   C4A 3482   1.370   4.953   7.657  0.0825 -0.2646  0.2297
  218loPI   C5A 3483   1.414   4.916   7.264  0.0068  0.5203 -0.0169
  218loPI   C6A 3484   1.270   4.625   6.986  0.0826  0.2948  0.1307
  218loPI   C1B 3485   1.204   4.404   8.842  0.1197 -0.0622  0.1087
  218loPI   C2B 3486   1.234   4.323   8.319 -0.0041  0.1395  0.1450
  218loPI   C3B 3487   1.301   4.315   7.921  0.4375 -0.0113  0.0954
  218loPI   C4B 3488   1.130   3.951   7.699 -0.0898 -0.1863 -0.2244
  219loPI    C1 3489   2.040  14.703  10.466  0.0019  0.1224  0.0232
  219loPI    C2 3490   1.903  14.405  10.695  0.2641 -0.0442 -0.0325
  219loPI    C3 3491   2.034  14.743  10.864  0.0634  0.0009  0.0366
  219loPI   PO4 3492   2.147  14.587  10.309 -0.0062 -0.1931  0.3099
  219loPI   GL1 3493   2.493  14.678   9.917  0.0417 -0.2301 -0.0195
  219loPI   GL2 3494   2.598  14.887   9.779  0.3030 -0.3278  0.0237
  219loPI   C1A 3495   2.319  14.714   9.448  0.0063 -0.2783  0.0287
  219loPI   C2A 3496   2.403  14.650   9.013  0.0383  0.1193 -0.2145
  219loPI   C3A 3497   2.404  14.715   8.650  0.4685 -0.0403 -0.4911
  219loPI   C4A 3498   2.240  14.846   8.324  0.3055 -0.1968 -0.0353
  219loPI   C5A 3499   2.147  14.600   8.020 -0.0585 -0.0561  0.0956
  219loPI   C6A 3500   2.214  14.436   7.607 -0.0569  0.0808 -0.0999
  219loPI   C1B 3501   2.884  14.622   9.534  0.2786 -0.0128  0.0193
  219loPI   C2B 3502   2.835  14.477   9.148 -0.0659 -0.2759 -0.2132
  219loPI   C3B 3503   2.983  14.439   8.738 -0.0614  0.0749 -0.0874
  219loPI   C4B 3504   2.878  14.465   8.265 -0.2004  0.1508  0.0063
  220loPI    C1 3505  15.997  14.299  10.071  0.2039  0.0410 -0.0041
  220loPI    C2 3506  16.230  14.341  10.394  0.1670 -0.0161  0.0301
  220loPI    C3 3507  16.197  13.984  10.216 -0.2221 -0.1096  0.2769
  220loPI   PO4 3508  16.006  14.505   9.943 -0.0759 -0.3673  0.0801
  220loPI   GL1 3509  15.804  14.749   9.507 -0.0727  0.1386  0.1122
  220loPI   GL2 3510  15.930  14.434   9.417 -0.0883  0.0856  0.1578
  220loPI   C1A 3511  16.198  14.809   9.132 -0.1554 -0.2922  0.1046
  220loPI   C2A 3512  16.569  14.831   9.071 -0.0912 -0.0437 -0.2827
  220loPI   C3A 3513  17.011  14.951   8.998  0.1150  0.0568 -0.1553
  220loPI   C4A 3514  17.328  14.985   8.686  0.1235  0.0947  0.1693
  220loPI   C5A 3515  17.247  15.047   8.251  0.1465 -0.1599  0.1817
  220loPI   C6A 3516  17.249  15.012   7.802 -0.3276  0.0325 -0.0808
  220loPI   C1B 3517  15.755  14.677   8.998  0.1409 -0.3934 -0.0255
  220loPI   C2B 3518  15.716  14.895   8.485 -0.2511 -0.2571  0.2259
  220loPI   C3B 3519  15.965  15.098   8.170  0.1402  0.0028  0.2038
  220loPI   C4B 3520  16.232  14.973   7.772  0.0108 -0.0956  0.2727
  221loPI    C1 3521  15.762  16.549  10.348  0.1505 -0.0775  0.0086
  221loPI    C2 3522  15.397  16.398  10.411  0.0047  0.1545 -0.2530
  221loPI    C3 3523  15.624  16.510  10.721 -0.0964 -0.0996 -0.0832
  221loPI   PO4 3524  15.679  16.760  10.143  0.0747 -0.1395  0.1623
  221loPI   GL1 3525  15.560  16.777   9.812 -0.1556  0.0600  0.0065
  221loPI   GL2 3526  15.214  16.917   9.683 -0.3274  0.0056  0.0921
  221loPI   C1A 3527  15.758  16.875   9.423  0.1167  0.1922  0.3324
  221loPI   C2A 3528  15.888  16.946   9.054 -0.2106  0.2536 -0.3455
  221loPI   C3A 3529  15.916  17.002   8.639 -0.1123  0.1375  0.3539
  221loPI   C4A 3530  15.946  17.080   8.123 -0.2130  0.1517 -0.1149
  221loPI   C5A 3531  15.994  16.926   7.745  0.0893  0.1013 -0.2753
  221loPI   C6A 3532  16.287  16.810   7.475  0.2860  0.0314 -0.0050
  221loPI   C1B 3533  15.035  16.873   9.300  0.2429  0.1123  0.1448
  221loPI   C2B 3534  15.023  16.823   8.764  0.2374  0.1167  0.1433
  221loPI   C3B 3535  14.828  16.659   8.410  0.2749  0.1866  0.1803
  221loPI   C4B 3536  14.536  16.808   7.988 -0.2334  0.0071  0.0673
  222loPI    C1 3537  18.498  14.206  10.116 -0.1131  0.1181  0.0998
  222loPI    C2 3538  18.723  14.493  10.281 -0.0573  0.1474 -0.0248
  222loPI    C3 3539  18.644  14.157  10.485  0.5351 -0.0924 -0.1698
  222loPI   PO4 3540  18.296  14.337   9.969 -0.0976  0.4181 -0.0810
  222loPI   GL1 3541  18.419  14.300   9.554 -0.2797  0.0308  0.1791
  222loPI   GL2 3542  18.638  14.323   9.325  0.1408  0.1021  0.2672
  222loPI   C1A 3543  18.407  13.855   9.353  0.1582  0.1207  0.1986
  222loPI   C2A 3544  18.382  13.773   8.940 -0.0498  0.5582 -0.1898
  222loPI   C3A 3545  18.194  13.481   8.651  0.0037 -0.2051  0.0929
  222loPI   C4A 3546  17.805  13.436   8.472  0.2218 -0.1705  0.0320
  222loPI   C5A 3547  17.490  13.566   8.047  0.2839  0.0210  0.0652
  222loPI   C6A 3548  17.126  13.744   7.832  0.0800  0.0636  0.0694
  222loPI   C1B 3549  18.333  14.274   9.059 -0.3544  0.0316  0.0553
  222loPI   C2B 3550  18.425  14.311   8.610 -0.2283  0.0212 -0.3103
  222loPI   C3B 3551  18.547  14.295   8.325 -0.3628  0.0311  0.0474
  222loPI   C4B 3552  18.503  14.311   7.897 -0.1032 -0.1356 -0.0376
  223loPI    C1 3553  17.064   8.967  10.062  0.1191 -0.1958  0.4043
  223loPI    C2 3554  16.701   8.802  10.091 -0.1160  0.2181 -0.0475
  223loPI    C3 3555  16.780   9.145  10.281  0.0621  0.0972  0.0997
  223loPI   PO4 3556  17.098   9.027   9.784  0.1294 -0.0475 -0.0913
  223loPI   GL1 3557  16.879   8.775   9.626  0.0366 -0.2784 -0.0820
  223loPI   GL2 3558  17.085   8.599   9.513 -0.1303 -0.0878 -0.1273
  223loPI   C1A 3559  16.874   8.857   9.120 -0.0706 -0.0218  0.1674
  223loPI   C2A 3560  16.930   8.814   8.652  0.3064  0.0265 -0.1855
  223loPI   C3A 3561  16.780   8.830   8.211 -0.3813  0.3055  0.0261
  223loPI   C4A 3562  16.969   9.122   7.897 -0.2977 -0.2252 -0.1267
  223loPI   C5A 3563  16.875   9.537   7.774 -0.3553  0.1085  0.1264
  223loPI   C6A 3564  16.691   9.690   7.397  0.0739 -0.0450  0.0362
  223loPI   C1B 3565  17.320   8.794   9.264 -0.0932 -0.1470 -0.1985
  223loPI   C2B 3566  17.421   8.740   8.901  0.0542 -0.0033 -0.0847
  223loPI   C3B 3567  17.433   8.704   8.463  0.1891 -0.0593  0.1079
  223loPI   C4B 3568  17.524   8.637   7.888 -0.3070 -0.2024 -0.0355
  224loPI    C1 3569  15.109  14.362   9.817  0.3186  0.2770 -0.0770
  224loPI    C2 3570  14.806  14.549   9.634 -0.0272 -0.0231  0.1721
  224loPI    C3 3571  14.944  14.686   9.984  0.1600  0.1388  0.0377
  224loPI   PO4 3572  15.007  14.114   9.631  0.2878 -0.1494  0.0576
  224loPI   GL1 3573  15.072  13.889   9.228 -0.1502 -0.0974 -0.0421
  224loPI   GL2 3574  14.836  13.761   9.028 -0.1118 -0.2909 -0.0629
  224loPI   C1A 3575  15.184  13.461   9.134  0.2109 -0.4777 -0.1839
  224loPI   C2A 3576  15.258  13.067   8.942 -0.0854 -0.0211  0.2565
  224loPI   C3A 3577  15.534  12.773   8.992  0.2892 -0.1857  0.0776
  224loPI   C4A 3578  15.695  12.746   8.580 -0.0568 -0.1233  0.0935
  224loPI   C5A 3579  15.932  12.739   8.156  0.0710 -0.0357  0.0990
  224loPI   C6A 3580  16.215  12.780   7.978  0.0796 -0.1624  0.1263
  224loPI   C1B 3581  15.214  13.807   8.716  0.1396 -0.1128  0.2840
  224loPI   C2B 3582  15.245  13.972   8.265 -0.0452 -0.2614 -0.0550
  224loPI   C3B 3583  15.336  14.017   7.788 -0.1796 -0.0410  0.0168
  224loPI   C4B 3584  15.110  13.847   7.447  0.0064  0.1845 -0.1297
  225loPI    C1 3585   6.344   9.814   9.765 -0.1582 -0.0076  0.0355
  225loPI    C2 3586   6.505   9.713  10.117  0.1330  0.0052 -0.0907
  225loPI    C3 3587   6.110   9.768  10.086  0.0942 -0.0821  0.2123
  225loPI   PO4 3588   6.505  10.101   9.724  0.0646  0.0932  0.3935
  225loPI   GL1 3589   6.658  10.153   9.365  0.3340 -0.1414  0.2623
  225loPI   GL2 3590   6.583  10.422   9.383 -0.0068 -0.1903  0.1453
  225loPI   C1A 3591   7.042  10.172   9.166 -0.0397 -0.1065  0.0649
  225loPI   C2A 3592   7.116  10.227   8.717  0.3008  0.2608 -0.1140
  225loPI   C3A 3593   6.988  10.350   8.403  0.0393  0.1467  0.3723
  225loPI   C4A 3594   7.017  10.567   8.035  0.0453 -0.2833 -0.2985
  225loPI   C5A 3595   6.982  10.630   7.674  0.1339 -0.1508  0.0132
  225loPI   C6A 3596   6.963  10.896   7.295  0.0452 -0.0096  0.1035
  225loPI   C1B 3597   6.702  10.725   9.064  0.2282 -0.0070 -0.0967
  225loPI   C2B 3598   6.700  10.765   8.656 -0.1194  0.2325 -0.0385
  225loPI   C3B 3599   6.623  10.910   8.202  0.0169 -0.0355 -0.1347
  225loPI   C4B 3600   6.561  11.030   7.867 -0.0137 -0.4262  0.0649
  226loPI    C1 3601  11.554  16.282  10.388 -0.1067  0.1891  0.0966
  226loPI    C2 3602  11.763  16.095  10.673 -0.0962  0.1549  0.0664
  226loPI    C3 3603  11.516  16.394  10.770 -0.0170  0.2093  0.0999
  226loPI   PO4 3604  11.808  16.295  10.190  0.0593 -0.0680  0.1372
  226loPI   GL1 3605  11.917  16.142   9.831 -0.0933  0.0411 -0.0982
  226loPI   GL2 3606  11.603  16.036   9.678  0.2368 -0.0416 -0.0210
  226loPI   C1A 3607  12.114  15.822   9.550  0.0572  0.0974  0.0511
  226loPI   C2A 3608  12.319  15.584   9.251 -0.3507 -0.0815  0.1385
  226loPI   C3A 3609  12.263  15.339   8.930  0.1351  0.2138  0.3188
  226loPI   C4A 3610  12.316  14.967   8.601 -0.0936  0.1251 -0.1419
  226loPI   C5A 3611  12.358  14.720   8.295 -0.1323  0.0346 -0.1216
  226loPI   C6A 3612  12.567  14.495   8.014  0.0900 -0.0912 -0.0643
  226loPI   C1B 3613  11.746  16.071   9.339  0.0580  0.2475  0.3376
  226loPI   C2B 3614  11.834  15.725   9.109 -0.1763  0.0910 -0.2698
  226loPI   C3B 3615  11.978  15.682   8.658  0.1556  0.0189  0.1455
  226loPI   C4B 3616  12.327  15.441   8.471  0.0152 -0.1109 -0.3155
  227loPI    C1 3617  13.656  10.963  10.160 -0.2095 -0.4280  0.2695
  227loPI    C2 3618  13.459  11.302  10.081 -0.0574 -0.4091 -0.0474
  227loPI    C3 3619  13.551  11.207  10.459 -0.0472 -0.0677  0.0388
  227loPI   PO4 3620  13.549  10.831   9.981 -0.0806  0.2911  0.1519
  227loPI   GL1 3621  13.499  10.576   9.602  0.0740  0.2831 -0.1517
  227loPI   GL2 3622  13.819  10.674   9.432 -0.0497  0.0914 -0.0630
  227loPI   C1A 3623  13.116  10.691   9.326 -0.1101 -0.0116 -0.0736
  227loPI   C2A 3624  12.931  10.724   8.909 -0.0966 -0.0369  0.0995
  227loPI   C3A 3625  12.919  10.773   8.394 -0.0026 -0.0665 -0.1118
  227loPI   C4A 3626  13.062  10.773   7.917 -0.1008 -0.0916  0.1220
  227loPI   C5A 3627  13.171  11.166   7.636  0.1914 -0.3342 -0.3460
  227loPI   C6A 3628  13.476  11.105   7.358  0.0294  0.2202  0.1703
  227loPI   C1B 3629  13.703  10.764   8.971  0.2495  0.0807  0.1760
  227loPI   C2B 3630  13.803  10.825   8.594 -0.0469  0.0193 -0.2087
  227loPI   C3B 3631  13.733  11.010   8.284 -0.2334  0.2556 -0.0752
  227loPI   C4B 3632  13.602  10.887   7.807 -0.0848 -0.2178  0.3193
  228loPI    C1 3633  14.010   0.634  10.081 -0.1603  0.2645 -0.0420
  228loPI    C2 3634  14.093   0.784  10.442  0.2552 -0.2558  0.0927
  228loPI    C3 3635  13.881   0.446  10.409 -0.0101 -0.0698 -0.1692
  228loPI   PO4 3636  13.934   0.846   9.937  0.0155 -0.1310  0.0347
  228loPI   GL1 3637  14.061   1.024   9.554 -0.2109 -0.0110 -0.3607
  228loPI   GL2 3638  13.752   1.066   9.447 -0.1233  0.1251 -0.3105
  228loPI   C1A 3639  14.229   0.835   9.176  0.1201 -0.0488 -0.0388
  228loPI   C2A 3640  14.399   0.911   8.819 -0.2732 -0.1174  0.1610
  228loPI   C3A 3641  14.639   1.217   8.619 -0.1065 -0.1259  0.1230
  228loPI   C4A 3642  15.086   1.324   8.384  0.0996  0.1417  0.0898
  228loPI   C5A 3643  15.284   1.216   7.994 -0.1460 -0.1555  0.0487
  228loPI   C6A 3644  15.570   1.308   7.609  0.1604  0.2911 -0.0796
  228loPI   C1B 3645  13.547   1.128   9.107  0.2493  0.2655 -0.0843
  228loPI   C2B 3646  13.486   1.212   8.709 -0.4035  0.0255  0.0674
  228loPI   C3B 3647  13.532   1.230   8.251 -0.1851 -0.0429  0.0305
  228loPI   C4B 3648  13.480   0.877   7.958  0.1499 -0.2895  0.1283
  229loPI    C1 3649  16.554   5.939  10.112  0.0431  0.1700 -0.1601
  229loPI    C2 3650  16.738   5.783  10.431  0.0838  0.0542 -0.2395
  229loPI    C3 3651  16.589   6.154  10.447 -0.0665 -0.0132 -0.0292
  229loPI   PO4 3652  16.722   5.881   9.876 -0.2573  0.1597 -0.2388
  229loPI   GL1 3653  16.697   6.078   9.499  0.2998 -0.0337  0.1729
  229loPI   GL2 3654  16.404   6.003   9.346  0.1847 -0.1620  0.1600
  229loPI   C1A 3655  16.900   6.217   9.172 -0.0710  0.0512 -0.1620
  229loPI   C2A 3656  17.074   6.247   8.859 -0.0241 -0.0618  0.1431
  229loPI   C3A 3657  17.026   6.521   8.537  0.4113 -0.1861  0.1680
  229loPI   C4A 3658  17.185   6.832   8.328  0.0573  0.1563  0.0540
  229loPI   C5A 3659  17.207   6.702   8.011 -0.2980 -0.0800 -0.1002
  229loPI   C6A 3660  17.467   6.645   7.751  0.0293 -0.0022 -0.1432
  229loPI   C1B 3661  16.450   6.047   8.884 -0.1282 -0.0970  0.2274
  229loPI   C2B 3662  16.755   6.027   8.506 -0.0017  0.2637 -0.0672
  229loPI   C3B 3663  16.952   6.147   8.161 -0.0925 -0.0172  0.0311
  229loPI   C4B 3664  17.310   6.116   7.991  0.0979  0.1668 -0.1234
  230loPI    C1 3665   9.253   4.328  10.344 -0.2002  0.2518  0.1429
  230loPI    C2 3666   8.885   4.201  10.432 -0.1428 -0.0053  0.0209
  230loPI    C3 3667   9.025   4.536  10.598 -0.3961  0.0440  0.1405
  230loPI   PO4 3668   9.333   4.122  10.159 -0.1655 -0.1269  0.3156
  230loPI   GL1 3669   9.519   4.041   9.733 -0.2682 -0.0493 -0.3033
  230loPI   GL2 3670   9.210   3.879   9.610 -0.4609  0.2843  0.0166
  230loPI   C1A 3671   9.895   4.040   9.486  0.1722  0.0671  0.0890
  230loPI   C2A 3672  10.025   4.211   9.063 -0.0281 -0.2909  0.0141
  230loPI   C3A 3673  10.038   4.246   8.609  0.3067 -0.1545  0.1684
  230loPI   C4A 3674   9.926   4.316   8.158  0.0633 -0.2996  0.2228
  230loPI   C5A 3675   9.511   4.248   7.907 -0.1768 -0.1277 -0.2656
  230loPI   C6A 3676   9.264   4.417   7.549 -0.1345 -0.1967  0.2306
  230loPI   C1B 3677   9.162   3.646   9.315  0.1889 -0.4873 -0.0238
  230loPI   C2B 3678   9.226   3.707   8.823 -0.0481  0.4565  0.6105
  230loPI   C3B 3679   9.315   3.411   8.489 -0.1788 -0.1107  0.0090
  230loPI   C4B 3680   9.652   3.233   8.225 -0.3132  0.0579 -0.1692
  231loPI    C1 3681  18.876   0.700  10.352  0.0218  0.1567  0.0627
  231loPI    C2 3682  19.152   0.990  10.347  0.2799 -0.0827  0.1344
  231loPI    C3 3683  19.065   0.802  10.689 -0.0963  0.1030  0.1459
  231loPI   PO4 3684  18.949   0.493  10.178 -0.0116  0.0300 -0.1251
  231loPI   GL1 3685  18.928   0.228   9.778 -0.2521  0.1199  0.1664
  231loPI   GL2 3686  18.820   0.037   9.644  0.2016  0.2107 -0.0575
  231loPI   C1A 3687  19.234   0.235   9.362 -0.1297 -0.1536 -0.1179
  231loPI   C2A 3688  19.274   0.294   8.966  0.1894 -0.1654  0.1651
  231loPI   C3A 3689  19.603   0.506   8.710 -0.0877  0.1520  0.0425
  231loPI   C4A 3690  19.564   0.839   8.489 -0.0680 -0.0087  0.0659
  231loPI   C5A 3691  19.359   0.883   8.171 -0.2657 -0.1105 -0.0828
  231loPI   C6A 3692  19.081   0.625   7.949  0.1298  0.1359 -0.0336
  231loPI   C1B 3693  18.859   0.004   9.153 -0.2490  0.1027  0.1843
  231loPI   C2B 3694  18.789  -0.070   8.846  0.0407  0.2978  0.0898
  231loPI   C3B 3695  18.856  -0.234   8.438  0.1284  0.5021  0.1582
  231loPI   C4B 3696  19.128  -0.441   8.109  0.1326 -0.0885 -0.0196
  232loPI    C1 3697  18.212  13.544   9.985 -0.2143  0.2496  0.3256
  232loPI    C2 3698  18.432  13.837   9.824 -0.0887  0.0689  0.1652
  232loPI    C3 3699  18.033  13.852   9.803 -0.0798  0.1721  0.0573
  232loPI   PO4 3700  18.284  13.310   9.811  0.1176  0.2145  0.1662
  232loPI   GL1 3701  18.598  13.300   9.459  0.1340 -0.0965  0.2101
  232loPI   GL2 3702  18.369  12.953   9.452  0.0182  0.2786  0.1753
  232loPI   C1A 3703  18.836  13.365   9.044 -0.1435  0.1311  0.3720
  232loPI   C2A 3704  19.052  13.597   8.859 -0.0343  0.0667 -0.1732
  232loPI   C3A 3705  19.176  13.815   8.416 -0.3263  0.0811  0.0700
  232loPI   C4A 3706  18.959  14.085   8.160 -0.1766  0.0177  0.2607
  232loPI   C5A 3707  19.009  14.208   7.722  0.0970 -0.1397  0.2307
  232loPI   C6A 3708  19.326  14.264   7.468 -0.4726  0.0396  0.1974
  232loPI   C1B 3709  18.422  13.105   9.019  0.3732  0.1855 -0.0786
  232loPI   C2B 3710  18.445  13.057   8.570 -0.5193 -0.1022 -0.0961
  232loPI   C3B 3711  18.643  13.551   8.556 -0.3459 -0.0402 -0.0025
  232loPI   C4B 3712  18.726  13.858   8.511 -0.0697  0.0060  0.0272
  233loPI    C1 3713  10.822  14.595  10.326  0.1010  0.0230  0.1246
  233loPI    C2 3714  10.569  14.790  10.085  0.0278 -0.1771  0.0374
  233loPI    C3 3715  10.597  14.893  10.470  0.2912  0.2772 -0.0963
  233loPI   PO4 3716  11.016  14.566  10.169  0.1201 -0.0266 -0.1904
  233loPI   GL1 3717  10.961  14.675   9.804 -0.0828 -0.0964 -0.1659
  233loPI   GL2 3718  11.220  14.834   9.775  0.1433 -0.0823 -0.0641
  233loPI   C1A 3719  10.913  14.559   9.319 -0.1029  0.1269  0.2282
  233loPI   C2A 3720  10.844  14.603   8.860  0.0106  0.1733  0.0263
  233loPI   C3A 3721  10.833  14.382   8.452 -0.0435  0.0656  0.1948
  233loPI   C4A 3722  10.750  14.389   8.134  0.0788  0.3366  0.1418
  233loPI   C5A 3723  10.727  14.497   7.683 -0.1023  0.2310 -0.1474
  233loPI   C6A 3724  10.924  14.578   7.317  0.1230 -0.0353  0.0006
  233loPI   C1B 3725  11.336  14.851   9.388  0.0346 -0.2283 -0.0085
  233loPI   C2B 3726  11.419  14.851   8.958 -0.1878  0.0960 -0.1104
  233loPI   C3B 3727  11.402  14.980   8.547 -0.0026 -0.2663 -0.0304
  233loPI   C4B 3728  11.218  15.269   8.183 -0.0279 -0.0952  0.0567
  234loPI    C1 3729   8.177  17.183  10.504  0.3195  0.1892 -0.1531
  234loPI    C2 3730   8.093  16.849  10.301  0.1764  0.2144 -0.1365
  234loPI    C3 3731   8.288  16.827  10.649  0.0164  0.1332 -0.0510
  234loPI   PO4 3732   8.115  17.332  10.313 -0.2036  0.0294 -0.0374
  234loPI   GL1 3733   8.268  17.525   9.939 -0.1885 -0.2374 -0.1369
  234loPI   GL2 3734   8.550  17.743   9.830  0.1281 -0.1488 -0.0279
  234loPI   C1A 3735   8.083  17.669   9.593  0.0600  0.2014  0.1248
  234loPI   C2A 3736   8.092  17.668   9.152  0.0766 -0.1459 -0.1387
  234loPI   C3A 3737   8.025  17.618   8.725  0.0143 -0.3145  0.2083
  234loPI   C4A 3738   8.069  17.646   8.313 -0.0295  0.1279 -0.0834
  234loPI   C5A 3739   8.060  17.641   7.895 -0.1271  0.0523 -0.0817
  234loPI   C6A 3740   8.298  17.991   7.622  0.0059  0.3554 -0.0082
  234loPI   C1B 3741   8.564  17.810   9.453  0.0426  0.1434  0.1380
  234loPI   C2B 3742   8.611  17.815   8.986 -0.1611 -0.0183  0.0215
  234loPI   C3B 3743   8.446  17.880   8.620 -0.2221  0.1582  0.0422
  234loPI   C4B 3744   8.465  17.904   8.134 -0.1195 -0.0785  0.0122
  235loPI    C1 3745  10.039   6.459  10.195  0.0577  0.0432  0.0291
  235loPI    C2 3746  10.023   6.115  10.399  0.1164 -0.0874 -0.1831
  235loPI    C3 3747   9.871   6.449  10.557 -0.0610 -0.2384 -0.0308
  235loPI   PO4 3748  10.305   6.453  10.100  0.0827  0.0999 -0.0448
  235loPI   GL1 3749  10.465   6.382   9.734  0.2302 -0.0327 -0.0559
  235loPI   GL2 3750  10.659   6.460   9.614 -0.0592  0.2386  0.0587
  235loPI   C1A 3751  10.203   6.338   9.315 -0.0205 -0.2486  0.2353
  235loPI   C2A 3752  10.160   6.452   8.900  0.4105 -0.3455 -0.0431
  235loPI   C3A 3753  10.335   6.482   8.468 -0.2178 -0.0954 -0.0932
  235loPI   C4A 3754  10.380   6.508   8.062  0.3054  0.1183  0.4631
  235loPI   C5A 3755  10.107   6.666   7.667  0.2709  0.1301  0.0712
  235loPI   C6A 3756  10.063   6.657   7.185  0.1522 -0.0389  0.0023
  235loPI   C1B 3757  10.715   6.378   9.234  0.0711 -0.1245  0.4467
  235loPI   C2B 3758  10.798   6.459   8.749 -0.0993  0.1491  0.2069
  235loPI   C3B 3759  10.806   6.720   8.449  0.1522  0.3328  0.2154
  235loPI   C4B 3760  10.560   6.996   8.139  0.0213  0.1153  0.2796
  236loPI    C1 3761  11.734   9.016  10.235 -0.0806  0.0266 -0.0569
  236loPI    C2 3762  11.536   9.283  10.457 -0.0516 -0.1292  0.1596
  236loPI    C3 3763  11.654   8.937  10.619  0.0341 -0.2142 -0.0808
  236loPI   PO4 3764  11.926   9.147  10.087 -0.3105  0.3107 -0.0926
  236loPI   GL1 3765  11.901   9.208   9.779 -0.2157 -0.2304 -0.3376
  236loPI   GL2 3766  11.762   9.025   9.621 -0.0456 -0.1574 -0.2554
  236loPI   C1A 3767  11.627   9.578   9.484 -0.0715 -0.2356  0.2082
  236loPI   C2A 3768  11.355   9.644   9.159  0.1685 -0.0944 -0.2034
  236loPI   C3A 3769  11.399   9.606   8.758  0.0431  0.1531  0.0624
  236loPI   C4A 3770  11.540   9.292   8.487  0.0726  0.2033 -0.1082
  236loPI   C5A 3771  11.690   9.295   7.998  0.2325  0.0326 -0.2083
  236loPI   C6A 3772  11.972   9.196   7.707 -0.1281 -0.2295  0.2857
  236loPI   C1B 3773  11.652   9.093   9.141  0.0472 -0.1259  0.0831
  236loPI   C2B 3774  11.720   8.894   8.709 -0.0370 -0.0068 -0.0414
  236loPI   C3B 3775  12.020   9.020   8.391  0.1144 -0.2115  0.4743
  236loPI   C4B 3776  12.275   8.994   7.987 -0.1610  0.1960  0.2115
  237loPI    C1 3777  18.553   7.193  10.123  0.2313 -0.0885  0.2848
  237loPI    C2 3778  18.685   7.504  10.337 -0.0996  0.3376 -0.1087
  237loPI    C3 3779  18.318   7.357  10.402  0.0273  0.0715  0.0239
  237loPI   PO4 3780  18.660   7.246   9.902 -0.0871  0.0485  0.3315
  237loPI   GL1 3781  18.470   7.211   9.593 -0.1084  0.0623  0.0571
  237loPI   GL2 3782  18.262   7.109   9.321 -0.0404 -0.1215 -0.1898
  237loPI   C1A 3783  18.637   7.396   9.148  0.0235  0.2334  0.1340
  237loPI   C2A 3784  18.824   7.691   8.756 -0.3529 -0.0048 -0.0425
  237loPI   C3A 3785  18.799   7.550   8.345 -0.1251 -0.1470 -0.0458
  237loPI   C4A 3786  18.759   7.368   7.937 -0.2585  0.1319  0.0454
  237loPI   C5A 3787  18.929   7.303   7.529 -0.0407  0.0259 -0.2542
  237loPI   C6A 3788  18.782   7.141   7.126  0.1837  0.0123 -0.1073
  237loPI   C1B 3789  17.874   7.028   9.007 -0.2608  0.0361  0.2682
  237loPI   C2B 3790  17.747   6.920   8.510  0.1097  0.2336 -0.4441
  237loPI   C3B 3791  17.779   6.969   8.108  0.0041 -0.2093 -0.2841
  237loPI   C4B 3792  17.860   6.964   7.638  0.3104 -0.2019  0.0222
  238loPI    C1 3793  11.226   5.042  10.045  0.0456 -0.4313 -0.2096
  238loPI    C2 3794  10.948   4.772   9.944 -0.4168 -0.1338  0.2188
  238loPI    C3 3795  11.072   4.799  10.324  0.0387 -0.1078  0.0747
  238loPI   PO4 3796  11.475   5.007   9.943 -0.2316  0.3030 -0.0955
  238loPI   GL1 3797  11.497   5.157   9.533 -0.1816  0.0406  0.1380
  238loPI   GL2 3798  11.353   5.499   9.584 -0.1270  0.2208 -0.0591
  238loPI   C1A 3799  11.716   5.217   9.167  0.0325 -0.2828  0.0105
  238loPI   C2A 3800  11.804   5.141   8.735  0.1902 -0.1547 -0.0985
  238loPI   C3A 3801  11.786   5.255   8.195  0.2257  0.1705  0.1121
  238loPI   C4A 3802  11.628   5.003   7.839  0.0662 -0.0278 -0.2312
  238loPI   C5A 3803  11.308   4.656   7.682  0.2784 -0.4250 -0.1003
  238loPI   C6A 3804  11.237   4.467   7.275 -0.0743 -0.2924 -0.1755
  238loPI   C1B 3805  11.435   5.607   9.179  0.1122  0.2126 -0.2237
  238loPI   C2B 3806  11.489   5.561   8.784  0.1870 -0.0612 -0.0964
  238loPI   C3B 3807  11.411   5.528   8.439  0.2156  0.0682  0.1380
  238loPI   C4B 3808  11.399   5.492   7.960 -0.0837 -0.0346  0.0363
  239loPI    C1 3809   1.906   0.305   9.859  0.1136 -0.0844  0.0435
  239loPI    C2 3810   2.130   0.038  10.056  0.0034 -0.1072  0.1393
  239loPI    C3 3811   1.886   0.282  10.258 -0.1411 -0.1581  0.0285
  239loPI   PO4 3812   1.990   0.194   9.589  0.1991  0.1110 -0.2743
  239loPI   GL1 3813   2.162   0.281   9.255 -0.3035  0.4182  0.1025
  239loPI   GL2 3814   2.124   0.627   9.118  0.1582  0.1134  0.1195
  239loPI   C1A 3815   2.390   0.238   8.786  0.1022  0.1332 -0.0621
  239loPI   C2A 3816   2.678   0.193   8.489  0.1515  0.1277  0.1003
  239loPI   C3A 3817   2.612   0.221   8.066 -0.1581  0.1020  0.1881
  239loPI   C4A 3818   2.493   0.157   7.619  0.0266  0.0256 -0.1258
  239loPI   C5A 3819   2.180   0.279   7.293 -0.1896  0.1879  0.0609
  239loPI   C6A 3820   1.973   0.232   6.924  0.0277 -0.0387 -0.0341
  239loPI   C1B 3821   1.851   0.825   8.821 -0.1679  0.4761  0.2829
  239loPI   C2B 3822   1.610   0.998   8.461  0.1261 -0.1580  0.0230
  239loPI   C3B 3823   1.404   1.089   8.138 -0.2714 -0.1200  0.1145
  239loPI   C4B 3824   1.559   0.986   7.821 -0.0560  0.1096 -0.0063
  240loPI    C1 3825   4.772  17.745  10.453  0.1157 -0.3453 -0.1119
  240loPI    C2 3826   4.603  17.483  10.704 -0.0023 -0.1572  0.0076
  240loPI    C3 3827   4.395  17.799  10.574  0.1243 -0.1452 -0.1706
  240loPI   PO4 3828   4.859  17.605  10.225 -0.2586 -0.2253  0.0601
  240loPI   GL1 3829   5.109  17.614   9.815 -0.0718  0.1257 -0.2258
  240loPI   GL2 3830   5.369  17.777   9.822 -0.0593 -0.0760 -0.1726
  240loPI   C1A 3831   5.154  17.432   9.380 -0.0139 -0.0916 -0.1025
  240loPI   C2A 3832   5.346  17.292   9.043 -0.2041 -0.3156 -0.0249
  240loPI   C3A 3833   5.389  17.407   8.659 -0.2109 -0.2739  0.0580
  240loPI   C4A 3834   5.374  17.306   8.173  0.2186  0.0432 -0.1472
  240loPI   C5A 3835   5.111  17.217   7.868  0.3091 -0.0772 -0.0810
  240loPI   C6A 3836   5.181  17.156   7.442  0.0413  0.1060  0.0504
  240loPI   C1B 3837   5.656  17.682   9.439 -0.0326  0.1052  0.1474
  240loPI   C2B 3838   5.812  17.681   8.954 -0.0789  0.1346  0.1412
  240loPI   C3B 3839   5.892  17.742   8.494 -0.0111 -0.1414 -0.1293
  240loPI   C4B 3840   5.932  17.779   8.019 -0.3140 -0.2550  0.1113
  241loPI    C1 3841   1.226   3.748   9.847 -0.0233  0.0440  0.1587
  241loPI    C2 3842   1.595   3.813   9.706 -0.1559  0.3103 -0.0761
  241loPI    C3 3843   1.541   3.575  10.023  0.2077  0.2025 -0.0903
  241loPI   PO4 3844   1.204   3.555   9.593  0.0453 -0.3170  0.2134
  241loPI   GL1 3845   1.047   3.584   9.208 -0.2799 -0.0133  0.3190
  241loPI   GL2 3846   1.089   3.226   9.112  0.1199 -0.0459  0.1737
  241loPI   C1A 3847   0.984   3.609   8.890  0.2058  0.3897 -0.0960
  241loPI   C2A 3848   0.956   3.507   8.459 -0.1179 -0.0383 -0.2256
  241loPI   C3A 3849   1.085   3.568   8.076 -0.2440 -0.1519  0.2016
  241loPI   C4A 3850   0.718   3.610   7.709  0.0498 -0.2387  0.2926
  241loPI   C5A 3851   0.298   3.401   7.376 -0.2332 -0.0969 -0.1437
  241loPI   C6A 3852  -0.054   3.195   7.118 -0.0847  0.0750  0.4136
  241loPI   C1B 3853   1.080   3.110   8.675 -0.0785  0.0849 -0.1113
  241loPI   C2B 3854   1.108   3.073   8.250 -0.1924  0.2544  0.0549
  241loPI   C3B 3855   1.215   3.103   7.833  0.0133  0.4798 -0.0482
  241loPI   C4B 3856   1.134   3.363   7.451  0.1156 -0.0013  0.0100
  242loPI    C1 3857  12.364   3.048  10.174  0.0543  0.0355  0.1558
  242loPI    C2 3858  12.400   2.689  10.346  0.2446 -0.0630 -0.0841
  242loPI    C3 3859  12.334   3.012  10.571 -0.1383 -0.2735  0.1168
  242loPI   PO4 3860  12.337   2.948   9.849 -0.1828 -0.0339  0.1386
  242loPI   GL1 3861  12.405   3.016   9.351 -0.0153 -0.4121  0.0722
  242loPI   GL2 3862  12.205   3.256   9.394  0.1962 -0.0345 -0.1792
  242loPI   C1A 3863  12.749   3.152   9.264  0.1781 -0.2217 -0.0444
  242loPI   C2A 3864  12.952   3.496   8.998 -0.3980  0.1607  0.3742
  242loPI   C3A 3865  12.848   3.624   8.680  0.1941  0.1999  0.0717
  242loPI   C4A 3866  12.752   3.582   8.272  0.0776  0.2541  0.0198
  242loPI   C5A 3867  12.624   3.278   7.902 -0.0067 -0.1765  0.0724
  242loPI   C6A 3868  12.737   3.125   7.540 -0.1540 -0.3494 -0.1794
  242loPI   C1B 3869  12.137   3.137   8.899 -0.1180  0.0724 -0.0011
  242loPI   C2B 3870  11.959   3.002   8.511  0.2459 -0.2390 -0.1905
  242loPI   C3B 3871  12.112   2.852   8.112  0.1709  0.1332  0.1603
  242loPI   C4B 3872  12.324   2.482   7.898  0.1195  0.2103  0.0093
  243loPI    C1 3873  13.207  14.231  10.261  0.0233 -0.0583  0.1182
  243loPI    C2 3874  12.943  14.069  10.513  0.1265  0.1240  0.3477
  243loPI    C3 3875  12.926  14.460  10.430  0.0273  0.0470 -0.0150
  243loPI   PO4 3876  13.240  14.114  10.118  0.0361  0.1440 -0.0571
  243loPI   GL1 3877  13.152  13.977   9.647  0.4219  0.0014 -0.0156
  243loPI   GL2 3878  12.842  13.835   9.491 -0.0057  0.3659  0.0563
  243loPI   C1A 3879  12.990  14.273   9.254  0.0150 -0.0932  0.2020
  243loPI   C2A 3880  12.855  14.692   9.097  0.2316  0.3578 -0.0242
  243loPI   C3A 3881  12.823  14.986   8.754 -0.2153 -0.2522  0.3126
  243loPI   C4A 3882  12.751  15.120   8.284 -0.1708 -0.0618  0.1230
  243loPI   C5A 3883  12.742  15.299   7.943  0.1690 -0.2147  0.0309
  243loPI   C6A 3884  12.747  15.666   7.659  0.0086  0.2478  0.1533
  243loPI   C1B 3885  12.525  14.262   9.412  0.1978 -0.3747 -0.0637
  243loPI   C2B 3886  12.395  14.448   9.075 -0.2518  0.0351 -0.0327
  243loPI   C3B 3887  12.336  14.373   8.643 -0.1573  0.1232 -0.1081
  243loPI   C4B 3888  12.111  14.251   8.267 -0.3127  0.1458 -0.0906
  244loPI    C1 3889  17.982  15.407  10.065  0.1109 -0.2304 -0.0279
  244loPI    C2 3890  17.775  15.604  10.345  0.0915 -0.0067 -0.1961
  244loPI    C3 3891  17.757  15.205  10.326  0.0883 -0.0236  0.1156
  244loPI   PO4 3892  17.997  15.476   9.898  0.1520  0.2029 -0.1544
  244loPI   GL1 3893  18.002  15.138   9.506  0.1315  0.1683  0.3881
  244loPI   GL2 3894  18.352  15.283   9.529  0.0756 -0.2341  0.2128
  244loPI   C1A 3895  17.770  15.440   9.122 -0.0080 -0.2011  0.1080
  244loPI   C2A 3896  17.718  15.435   8.573 -0.0048  0.3249 -0.2726
  244loPI   C3A 3897  17.615  15.436   8.028  0.3056 -0.0522 -0.0521
  244loPI   C4A 3898  17.641  15.507   7.623 -0.0601 -0.2209 -0.2618
  244loPI   C5A 3899  18.083  15.645   7.498  0.3985  0.2029  0.1006
  244loPI   C6A 3900  18.329  15.491   7.129 -0.2157  0.2610  0.0790
  244loPI   C1B 3901  18.398  15.297   9.084 -0.0278  0.2453  0.0279
  244loPI   C2B 3902  18.152  15.284   8.731 -0.2271 -0.0578  0.1058
  244loPI   C3B 3903  18.043  15.198   8.294  0.0957  0.4236 -0.1759
  244loPI   C4B 3904  17.894  15.082   7.843 -0.0603  0.1240  0.2093
  245loPI    C1 3905  15.893  10.282   9.751 -0.0997  0.0814  0.0076
  245loPI    C2 3906  15.836  10.672   9.820 -0.0819  0.1074 -0.1239
  245loPI    C3 3907  15.887  10.420  10.127 -0.0240  0.2190 -0.0413
  245loPI   PO4 3908  16.032  10.247   9.634 -0.0406 -0.3746  0.4496
  245loPI   GL1 3909  16.276  10.478   9.389  0.4189 -0.2248 -0.1866
  245loPI   GL2 3910  16.461  10.183   9.352 -0.3192 -0.1731 -0.0955
  245loPI   C1A 3911  16.162  10.655   8.975 -0.1997  0.1053 -0.0186
  245loPI   C2A 3912  16.160  10.629   8.588 -0.1894  0.1320 -0.2683
  245loPI   C3A 3913  16.186  10.430   8.242 -0.0297 -0.0462  0.0257
  245loPI   C4A 3914  15.922  10.527   7.924 -0.2698  0.0366 -0.1128
  245loPI   C5A 3915  15.604  10.444   7.693  0.3205 -0.1116  0.0524
  245loPI   C6A 3916  15.376  10.733   7.488 -0.3599  0.1511 -0.1716
  245loPI   C1B 3917  16.476  10.227   8.839  0.0775  0.1654 -0.1822
  245loPI   C2B 3918  16.665  10.307   8.412 -0.2476 -0.1097  0.3678
  245loPI   C3B 3919  16.716  10.605   8.073 -0.1231  0.0970  0.1752
  245loPI   C4B 3920  16.816  10.870   7.631  0.0215  0.3607  0.0283
  246loPI    C1 3921   0.748  14.224  10.140 -0.1251  0.0741  0.1079
  246loPI    C2 3922   0.802  14.011   9.806  0.1582  0.3322 -0.0158
  246loPI    C3 3923   0.963  13.887  10.150 -0.0008  0.1489 -0.0058
  246loPI   PO4 3924   0.501  14.326  10.105 -0.2776 -0.0386 -0.2805
  246loPI   GL1 3925   0.229  14.359   9.744  0.1339 -0.0775 -0.1667
  246loPI   GL2 3926   0.055  14.259   9.462  0.1569  0.2253  0.1517
  246loPI   C1A 3927   0.535  14.230   9.416  0.2290 -0.0102 -0.0110
  246loPI   C2A 3928   0.750  14.109   9.107  0.0842 -0.3122  0.1634
  246loPI   C3A 3929   0.709  14.165   8.536  0.4619 -0.0618 -0.2673
  246loPI   C4A 3930   0.763  14.261   8.110  0.1629 -0.1130  0.0397
  246loPI   C5A 3931   1.009  14.461   7.749 -0.0762 -0.2349  0.0667
  246loPI   C6A 3932   1.224  14.875   7.792 -0.2983 -0.0225 -0.0735
  246loPI   C1B 3933  -0.089  14.435   9.076 -0.1315  0.1001 -0.2363
  246loPI   C2B 3934  -0.395  14.710   8.842 -0.2210 -0.0052 -0.2657
  246loPI   C3B 3935  -0.346  14.705   8.407  0.1705 -0.3162 -0.1866
  246loPI   C4B 3936  -0.110  14.563   8.086 -0.2037  0.1014 -0.0987
  247loPI    C1 3937  17.765   5.559   9.942 -0.0914  0.0418  0.2229
  247loPI    C2 3938  17.466   5.571  10.207 -0.0681  0.1054  0.2465
  247loPI    C3 3939  17.845   5.585  10.333 -0.0519 -0.1199  0.2263
  247loPI   PO4 3940  17.717   5.627   9.696 -0.1959  0.1345 -0.0743
  247loPI   GL1 3941  17.913   5.844   9.345 -0.1267 -0.2601 -0.0518
  247loPI   GL2 3942  17.883   6.138   9.252 -0.0138  0.0447 -0.0296
  247loPI   C1A 3943  18.216   5.554   9.084 -0.1004 -0.0286 -0.2608
  247loPI   C2A 3944  18.188   5.437   8.651 -0.1392  0.4646 -0.1076
  247loPI   C3A 3945  18.258   5.645   8.325 -0.1844  0.3742  0.1146
  247loPI   C4A 3946  18.116   5.503   7.915 -0.0628  0.0156  0.1093
  247loPI   C5A 3947  17.981   5.565   7.499  0.1443  0.0900  0.1401
  247loPI   C6A 3948  17.977   5.577   7.017 -0.0351 -0.1633  0.0573
  247loPI   C1B 3949  17.600   5.964   8.948  0.1380 -0.1122  0.1749
  247loPI   C2B 3950  17.735   5.592   8.760  0.2171  0.1038 -0.3447
  247loPI   C3B 3951  17.736   5.345   8.431 -0.0394  0.0807  0.3502
  247loPI   C4B 3952  17.423   5.206   8.285  0.1563  0.5048  0.0666
  248loPI    C1 3953   7.960   6.167  10.398  0.3913  0.1400  0.1999
  248loPI    C2 3954   8.351   6.160  10.478  0.4451  0.1484 -0.0544
  248loPI    C3 3955   8.168   6.508  10.403  0.3807  0.1482  0.0979
  248loPI   PO4 3956   7.958   5.923  10.188 -0.0029  0.0401 -0.1851
  248loPI   GL1 3957   7.945   5.723   9.750 -0.1806 -0.2150  0.1060
  248loPI   GL2 3958   8.241   5.704   9.634  0.0950  0.0395  0.0208
  248loPI   C1A 3959   7.712   5.834   9.460  0.0293 -0.0564 -0.1455
  248loPI   C2A 3960   7.460   6.211   9.213  0.2063 -0.2430 -0.2831
  248loPI   C3A 3961   7.624   6.269   8.789  0.1315  0.4574  0.0239
  248loPI   C4A 3962   7.687   6.361   8.427 -0.1216  0.0670 -0.0296
  248loPI   C5A 3963   7.673   6.691   8.101 -0.1332 -0.0630  0.0116
  248loPI   C6A 3964   7.431   7.122   7.977  0.0013 -0.0127  0.3294
  248loPI   C1B 3965   8.201   5.771   9.241 -0.2148 -0.0350  0.3445
  248loPI   C2B 3966   7.953   6.001   9.044 -0.2698 -0.2357  0.0813
  248loPI   C3B 3967   8.028   5.990   8.596  0.1893 -0.0191  0.3923
  248loPI   C4B 3968   7.887   5.975   8.092  0.1767 -0.3192  0.1708
  249loPI    C1 3969   7.254   8.895  10.196  0.3770  0.0442 -0.2297
  249loPI    C2 3970   6.966   8.696  10.390  0.2512  0.0713 -0.3866
  249loPI    C3 3971   7.348   8.648  10.497  0.1563  0.3912  0.1342
  249loPI   PO4 3972   7.306   8.872   9.990  0.1735  0.3086  0.1556
  249loPI   GL1 3973   7.226   9.055   9.603  0.1251  0.2175  0.1817
  249loPI   GL2 3974   7.195   8.739   9.499 -0.2539 -0.0243 -0.2467
  249loPI   C1A 3975   7.613   9.088   9.350 -0.0572  0.0361 -0.1066
  249loPI   C2A 3976   7.630   9.046   8.990 -0.4181 -0.0386  0.0428
  249loPI   C3A 3977   7.793   9.059   8.510  0.0340 -0.0758 -0.1813
  249loPI   C4A 3978   7.889   8.823   8.172  0.1480 -0.1045  0.1279
  249loPI   C5A 3979   8.117   8.682   7.861  0.0404 -0.1355 -0.2447
  249loPI   C6A 3980   8.576   8.425   7.737  0.0358 -0.0727  0.2667
  249loPI   C1B 3981   7.156   8.834   9.047  0.1678  0.1774 -0.0715
  249loPI   C2B 3982   7.036   8.938   8.564 -0.2506  0.0407 -0.2710
  249loPI   C3B 3983   6.928   9.072   8.154  0.0560  0.2165 -0.3174
  249loPI   C4B 3984   6.780   9.467   7.978  0.0124  0.3108  0.0556
  250loPI    C1 3985  13.237  17.295  10.424  0.0282  0.0218  0.0940
  250loPI    C2 3986  13.611  17.193  10.327 -0.0244  0.0417 -0.1348
  250loPI    C3 3987  13.422  17.001  10.622  0.0661 -0.1614 -0.2075
  250loPI   PO4 3988  13.186  17.329  10.110  0.3311 -0.1106  0.1655
  250loPI   GL1 3989  12.974  17.464   9.802 -0.2987 -0.0249  0.0568
  250loPI   GL2 3990  12.768  17.306   9.708  0.2249 -0.0552 -0.0155
  250loPI   C1A 3991  13.025  17.445   9.259  0.1374  0.1723 -0.2386
  250loPI   C2A 3992  12.966  17.504   8.842  0.1486  0.2376  0.1445
  250loPI   C3A 3993  12.857  17.689   8.471  0.2970  0.0042 -0.0954
  250loPI   C4A 3994  12.893  17.670   8.055 -0.1835 -0.1329 -0.0715
  250loPI   C5A 3995  12.514  17.518   8.062  0.2725  0.0197  0.1980
  250loPI   C6A 3996  12.167  17.267   7.945 -0.3127  0.1142  0.1727
  250loPI   C1B 3997  12.751  16.981   9.407  0.1517  0.2678  0.0064
  250loPI   C2B 3998  12.616  16.911   8.978 -0.1137  0.0765  0.1241
  250loPI   C3B 3999  12.351  16.803   8.569 -0.3265  0.1407  0.0614
  250loPI   C4B 4000  12.199  16.743   8.125 -0.1666 -0.0790  0.0020
  251loPI    C1 4001   5.948  16.364  10.590 -0.2613 -0.0400 -0.1328
  251loPI    C2 4002   5.668  16.275  10.861 -0.0208  0.1370  0.1808
  251loPI    C3 4003   6.055  16.221  10.949  0.0563  0.1052 -0.1660
  251loPI   PO4 4004   5.924  16.188  10.337  0.0861 -0.1860  0.2313
  251loPI   GL1 4005   6.084  16.274  10.066  0.0131  0.2021 -0.0875
  251loPI   GL2 4006   6.233  16.590   9.880  0.0080  0.3057 -0.2269
  251loPI   C1A 4007   5.930  16.120   9.726  0.2315  0.1893 -0.0902
  251loPI   C2A 4008   5.962  16.117   9.215  0.2069  0.1366 -0.0053
  251loPI   C3A 4009   5.926  16.043   8.777  0.1343  0.0382  0.1010
  251loPI   C4A 4010   5.963  16.188   8.363  0.3905 -0.1750 -0.1726
  251loPI   C5A 4011   5.925  16.115   7.902  0.1459  0.0949  0.1696
  251loPI   C6A 4012   5.757  15.750   7.726  0.1566 -0.1542 -0.3079
  251loPI   C1B 4013   6.255  16.397   9.475  0.3775 -0.0539  0.2567
  251loPI   C2B 4014   6.308  16.369   9.018 -0.2196  0.0143 -0.0298
  251loPI   C3B 4015   6.376  16.436   8.572  0.1204 -0.0195  0.0953
  251loPI   C4B 4016   6.298  16.525   8.134 -0.0189 -0.1105  0.0477
  252loPI    C1 4017   5.494  14.048  10.350 -0.1380 -0.2487 -0.1417
  252loPI    C2 4018   5.791  14.268  10.506 -0.0448 -0.2263 -0.3473
  252loPI    C3 4019   5.585  14.016  10.738 -0.0063 -0.0847 -0.1573
  252loPI   PO4 4020   5.598  14.021  10.137  0.0817 -0.2432 -0.1717
  252loPI   GL1 4021   5.585  14.207   9.783 -0.1298  0.2597 -0.0122
  252loPI   GL2 4022   5.251  13.848   9.751 -0.0509 -0.1132  0.1135
  252loPI   C1A 4023   5.483  14.266   9.343 -0.1829  0.2087 -0.1791
  252loPI   C2A 4024   5.672  14.281   9.005 -0.2202  0.3186 -0.0480
  252loPI   C3A 4025   5.530  14.181   8.590  0.1797  0.2097  0.0662
  252loPI   C4A 4026   5.573  14.219   8.106  0.1139 -0.4465  0.3365
  252loPI   C5A 4027   5.460  14.526   7.819  0.2097 -0.0722  0.3066
  252loPI   C6A 4028   5.264  14.811   7.486 -0.0496  0.1680 -0.1797
  252loPI   C1B 4029   5.145  13.928   9.374 -0.1607 -0.1110  0.1181
  252loPI   C2B 4030   5.125  13.924   8.929  0.0797 -0.0636 -0.0311
  252loPI   C3B 4031   5.147  13.901   8.428  0.0238 -0.3574  0.0689
  252loPI   C4B 4032   5.094  13.837   7.996  0.0367 -0.2398  0.0471
  253loPI    C1 4033  17.408   9.365  10.146  0.1355 -0.2352  0.0861
  253loPI    C2 4034  17.324   9.712  10.326  0.0631 -0.2668  0.1135
  253loPI    C3 4035  17.046   9.531  10.102  0.1947 -0.1623 -0.1384
  253loPI   PO4 4036  17.760   9.378  10.080 -0.0087 -0.0648 -0.0183
  253loPI   GL1 4037  18.028   9.570   9.638 -0.2710 -0.0116 -0.1222
  253loPI   GL2 4038  17.756   9.723   9.430  0.3174  0.3472 -0.1406
  253loPI   C1A 4039  18.270   9.602   9.260  0.1931  0.0840  0.1769
  253loPI   C2A 4040  18.542   9.778   8.987 -0.1203  0.1973  0.3709
  253loPI   C3A 4041  18.661   9.847   8.544  0.0449 -0.0219  0.0502
  253loPI   C4A 4042  18.663   9.886   8.031  0.0749 -0.0394  0.2075
  253loPI   C5A 4043  18.395   9.886   7.718  0.0532 -0.0331 -0.2752
  253loPI   C6A 4044  18.571  10.012   7.279  0.1168  0.0065  0.1391
  253loPI   C1B 4045  17.831   9.570   9.039 -0.0599  0.4514 -0.0117
  253loPI   C2B 4046  17.733   9.569   8.619  0.2549  0.0587 -0.0950
  253loPI   C3B 4047  17.797   9.669   8.219  0.2248 -0.0522 -0.4107
  253loPI   C4B 4048  17.866   9.826   7.852 -0.0633  0.1978 -0.3382
  254loPI    C1 4049  15.485   0.205  10.164 -0.0057 -0.1158  0.1749
  254loPI    C2 4050  15.494   0.540   9.946  0.1095 -0.2183  0.0195
  254loPI    C3 4051  15.492   0.561  10.346 -0.0421 -0.0300  0.0106
  254loPI   PO4 4052  15.628   0.056   9.961 -0.0199 -0.1983 -0.0106
  254loPI   GL1 4053  15.679   0.162   9.557 -0.2976  0.1003 -0.1950
  254loPI   GL2 4054  15.818   0.533   9.490 -0.0785 -0.2006 -0.0747
  254loPI   C1A 4055  15.680   0.112   9.101  0.0205 -0.1865 -0.2931
  254loPI   C2A 4056  15.647  -0.070   8.712  0.3410  0.0695  0.1512
  254loPI   C3A 4057  15.732  -0.143   8.324  0.1984  0.1922 -0.0903
  254loPI   C4A 4058  15.677  -0.236   7.920 -0.0760 -0.1762  0.0389
  254loPI   C5A 4059  15.894  -0.344   7.581  0.0790  0.1929  0.5038
  254loPI   C6A 4060  16.090  -0.603   7.250 -0.1249 -0.0565 -0.1117
  254loPI   C1B 4061  16.054   0.470   9.079 -0.1160  0.0678  0.3143
  254loPI   C2B 4062  15.997   0.298   8.689  0.0089 -0.1779 -0.0572
  254loPI   C3B 4063  16.020   0.265   8.318 -0.0443  0.1317  0.0153
  254loPI   C4B 4064  16.095   0.097   7.874  0.0722  0.0565  0.1020
  255loPI    C1 4065  14.405  13.277   9.985  0.0514  0.2425 -0.1581
  255loPI    C2 4066  14.770  13.426   9.919  0.1772  0.1109  0.2196
  255loPI    C3 4067  14.721  13.121  10.173 -0.1195 -0.2811 -0.2898
  255loPI   PO4 4068  14.299  13.327   9.721 -0.1445 -0.3174 -0.0616
  255loPI   GL1 4069  14.029  13.666   9.523 -0.2798 -0.4319 -0.0332
  255loPI   GL2 4070  13.903  13.389   9.336 -0.0212  0.0812  0.1328
  255loPI   C1A 4071  14.352  13.743   9.221  0.1739  0.2360  0.2149
  255loPI   C2A 4072  14.369  14.015   8.850 -0.5377 -0.2232  0.3716
  255loPI   C3A 4073  14.528  14.381   8.626  0.0335 -0.2711 -0.0905
  255loPI   C4A 4074  14.472  14.569   8.217  0.2404 -0.0876 -0.1018
  255loPI   C5A 4075  14.485  14.469   7.750 -0.2525 -0.0213 -0.2595
  255loPI   C6A 4076  14.652  14.201   7.409  0.1765  0.4074  0.2056
  255loPI   C1B 4077  14.171  13.305   9.044  0.2369 -0.0998  0.1712
  255loPI   C2B 4078  14.289  13.347   8.697 -0.0772  0.0350  0.0022
  255loPI   C3B 4079  14.657  13.513   8.641  0.0642 -0.1665 -0.3951
  255loPI   C4B 4080  15.138  13.387   8.493  0.0933 -0.0992  0.3532
  256loPI    C1 4081  14.647   7.648   9.988  0.0783  0.0986 -0.1064
  256loPI    C2 4082  14.675   8.034  10.087 -0.0432  0.0736  0.0297
  256loPI    C3 4083  14.372   7.814  10.228  0.0145 -0.0666 -0.0634
  256loPI   PO4 4084  14.743   7.623   9.796 -0.1375  0.2092  0.1039
  256loPI   GL1 4085  14.740   7.877   9.421  0.0777 -0.2623 -0.2350
  256loPI   GL2 4086  14.982   7.888   9.272 -0.1842 -0.0120 -0.0393
  256loPI   C1A 4087  14.491   7.947   9.111  0.0203 -0.1942 -0.2213
  256loPI   C2A 4088  14.358   7.625   8.821 -0.0492 -0.2574  0.0430
  256loPI   C3A 4089  14.504   7.304   8.601  0.2591  0.0384 -0.1563
  256loPI   C4A 4090  14.806   7.044   8.378  0.2139 -0.0584  0.1616
  256loPI   C5A 4091  14.757   6.806   7.977  0.0237 -0.1002  0.1094
  256loPI   C6A 4092  14.700   6.497   7.656 -0.2368 -0.1564 -0.0284
  256loPI   C1B 4093  14.846   7.594   9.002  0.2575 -0.0823 -0.1177
  256loPI   C2B 4094  14.614   7.169   9.059 -0.0915 -0.0017  0.0155
  256loPI   C3B 4095  14.133   7.293   9.079  0.0552  0.2224  0.0353
  256loPI   C4B 4096  13.742   7.175   9.327  0.0017 -0.0409  0.0892
  257loPI    C1 4097   0.884   0.980   9.952 -0.1438  0.1330 -0.0505
  257loPI    C2 4098   0.490   0.955  10.019 -0.1114  0.2195  0.1823
  257loPI    C3 4099   0.743   0.720  10.222 -0.0564  0.0019 -0.1298
  257loPI   PO4 4100   0.955   0.998   9.765  0.0582 -0.0910  0.2308
  257loPI   GL1 4101   0.967   1.160   9.293 -0.1123  0.0123  0.2207
  257loPI   GL2 4102   0.588   1.134   9.239 -0.1026  0.0355 -0.1757
  257loPI   C1A 4103   1.171   1.331   9.008  0.0746  0.1699 -0.1884
  257loPI   C2A 4104   1.345   1.509   8.602 -0.2325  0.1369 -0.2472
  257loPI   C3A 4105   1.418   1.763   8.296  0.2859  0.0520 -0.0053
  257loPI   C4A 4106   1.475   1.542   7.899  0.2914 -0.3528  0.1358
  257loPI   C5A 4107   1.518   1.375   7.550 -0.1180 -0.0698  0.0898
  257loPI   C6A 4108   1.391   1.125   7.370  0.2495  0.3869 -0.2817
  257loPI   C1B 4109   0.685   1.314   8.880  0.4039  0.0737 -0.4716
  257loPI   C2B 4110   0.630   1.330   8.441  0.1167  0.1189 -0.1437
  257loPI   C3B 4111   0.414   1.307   8.093 -0.0039  0.0246  0.1100
  257loPI   C4B 4112   0.457   1.319   7.612 -0.1240 -0.0016 -0.1140
  258loPI    C1 4113  10.733   5.449  10.431  0.1823  0.1703 -0.0311
  258loPI    C2 4114  10.486   5.754  10.507  0.0543  0.0642 -0.0192
  258loPI    C3 4115  10.347   5.379  10.506  0.1938  0.0119 -0.1163
  258loPI   PO4 4116  10.845   5.564  10.221 -0.1364 -0.0506  0.3226
  258loPI   GL1 4117  10.925   5.303   9.798  0.1858  0.0083 -0.1643
  258loPI   GL2 4118  10.980   5.001   9.528 -0.1772  0.1852  0.2201
  258loPI   C1A 4119  10.735   5.409   9.445 -0.1762  0.0070  0.0681
  258loPI   C2A 4120  10.838   5.506   8.981  0.2271 -0.2396  0.0543
  258loPI   C3A 4121  10.824   5.520   8.644 -0.0493 -0.3229 -0.2607
  258loPI   C4A 4122  10.897   5.763   8.116  0.1700 -0.1577  0.1353
  258loPI   C5A 4123  11.098   6.044   7.872 -0.2019  0.1887  0.2801
  258loPI   C6A 4124  11.334   6.228   7.636 -0.1424  0.0162 -0.0721
  258loPI   C1B 4125  11.098   5.147   9.172 -0.1202  0.1382 -0.0108
  258loPI   C2B 4126  11.141   5.096   8.717  0.0844  0.0417 -0.2160
  258loPI   C3B 4127  11.405   4.967   8.358  0.3736 -0.1767  0.0550
  258loPI   C4B 4128  11.316   4.793   8.165 -0.0003 -0.2066 -0.2391
  259loPI    C1 4129  14.087  18.853  10.236  0.3247 -0.1349  0.1408
  259loPI    C2 4130  13.928  19.024  10.561  0.0689 -0.0703 -0.0161
  259loPI    C3 4131  14.038  18.640  10.571 -0.1695 -0.1383  0.0739
  259loPI   PO4 4132  13.914  18.899  10.064 -0.0431 -0.2628  0.1718
  259loPI   GL1 4133  13.913  18.735   9.693  0.2975  0.0007  0.1886
  259loPI   GL2 4134  13.978  18.452   9.656 -0.0045  0.5269  0.2285
  259loPI   C1A 4135  14.067  19.008   9.343 -0.0106 -0.2041 -0.0480
  259loPI   C2A 4136  14.152  18.968   8.883 -0.2195  0.0196  0.1541
  259loPI   C3A 4137  14.243  18.835   8.498  0.2379 -0.0662  0.2242
  259loPI   C4A 4138  14.340  18.877   8.030  0.1429  0.0691 -0.2070
  259loPI   C5A 4139  14.544  18.718   7.542 -0.0069  0.2516  0.2329
  259loPI   C6A 4140  14.360  18.670   7.104 -0.0989  0.0997 -0.0950
  259loPI   C1B 4141  13.959  18.377   9.215  0.1150  0.5554  0.1384
  259loPI   C2B 4142  14.008  18.486   8.742  0.2454 -0.3216 -0.0117
  259loPI   C3B 4143  13.914  18.502   8.285  0.0034 -0.2353 -0.0103
  259loPI   C4B 4144  14.065  18.466   7.931 -0.0577  0.2307  0.3451
  260loPI    C1 4145  14.620  10.294  10.014 -0.1580 -0.1926 -0.0187
  260loPI    C2 4146  14.483  10.669   9.980 -0.0524 -0.1532 -0.0138
  260loPI    C3 4147  14.473  10.483  10.335 -0.3318 -0.2445 -0.0661
  260loPI   PO4 4148  14.458  10.170   9.784 -0.0567 -0.0255  0.0231
  260loPI   GL1 4149  14.231  10.024   9.481  0.0418 -0.1645  0.1694
  260loPI   GL2 4150  13.963  10.041   9.621  0.0274  0.1122 -0.0744
  260loPI   C1A 4151  14.125  10.279   9.125 -0.1583 -0.1375 -0.1681
  260loPI   C2A 4152  14.284  10.644   8.940 -0.1784  0.0752 -0.0782
  260loPI   C3A 4153  14.269  10.638   8.530 -0.0252  0.1788  0.0960
  260loPI   C4A 4154  14.511  10.789   8.146 -0.0830 -0.0875  0.2137
  260loPI   C5A 4155  14.489  11.063   7.770  0.0878  0.2028 -0.0570
  260loPI   C6A 4156  14.425  11.375   7.456  0.0750 -0.0905  0.1078
  260loPI   C1B 4157  13.705  10.201   9.332 -0.1801  0.0462  0.1436
  260loPI   C2B 4158  13.379  10.372   9.040  0.2036  0.0877  0.0155
  260loPI   C3B 4159  13.329  10.605   8.657  0.0868 -0.1548 -0.0264
  260loPI   C4B 4160  13.441  10.628   8.284  0.0008 -0.0343 -0.4217
  261loPI    C1 4161  13.851  14.730  10.091 -0.0844  0.0955  0.0890
  261loPI    C2 4162  13.709  14.387  10.241 -0.0944  0.1323  0.1649
  261loPI    C3 4163  14.080  14.506  10.332 -0.0964  0.1493  0.1509
  261loPI   PO4 4164  13.769  14.794   9.852 -0.1582 -0.1853  0.0198
  261loPI   GL1 4165  13.797  14.674   9.449  0.2729 -0.2216 -0.2253
  261loPI   GL2 4166  14.207  14.651   9.504  0.0212 -0.1352  0.0768
  261loPI   C1A 4167  13.860  14.493   9.059  0.1717  0.2616  0.4458
  261loPI   C2A 4168  13.902  14.311   8.706 -0.3048  0.0578 -0.0902
  261loPI   C3A 4169  14.055  14.302   8.309  0.4312 -0.3097  0.1080
  261loPI   C4A 4170  14.012  13.986   8.011 -0.2139 -0.0598 -0.0648
  261loPI   C5A 4171  14.362  13.940   7.853 -0.3296  0.3423  0.2631
  261loPI   C6A 4172  14.781  13.928   7.859 -0.0201  0.1343  0.0195
  261loPI   C1B 4173  14.304  14.647   9.007  0.0835  0.0098  0.4056
  261loPI   C2B 4174  14.228  14.784   8.629  0.0072  0.3284  0.0044
  261loPI   C3B 4175  14.118  14.942   8.293 -0.0045 -0.0973 -0.1451
  261loPI   C4B 4176  14.137  14.831   7.802  0.1819  0.0095 -0.0927
  262loPI    C1 4177  12.749  10.591   9.950 -0.0090 -0.1240 -0.2020
  262loPI    C2 4178  12.926  10.494  10.296 -0.2109  0.0861 -0.0368
  262loPI    C3 4179  13.147  10.552   9.967 -0.0192 -0.1348  0.0501
  262loPI   PO4 4180  12.574  10.412   9.808  0.1082 -0.4841 -0.0722
  262loPI   GL1 4181  12.241  10.465   9.599  0.3691  0.1511  0.0627
  262loPI   GL2 4182  12.164  10.811   9.610 -0.1536  0.2627 -0.3741
  262loPI   C1A 4183  12.139  10.293   9.121  0.0549  0.1468 -0.1228
  262loPI   C2A 4184  12.179  10.243   8.666  0.3167  0.0721  0.0867
  262loPI   C3A 4185  12.080  10.075   8.219  0.0867  0.0090  0.1109
  262loPI   C4A 4186  11.995   9.889   7.775 -0.0567 -0.1047 -0.2521
  262loPI   C5A 4187  11.927   9.638   7.390 -0.0608 -0.0582  0.3362
  262loPI   C6A 4188  12.077   9.700   7.161 -0.0646 -0.3472  0.0800
  262loPI   C1B 4189  12.025  10.788   9.158  0.1128  0.0418 -0.1250
  262loPI   C2B 4190  11.943  10.683   8.764 -0.1158  0.3661  0.0222
  262loPI   C3B 4191  12.004  10.599   8.284  0.2275  0.2153  0.1387
  262loPI   C4B 4192  12.230  10.372   7.867 -0.0672 -0.2002 -0.0906
  263loPI    C1 4193  15.134  10.836  10.194 -0.1790 -0.2457 -0.1423
  263loPI    C2 4194  15.519  10.732  10.224 -0.0651  0.1426 -0.2056
  263loPI    C3 4195  15.318  10.852  10.548 -0.0413  0.2442 -0.2277
  263loPI   PO4 4196  15.028  10.597  10.080 -0.2063  0.5748  0.0642
  263loPI   GL1 4197  14.934  10.501   9.584 -0.3768 -0.2882  0.0035
  263loPI   GL2 4198  14.912  10.234   9.480 -0.0887  0.1463  0.3156
  263loPI   C1A 4199  15.075  10.622   9.044 -0.0867 -0.0348 -0.0730
  263loPI   C2A 4200  15.210  10.590   8.631 -0.1110 -0.3403 -0.4368
  263loPI   C3A 4201  15.074  10.813   8.323  0.0812  0.0781  0.0136
  263loPI   C4A 4202  14.954  10.860   7.864  0.0363  0.1039 -0.1028
  263loPI   C5A 4203  14.852  11.025   7.443  0.1355  0.1439 -0.1054
  263loPI   C6A 4204  14.977  11.019   6.968 -0.0082 -0.2139  0.1073
  263loPI   C1B 4205  14.671  10.358   9.116 -0.3106 -0.1130  0.1908
  263loPI   C2B 4206  14.736  10.496   8.662  0.3090 -0.0646 -0.0282
  263loPI   C3B 4207  14.917  10.349   8.132 -0.1992 -0.3852  0.0827
  263loPI   C4B 4208  15.077  10.388   7.699  0.1428  0.1284 -0.1080
  264loPI    C1 4209   0.673   7.499   9.808  0.2028 -0.2516 -0.1227
  264loPI    C2 4210   0.888   7.317  10.092  0.0416 -0.2715 -0.0120
  264loPI    C3 4211   1.062   7.429   9.749  0.2992 -0.0097  0.1990
  264loPI   PO4 4212   0.379   7.256   9.801  0.2443  0.0969  0.0740
  264loPI   GL1 4213   0.166   7.058   9.335 -0.3004 -0.0507  0.1412
  264loPI   GL2 4214   0.597   7.143   9.379 -0.0721 -0.3042  0.0052
  264loPI   C1A 4215   0.130   6.919   8.941  0.0858  0.0997 -0.0892
  264loPI   C2A 4216   0.112   6.866   8.512 -0.2168  0.0132  0.0296
  264loPI   C3A 4217   0.103   6.561   8.213  0.0258 -0.0011  0.0864
  264loPI   C4A 4218   0.175   6.521   7.809 -0.1506 -0.1114  0.0735
  264loPI   C5A 4219   0.053   6.295   7.525  0.4791 -0.1490  0.0405
  264loPI   C6A 4220  -0.103   6.049   7.138  0.1166  0.2160 -0.1153
  264loPI   C1B 4221   0.581   6.977   8.908 -0.1333 -0.0013 -0.0164
  264loPI   C2B 4222   0.557   7.059   8.438 -0.0940  0.0100 -0.0869
  264loPI   C3B 4223   0.343   6.948   7.979  0.1828 -0.0704 -0.1226
  264loPI   C4B 4224   0.613   6.790   7.670 -0.2151  0.1300  0.1393
  265loPI    C1 4225  12.954   7.984   9.928  0.0663 -0.1949 -0.0492
  265loPI    C2 4226  13.283   7.945  10.152  0.0459 -0.0891  0.0001
  265loPI    C3 4227  12.922   7.896  10.317  0.0216  0.2367  0.0501
  265loPI   PO4 4228  13.015   7.987   9.672 -0.3305  0.0537 -0.2310
  265loPI   GL1 4229  12.734   8.068   9.305 -0.1189 -0.0165  0.0848
  265loPI   GL2 4230  12.529   7.920   9.105  0.0032  0.1814 -0.0217
  265loPI   C1A 4231  12.984   8.174   8.952 -0.2261 -0.0896 -0.1305
  265loPI   C2A 4232  13.272   8.404   8.791 -0.0520  0.0464 -0.0721
  265loPI   C3A 4233  13.527   8.315   8.369 -0.3026 -0.1426  0.0165
  265loPI   C4A 4234  13.614   8.511   7.915 -0.0490 -0.0789 -0.4954
  265loPI   C5A 4235  13.673   8.714   7.518  0.2256  0.2381 -0.2749
  265loPI   C6A 4236  13.585   9.093   7.262 -0.1535 -0.1369 -0.1646
  265loPI   C1B 4237  12.609   7.964   8.588  0.0519  0.2681 -0.0086
  265loPI   C2B 4238  12.776   7.962   8.144  0.2461  0.1275 -0.2378
  265loPI   C3B 4239  12.627   8.188   7.670 -0.4421  0.0291 -0.3438
  265loPI   C4B 4240  12.981   8.129   7.482 -0.0530 -0.1280 -0.0133
  266loPI    C1 4241  17.973  10.833   9.977  0.3006  0.1071  0.0903
  266loPI    C2 4242  17.576  10.792  10.008  0.2429  0.1832 -0.4421
  266loPI    C3 4243  17.790  10.915  10.323 -0.1193 -0.0952 -0.0758
  266loPI   PO4 4244  17.936  10.922   9.763 -0.0028 -0.1710  0.0443
  266loPI   GL1 4245  17.984  10.650   9.358  0.2416 -0.0526  0.1192
  266loPI   GL2 4246  17.763  10.860   9.095 -0.1417  0.0393 -0.1732
  266loPI   C1A 4247  18.082  10.559   8.969 -0.1941 -0.1088 -0.3039
  266loPI   C2A 4248  18.149  10.589   8.516  0.0524  0.1728  0.1167
  266loPI   C3A 4249  18.439  10.643   8.174 -0.0558 -0.1084 -0.2987
  266loPI   C4A 4250  18.415  10.615   7.761 -0.0030 -0.2464  0.1946
  266loPI   C5A 4251  18.183  10.371   7.499 -0.0977 -0.0517 -0.0626
  266loPI   C6A 4252  18.062  10.010   7.415 -0.0786 -0.0940  0.0089
  266loPI   C1B 4253  17.772  10.854   8.646  0.1092  0.0849 -0.1791
  266loPI   C2B 4254  17.709  11.256   8.540 -0.2664  0.1056  0.2948
  266loPI   C3B 4255  17.478  11.487   8.280 -0.1898  0.0546  0.0687
  266loPI   C4B 4256  17.004  11.636   8.190 -0.0104  0.0066 -0.1073
  267loPI    C1 4257  17.748   6.378  10.018 -0.1593  0.0473  0.0069
  267loPI    C2 4258  17.566   6.045   9.892  0.0651 -0.1127  0.0986
  267loPI    C3 4259  17.727   6.059  10.258  0.2483  0.0213  0.0141
  267loPI   PO4 4260  17.877   6.362   9.663 -0.1949 -0.2027  0.3380
  267loPI   GL1 4261  17.778   6.700   9.379 -0.1342  0.0081  0.0457
  267loPI   GL2 4262  18.151   6.612   9.297 -0.0875 -0.1343  0.1459
  267loPI   C1A 4263  17.774   6.576   8.896  0.0703  0.0430 -0.0003
  267loPI   C2A 4264  17.876   6.423   8.555 -0.0470  0.0019 -0.0046
  267loPI   C3A 4265  17.842   6.344   8.058  0.0285 -0.1369  0.3516
  267loPI   C4A 4266  17.923   6.396   7.603  0.0306 -0.1458  0.1517
  267loPI   C5A 4267  17.888   6.664   7.194  0.0211  0.2799 -0.0799
  267loPI   C6A 4268  17.873   6.916   6.884  0.1866  0.1706 -0.2054
  267loPI   C1B 4269  18.344   6.823   8.928  0.2929 -0.1555 -0.1926
  267loPI   C2B 4270  18.292   7.259   8.678  0.2011  0.0981  0.2438
  267loPI   C3B 4271  18.255   7.459   8.286  0.4521  0.2273 -0.3337
  267loPI   C4B 4272  18.102   7.443   7.865 -0.0048  0.2649 -0.0414
  268loPI    C1 4273   1.962  16.873  10.333  0.1327 -0.0978  0.0541
  268loPI    C2 4274   2.080  17.251  10.386 -0.1244  0.0253 -0.2201
  268loPI    C3 4275   2.318  16.993  10.194  0.0899  0.0210  0.0456
  268loPI   PO4 4276   1.681  16.900  10.231  0.1116  0.1666  0.2065
  268loPI   GL1 4277   1.576  17.066   9.837 -0.0351 -0.3280 -0.1534
  268loPI   GL2 4278   1.847  17.174   9.804 -0.2513 -0.0383  0.2309
  268loPI   C1A 4279   1.702  16.753   9.522  0.0768  0.1334  0.1959
  268loPI   C2A 4280   1.876  16.487   9.459 -0.0145 -0.1924  0.0302
  268loPI   C3A 4281   2.190  16.346   9.245 -0.4921  0.1457  0.1332
  268loPI   C4A 4282   2.426  16.096   8.921  0.1409  0.3256 -0.2268
  268loPI   C5A 4283   2.256  15.813   8.525 -0.1954  0.2379  0.0407
  268loPI   C6A 4284   2.303  15.854   8.116  0.1429  0.0010  0.2697
  268loPI   C1B 4285   1.924  17.141   9.392 -0.1699 -0.1536  0.0020
  268loPI   C2B 4286   1.992  17.179   8.906 -0.0443  0.0317 -0.2081
  268loPI   C3B 4287   2.091  17.213   8.567  0.2009 -0.1970 -0.0672
  268loPI   C4B 4288   2.014  16.993   8.240  0.1892  0.1845  0.4336
  269loPI    C1 4289   6.119   1.699   9.793  0.0543  0.1276 -0.0341
  269loPI    C2 4290   5.834   1.812   9.536 -0.0506 -0.0237  0.0140
  269loPI    C3 4291   5.740   1.581   9.849  0.1359 -0.1286 -0.0060
  269loPI   PO4 4292   6.345   1.821   9.716 -0.2921 -0.1295 -0.2762
  269loPI   GL1 4293   6.567   1.808   9.326  0.0096 -0.0460  0.3481
  269loPI   GL2 4294   6.706   1.552   9.405 -0.1703  0.3075 -0.1197
  269loPI   C1A 4295   6.615   1.651   8.862 -0.0072 -0.1130 -0.0016
  269loPI   C2A 4296   6.594   1.790   8.496  0.3479 -0.1211 -0.0093
  269loPI   C3A 4297   6.782   2.079   8.127 -0.0420 -0.1696 -0.0918
  269loPI   C4A 4298   6.871   1.996   7.673  0.1204 -0.2597 -0.0496
  269loPI   C5A 4299   7.116   2.193   7.337  0.0382  0.2196  0.2715
  269loPI   C6A 4300   6.996   2.193   6.944  0.1495 -0.0337 -0.1082
  269loPI   C1B 4301   6.694   1.214   9.138  0.2124  0.0307 -0.2254
  269loPI   C2B 4302   6.752   1.061   8.666  0.1147 -0.1839  0.3261
  269loPI   C3B 4303   6.693   1.063   8.198 -0.1359 -0.1006 -0.1829
  269loPI   C4B 4304   6.494   1.144   7.739 -0.2392 -0.0656  0.0153
  270loPI    C1 4305   7.949  18.698  10.447 -0.0829  0.0483  0.0969
  270loPI    C2 4306   7.708  18.455  10.653 -0.0558 -0.1820 -0.1372
  270loPI    C3 4307   8.058  18.569  10.810 -0.1887 -0.0735  0.0861
  270loPI   PO4 4308   7.917  18.512  10.113 -0.2441 -0.0153  0.1999
  270loPI   GL1 4309   7.936  18.476   9.652 -0.2052  0.1637 -0.2586
  270loPI   GL2 4310   7.979  18.060   9.813  0.2427  0.1132 -0.0408
  270loPI   C1A 4311   8.200  18.763   9.327  0.2050  0.2309 -0.2789
  270loPI   C2A 4312   8.381  18.755   8.954 -0.1421  0.1735  0.0595
  270loPI   C3A 4313   8.391  18.449   8.608 -0.0299  0.0886  0.0725
  270loPI   C4A 4314   8.797  18.287   8.260  0.0940 -0.0166 -0.2691
  270loPI   C5A 4315   9.074  18.434   7.955 -0.0902 -0.2046  0.0494
  270loPI   C6A 4316   9.094  18.931   7.956 -0.4036 -0.0145 -0.0126
  270loPI   C1B 4317   8.199  18.129   9.427  0.2506  0.0899 -0.2488
  270loPI   C2B 4318   8.020  18.316   9.124  0.1659 -0.1396  0.1270
  270loPI   C3B 4319   8.000  18.188   8.702  0.1049  0.0357  0.2598
  270loPI   C4B 4320   8.077  18.154   8.305  0.2290  0.0016 -0.1699
  271loPI    C1 4321   0.486  12.593  10.299  0.2573  0.0538 -0.0064
  271loPI    C2 4322   0.218  12.518  10.587  0.2230  0.0149 -0.0483
  271loPI    C3 4323   0.609  12.527  10.674  0.2092  0.0546  0.0096
  271loPI   PO4 4324   0.441  12.369  10.098 -0.0206 -0.2459 -0.1339
  271loPI   GL1 4325   0.557  12.281   9.651 -0.0593 -0.1374 -0.3653
  271loPI   GL2 4326   0.271  12.529   9.556  0.2952 -0.1929 -0.2530
  271loPI   C1A 4327   0.694  12.548   9.295 -0.1226  0.1163 -0.2424
  271loPI   C2A 4328   0.825  12.662   8.899  0.1442 -0.0687 -0.0197
  271loPI   C3A 4329   0.824  12.603   8.537 -0.1262  0.1551 -0.0559
  271loPI   C4A 4330   0.868  12.706   8.182  0.0141 -0.0266 -0.0546
  271loPI   C5A 4331   1.127  12.661   7.794  0.1989  0.1830 -0.1577
  271loPI   C6A 4332   1.469  12.756   7.502  0.0811 -0.1396  0.0162
  271loPI   C1B 4333   0.273  12.733   9.156 -0.2179 -0.0816  0.0161
  271loPI   C2B 4334   0.308  12.725   8.817 -0.0852  0.0929 -0.2033
  271loPI   C3B 4335   0.370  12.921   8.390 -0.0150  0.3572  0.3089
  271loPI   C4B 4336   0.007  12.906   8.060  0.0918  0.1264 -0.0858
  272loPI    C1 4337   4.092   4.865  10.272 -0.0830  0.0719 -0.0177
  272loPI    C2 4338   4.271   4.534  10.407  0.0529  0.0608 -0.2211
  272loPI    C3 4339   4.037   4.748  10.650  0.0674 -0.1136 -0.0517
  272loPI   PO4 4340   4.027   4.792   9.998  0.1125  0.1908 -0.1731
  272loPI   GL1 4341   3.966   4.939   9.625 -0.1224  0.1138  0.0518
  272loPI   GL2 4342   4.273   5.053   9.661  0.3654  0.0104  0.2710
  272loPI   C1A 4343   3.851   4.878   9.106 -0.0961  0.0514  0.0618
  272loPI   C2A 4344   3.950   4.941   8.673  0.0602  0.0734  0.1085
  272loPI   C3A 4345   3.838   4.966   8.173 -0.1039 -0.2380 -0.0858
  272loPI   C4A 4346   4.002   5.205   7.912  0.1614  0.0832  0.0605
  272loPI   C5A 4347   3.992   5.329   7.534  0.3060 -0.3531  0.1530
  272loPI   C6A 4348   3.677   5.576   7.319  0.0004 -0.1339 -0.2320
  272loPI   C1B 4349   4.301   5.006   9.245 -0.0906 -0.1027  0.0291
  272loPI   C2B 4350   4.356   5.129   8.855 -0.2759  0.2039  0.4719
  272loPI   C3B 4351   4.721   5.177   8.536  0.0719  0.2291 -0.4012
  272loPI   C4B 4352   5.106   5.275   8.382  0.0323  0.1610 -0.1314
  273loPI    C1 4353  13.227   0.780  10.325 -0.0209  0.0685  0.2245
  273loPI    C2 4354  13.298   1.172  10.302  0.0339  0.0461 -0.0151
  273loPI    C3 4355  13.603   0.914  10.317 -0.0016  0.0057  0.0120
  273loPI   PO4 4356  13.064   0.679  10.018 -0.2064 -0.1762 -0.0084
  273loPI   GL1 4357  12.981   0.723   9.627  0.0125  0.2625  0.0446
  273loPI   GL2 4358  12.690   0.937   9.536 -0.2579 -0.0250 -0.1992
  273loPI   C1A 4359  12.931   0.463   9.200 -0.0447  0.1708 -0.0772
  273loPI   C2A 4360  13.242   0.272   8.916 -0.3231 -0.2459 -0.0408
  273loPI   C3A 4361  13.219   0.143   8.563  0.1378  0.1250  0.1456
  273loPI   C4A 4362  13.013  -0.098   8.341  0.0389 -0.2686  0.1152
  273loPI   C5A 4363  12.732   0.005   7.969 -0.1494 -0.1797 -0.1057
  273loPI   C6A 4364  12.494  -0.189   7.574 -0.0544 -0.0063 -0.3547
  273loPI   C1B 4365  12.626   1.153   9.220 -0.3392  0.1160 -0.2869
  273loPI   C2B 4366  12.468   1.287   8.796  0.0422  0.0632 -0.3254
  273loPI   C3B 4367  12.172   1.111   8.420 -0.0921 -0.1879 -0.2021
  273loPI   C4B 4368  12.041   1.324   7.992 -0.1537 -0.0123  0.0136
  274loPI    C1 4369   6.900  18.800  10.103  0.0396  0.0528 -0.1847
  274loPI    C2 4370   6.964  18.455   9.911  0.1205  0.0776 -0.2026
  274loPI    C3 4371   6.879  18.453  10.301 -0.1999  0.0170 -0.2701
  274loPI   PO4 4372   6.745  18.924   9.901  0.1599 -0.0516 -0.1612
  274loPI   GL1 4373   6.612  18.617   9.593 -0.0982 -0.1240 -0.5097
  274loPI   GL2 4374   6.761  18.349   9.465  0.1550 -0.0779 -0.1109
  274loPI   C1A 4375   6.740  18.723   9.087 -0.1120 -0.1008 -0.3087
  274loPI   C2A 4376   6.746  18.891   8.692 -0.1550 -0.1913 -0.2471
  274loPI   C3A 4377   6.507  18.952   8.382 -0.3462 -0.1529  0.3903
  274loPI   C4A 4378   6.727  19.286   8.046 -0.0166  0.0946 -0.1018
  274loPI   C5A 4379   6.922  19.722   7.984 -0.0213 -0.1453 -0.0907
  274loPI   C6A 4380   7.012  20.138   7.852  0.1508  0.0158 -0.1879
  274loPI   C1B 4381   6.666  18.221   9.083 -0.0321  0.0424  0.1481
  274loPI   C2B 4382   6.696  18.362   8.652  0.1468  0.1609 -0.0393
  274loPI   C3B 4383   6.635  18.460   8.289 -0.0377  0.0342  0.0910
  274loPI   C4B 4384   6.515  18.707   7.892  0.2001  0.2213  0.1702
  275loPI    C1 4385   0.123  14.650  10.211 -0.1577  0.0497  0.0449
  275loPI    C2 4386   0.242  14.984  10.395  0.0236 -0.1121  0.2268
  275loPI    C3 4387  -0.049  14.761  10.554 -0.1721  0.0135  0.0494
  275loPI   PO4 4388   0.220  14.778   9.948 -0.0909  0.1771 -0.2461
  275loPI   GL1 4389   0.223  14.770   9.469  0.2166 -0.0915 -0.0983
  275loPI   GL2 4390   0.587  14.941   9.548 -0.0985  0.0881  0.0539
  275loPI   C1A 4391   0.164  14.818   9.052 -0.1071 -0.1090 -0.0618
  275loPI   C2A 4392   0.047  15.026   8.661 -0.1003  0.2651  0.2449
  275loPI   C3A 4393  -0.136  15.112   8.276  0.0030 -0.2657 -0.0002
  275loPI   C4A 4394  -0.295  15.065   7.920 -0.0672 -0.2629  0.1833
  275loPI   C5A 4395  -0.272  14.728   7.594  0.1228  0.3362 -0.1314
  275loPI   C6A 4396  -0.340  14.377   7.274  0.1684 -0.3676  0.2087
  275loPI   C1B 4397   0.652  14.636   9.230 -0.1273 -0.0575 -0.0586
  275loPI   C2B 4398   0.519  14.487   8.887  0.3958  0.0552 -0.4351
  275loPI   C3B 4399   0.585  14.658   8.425 -0.0552 -0.2270  0.0806
  275loPI   C4B 4400   0.797  14.814   8.124  0.0404 -0.2875 -0.0654
  276loPI    C1 4401   8.063   3.233  10.334  0.1146 -0.0742  0.0634
  276loPI    C2 4402   7.924   3.008  10.633 -0.0551  0.0067  0.0466
  276loPI    C3 4403   7.801   3.386  10.594  0.0404  0.0265 -0.0689
  276loPI   PO4 4404   8.046   3.159  10.018  0.0353 -0.2024 -0.0939
  276loPI   GL1 4405   8.125   3.401   9.623 -0.2374  0.0727  0.1157
  276loPI   GL2 4406   7.799   3.474   9.688 -0.0371  0.0979  0.2805
  276loPI   C1A 4407   8.160   3.337   9.214 -0.1149  0.1207  0.1028
  276loPI   C2A 4408   8.389   3.276   8.820  0.2335  0.2691  0.2252
  276loPI   C3A 4409   8.454   3.094   8.441  0.2391 -0.1946  0.0122
  276loPI   C4A 4410   8.414   3.008   7.952 -0.2133  0.2580  0.2099
  276loPI   C5A 4411   8.005   2.837   7.747 -0.1308 -0.1295  0.2044
  276loPI   C6A 4412   7.526   2.931   7.782 -0.3282 -0.1512 -0.0871
  276loPI   C1B 4413   7.723   3.179   9.357 -0.0748  0.1331  0.2123
  276loPI   C2B 4414   7.770   3.196   8.900  0.1259  0.2178  0.1707
  276loPI   C3B 4415   7.902   3.239   8.442 -0.0713  0.1422 -0.2162
  276loPI   C4B 4416   7.870   3.174   8.057  0.0125  0.1272 -0.1876
  277loPI    C1 4417  16.291   8.880   9.863 -0.1860  0.3445  0.0624
  277loPI    C2 4418  15.909   8.780   9.931 -0.1219 -0.0092 -0.0739
  277loPI    C3 4419  16.204   8.569  10.100  0.0171  0.0451 -0.2462
  277loPI   PO4 4420  16.358   8.871   9.635  0.4825 -0.1373  0.0287
  277loPI   GL1 4421  16.340   8.726   9.244 -0.1078 -0.0998 -0.3270
  277loPI   GL2 4422  16.146   8.629   9.023 -0.0911 -0.1019 -0.1785
  277loPI   C1A 4423  16.574   8.513   8.825 -0.1541 -0.2238  0.0188
  277loPI   C2A 4424  16.486   8.498   8.448 -0.0474  0.0138  0.6601
  277loPI   C3A 4425  16.478   8.502   7.965 -0.3123 -0.2409 -0.0023
  277loPI   C4A 4426  16.146   8.685   7.710  0.3063 -0.1986 -0.3222
  277loPI   C5A 4427  15.886   8.916   7.430  0.0932 -0.0288  0.0137
  277loPI   C6A 4428  15.548   9.212   7.163 -0.0574  0.3332  0.1738
  277loPI   C1B 4429  16.244   8.939   8.650 -0.1241 -0.3167  0.1476
  277loPI   C2B 4430  16.338   9.139   8.324 -0.2653 -0.1744  0.1617
  277loPI   C3B 4431  16.415   9.080   7.906  0.2988 -0.0169 -0.2204
  277loPI   C4B 4432  16.635   8.856   7.591 -0.2839 -0.3117  0.1218
  278loPI    C1 4433   8.430   2.288  10.277 -0.2539 -0.1069  0.0027
  278loPI    C2 4434   8.591   2.441  10.609 -0.1244 -0.3060  0.0332
  278loPI    C3 4435   8.196   2.459  10.552 -0.1059  0.0928  0.0067
  278loPI   PO4 4436   8.644   2.338  10.071  0.2392 -0.0697 -0.0001
  278loPI   GL1 4437   8.514   2.397   9.676  0.1711  0.4073 -0.2436
  278loPI   GL2 4438   8.685   2.680   9.615  0.2271 -0.3192 -0.2913
  278loPI   C1A 4439   8.769   2.182   9.349  0.2169 -0.4019 -0.0617
  278loPI   C2A 4440   8.904   2.248   8.982 -0.0420 -0.2778 -0.0194
  278loPI   C3A 4441   9.192   2.507   8.637 -0.0440  0.0259 -0.1695
  278loPI   C4A 4442   9.273   2.474   8.224 -0.0903  0.2781 -0.2195
  278loPI   C5A 4443   9.539   2.568   7.895  0.0335 -0.1676 -0.0488
  278loPI   C6A 4444   9.689   2.991   7.822 -0.2614  0.1411  0.3340
  278loPI   C1B 4445   8.953   2.723   9.322 -0.1557  0.0170  0.3972
  278loPI   C2B 4446   9.117   2.734   9.040 -0.1835  0.1110  0.2752
  278loPI   C3B 4447   9.437   2.884   8.850  0.3934  0.1378 -0.2638
  278loPI   C4B 4448   9.750   2.941   8.690  0.3999 -0.1923 -0.2267
  279loPI    C1 4449   7.456   7.482  10.134  0.3141 -0.0550  0.1355
  279loPI    C2 4450   7.468   7.877  10.194 -0.2262  0.0179 -0.1668
  279loPI    C3 4451   7.327   7.636  10.480  0.0161  0.0494 -0.0179
  279loPI   PO4 4452   7.336   7.401   9.884 -0.2797 -0.1331  0.1163
  279loPI   GL1 4453   7.569   7.283   9.620  0.0365 -0.1312 -0.2810
  279loPI   GL2 4454   7.619   7.691   9.535 -0.0256  0.1477 -0.7889
  279loPI   C1A 4455   7.755   7.211   9.236  0.0082  0.6738  0.1298
  279loPI   C2A 4456   7.744   7.195   8.852  0.2530 -0.0854 -0.0642
  279loPI   C3A 4457   7.698   7.200   8.395 -0.0431 -0.0455  0.1036
  279loPI   C4A 4458   7.963   7.373   8.013 -0.0999  0.0670 -0.0593
  279loPI   C5A 4459   8.048   7.743   7.791 -0.0580 -0.0405  0.1957
  279loPI   C6A 4460   8.130   8.133   7.857  0.2689 -0.0563 -0.1149
  279loPI   C1B 4461   7.478   7.561   9.103 -0.0603 -0.0099  0.2148
  279loPI   C2B 4462   7.367   7.575   8.590  0.1948 -0.2210  0.1380
  279loPI   C3B 4463   7.302   7.573   8.181 -0.0797  0.0841  0.0037
  279loPI   C4B 4464   6.880   7.372   7.928 -0.1492 -0.0175  0.1067
  280loPI    C1 4465  16.446   2.083   9.858 -0.1924  0.0024  0.0560
  280loPI    C2 4466  16.450   1.971  10.242  0.0585 -0.0377  0.0436
  280loPI    C3 4467  16.482   2.358  10.146 -0.2252 -0.0063  0.0685
  280loPI   PO4 4468  16.222   1.948   9.791 -0.1689 -0.1936 -0.0454
  280loPI   GL1 4469  16.100   1.782   9.405 -0.1930  0.0079  0.0144
  280loPI   GL2 4470  15.807   1.809   9.173  0.1277  0.0694 -0.1425
  280loPI   C1A 4471  16.414   1.563   9.058 -0.0085  0.0756  0.1894
  280loPI   C2A 4472  16.393   1.515   8.694  0.0291  0.0993  0.1238
  280loPI   C3A 4473  16.364   1.185   8.426  0.4995 -0.0706  0.2853
  280loPI   C4A 4474  16.257   1.147   8.052 -0.0139 -0.3150 -0.2805
  280loPI   C5A 4475  16.000   0.991   7.667 -0.2039 -0.1797  0.3060
  280loPI   C6A 4476  15.810   0.665   7.428 -0.0297 -0.0393 -0.1546
  280loPI   C1B 4477  15.922   1.811   8.798 -0.0335  0.0914  0.1876
  280loPI   C2B 4478  15.902   1.809   8.350  0.2052  0.0412 -0.0901
  280loPI   C3B 4479  15.940   1.529   7.945  0.2918 -0.0284  0.1229
  280loPI   C4B 4480  15.963   1.562   7.533 -0.0237  0.1972 -0.0500
  281loPI    C1 4481   7.554  12.858   9.806  0.0796  0.1999  0.0747
  281loPI    C2 4482   7.818  12.558   9.782 -0.0110  0.1169  0.1047
  281loPI    C3 4483   7.812  12.795  10.105  0.1725  0.2574  0.0071
  281loPI   PO4 4484   7.321  12.701   9.685  0.0357  0.0832  0.3005
  281loPI   GL1 4485   7.073  12.526   9.384  0.0103  0.0496  0.1281
  281loPI   GL2 4486   6.942  12.797   9.275 -0.0669 -0.1757  0.0401
  281loPI   C1A 4487   7.345  12.441   9.028 -0.3066 -0.2224  0.1013
  281loPI   C2A 4488   7.352  12.738   8.544  0.0808 -0.0694  0.0007
  281loPI   C3A 4489   7.152  13.122   8.355 -0.3306  0.0848  0.0342
  281loPI   C4A 4490   6.949  13.329   7.977 -0.1126  0.0600 -0.0847
  281loPI   C5A 4491   6.892  13.528   7.583 -0.2240  0.1281  0.2056
  281loPI   C6A 4492   6.515  13.302   7.333 -0.0153  0.1559  0.1698
  281loPI   C1B 4493   6.977  12.851   8.863 -0.0881  0.2822 -0.0858
  281loPI   C2B 4494   6.775  12.787   8.543  0.0529 -0.0659  0.1625
  281loPI   C3B 4495   6.588  12.680   8.128  0.0635 -0.3910  0.2888
  281loPI   C4B 4496   6.370  12.495   7.737 -0.1557  0.0576 -0.3956
  282loPI    C1 4497  13.083  18.906  10.332  0.1505  0.0443  0.0233
  282loPI    C2 4498  12.892  18.570  10.230  0.1086  0.0722  0.0092
  282loPI    C3 4499  13.098  18.586  10.572 -0.0787  0.1054  0.1220
  282loPI   PO4 4500  13.175  18.934  10.060 -0.3615  0.2779  0.0388
  282loPI   GL1 4501  13.434  18.622   9.838  0.2733  0.3245  0.5096
  282loPI   GL2 4502  13.162  18.380   9.744  0.0216 -0.2336 -0.2432
  282loPI   C1A 4503  13.543  18.661   9.401  0.0052  0.4703 -0.0962
  282loPI   C2A 4504  13.674  18.805   9.006 -0.2858 -0.1718  0.0772
  282loPI   C3A 4505  13.630  18.745   8.715 -0.0475 -0.2749 -0.2032
  282loPI   C4A 4506  13.395  18.588   8.278  0.2738 -0.1230 -0.0156
  282loPI   C5A 4507  13.109  18.642   7.960 -0.0665 -0.2456  0.1311
  282loPI   C6A 4508  12.742  18.553   7.779 -0.1534 -0.0384  0.1399
  282loPI   C1B 4509  13.050  18.436   9.232  0.6038  0.0385 -0.0957
  282loPI   C2B 4510  13.123  18.602   8.771  0.2210  0.1693  0.4359
  282loPI   C3B 4511  12.804  18.581   8.386  0.1526  0.0967 -0.0321
  282loPI   C4B 4512  12.373  18.488   8.172 -0.1487  0.0165 -0.0064
  283loPI    C1 4513  11.813  18.620  10.097 -0.2556 -0.2311 -0.2121
  283loPI    C2 4514  11.954  18.325  10.327  0.0017  0.0896  0.0519
  283loPI    C3 4515  11.687  18.583  10.475 -0.0578  0.1206 -0.1072
  283loPI   PO4 4516  11.865  18.462   9.843  0.2476  0.0071 -0.2564
  283loPI   GL1 4517  11.666  18.100   9.673 -0.2048 -0.0394  0.1629
  283loPI   GL2 4518  11.874  18.225   9.409 -0.2275 -0.3683 -0.0636
  283loPI   C1A 4519  11.342  17.977   9.404  0.5143 -0.3376  0.0041
  283loPI   C2A 4520  11.239  17.944   9.000  0.1545  0.0234 -0.0255
  283loPI   C3A 4521  11.019  17.844   8.588 -0.0471 -0.2979 -0.1715
  283loPI   C4A 4522  10.897  17.499   8.223  0.2094 -0.3016 -0.2005
  283loPI   C5A 4523  10.800  17.100   8.071  0.3117  0.3517 -0.0414
  283loPI   C6A 4524  11.091  16.803   7.936 -0.1514  0.0410  0.3424
  283loPI   C1B 4525  11.803  17.978   9.049 -0.4028 -0.1182  0.1471
  283loPI   C2B 4526  11.584  17.929   8.562  0.3084 -0.0154 -0.1957
  283loPI   C3B 4527  11.399  17.621   8.332  0.0335 -0.0699  0.3365
  283loPI   C4B 4528  11.308  17.452   7.856 -0.0600 -0.1413  0.3244
  284loPI    C1 4529  15.187  16.785  10.174  0.2167 -0.0590 -0.0496
  284loPI    C2 4530  14.976  16.688  10.500  0.0093  0.1517 -0.1174
  284loPI    C3 4531  15.330  16.871  10.537  0.1739 -0.1804 -0.0036
  284loPI   PO4 4532  15.156  16.473   9.994 -0.0221  0.4057  0.0064
  284loPI   GL1 4533  15.376  16.486   9.440 -0.0839  0.3053 -0.2232
  284loPI   GL2 4534  15.689  16.394   9.476 -0.1685  0.3598 -0.3698
  284loPI   C1A 4535  15.363  16.583   9.030  0.1459  0.0508  0.0802
  284loPI   C2A 4536  15.482  16.611   8.576  0.0842 -0.1250 -0.0169
  284loPI   C3A 4537  15.592  16.708   8.121  0.4302 -0.0066 -0.2035
  284loPI   C4A 4538  15.474  16.814   7.654 -0.1899 -0.1222  0.1697
  284loPI   C5A 4539  15.281  17.175   7.521 -0.3418 -0.2851  0.1353
  284loPI   C6A 4540  15.067  17.483   7.302  0.0554  0.0995  0.0628
  284loPI   C1B 4541  15.849  16.452   9.130 -0.0116 -0.2151 -0.0374
  284loPI   C2B 4542  15.981  16.521   8.674  0.1684 -0.0830  0.2074
  284loPI   C3B 4543  16.081  16.573   8.306 -0.0408  0.4970  0.2168
  284loPI   C4B 4544  16.244  16.529   7.887  0.3403  0.2369  0.1030
  285loPI    C1 4545   5.927   7.706   9.813  0.3369 -0.0971  0.2269
  285loPI    C2 4546   5.613   7.858  10.009  0.0445 -0.2293 -0.1271
  285loPI    C3 4547   5.834   7.570  10.177  0.1997  0.1126  0.2720
  285loPI   PO4 4548   5.824   7.685   9.591  0.0419 -0.0508 -0.1525
  285loPI   GL1 4549   5.458   7.811   9.397 -0.3657 -0.1501 -0.0104
  285loPI   GL2 4550   5.151   8.040   9.342 -0.2727 -0.3273 -0.0911
  285loPI   C1A 4551   5.774   7.728   8.976 -0.0843 -0.0215 -0.3961
  285loPI   C2A 4552   5.756   7.784   8.658  0.1294 -0.3161  0.2992
  285loPI   C3A 4553   6.091   7.865   8.574 -0.0133 -0.1885  0.1925
  285loPI   C4A 4554   6.440   7.745   8.395 -0.0207 -0.2515  0.0387
  285loPI   C5A 4555   6.519   7.686   7.912 -0.0799 -0.2226  0.0791
  285loPI   C6A 4556   6.732   7.477   7.483 -0.1993  0.0848 -0.0782
  285loPI   C1B 4557   5.275   7.811   8.893 -0.1147 -0.0999  0.0660
  285loPI   C2B 4558   5.263   7.718   8.568 -0.0279 -0.1823  0.0858
  285loPI   C3B 4559   5.467   7.665   8.201 -0.1875 -0.0917  0.1268
  285loPI   C4B 4560   5.437   7.884   7.939 -0.0282 -0.1330 -0.0503
  286loPI    C1 4561  17.347  14.784   9.678 -0.0714  0.0477  0.0794
  286loPI    C2 4562  17.626  14.753   9.963  0.0690  0.2208 -0.0366
  286loPI    C3 4563  17.261  14.890  10.054  0.0280  0.0196  0.1102
  286loPI   PO4 4564  17.532  14.840   9.465  0.0504  0.0803 -0.1298
  286loPI   GL1 4565  17.754  14.535   9.137  0.1514  0.3664 -0.0377
  286loPI   GL2 4566  17.823  14.939   9.083 -0.0219 -0.0583  0.3321
  286loPI   C1A 4567  17.942  14.409   8.745  0.2058 -0.1192  0.1135
  286loPI   C2A 4568  17.967  14.342   8.338  0.3360  0.2959 -0.1397
  286loPI   C3A 4569  17.961  14.358   7.857 -0.0041  0.3330  0.1889
  286loPI   C4A 4570  17.739  14.694   7.621 -0.1564 -0.1793 -0.2735
  286loPI   C5A 4571  17.367  14.731   7.398  0.1661 -0.2117 -0.1574
  286loPI   C6A 4572  16.953  14.936   7.223  0.1120  0.0484  0.0957
  286loPI   C1B 4573  17.769  14.822   8.644 -0.3921  0.3879 -0.1197
  286loPI   C2B 4574  17.686  14.766   8.221 -0.1967 -0.0187 -0.1669
  286loPI   C3B 4575  17.350  14.561   7.934 -0.0270 -0.0284 -0.1851
  286loPI   C4B 4576  17.060  14.233   7.966 -0.1380 -0.3395  0.1759
  287loPI    C1 4577   1.082   6.322  10.012 -0.0095 -0.0100 -0.0104
  287loPI    C2 4578   0.819   6.021  10.039  0.0462 -0.0554  0.0272
  287loPI    C3 4579   1.210   5.943   9.999  0.0738  0.0111  0.1626
  287loPI   PO4 4580   1.052   6.456   9.786  0.2151  0.0150  0.0671
  287loPI   GL1 4581   1.376   6.613   9.547  0.1076 -0.1004 -0.0299
  287loPI   GL2 4582   1.679   6.713   9.705 -0.4130 -0.0179  0.0817
  287loPI   C1A 4583   1.572   6.434   9.190 -0.0388  0.0671  0.3427
  287loPI   C2A 4584   1.698   6.244   8.787 -0.1775  0.1972  0.0037
  287loPI   C3A 4585   1.697   6.300   8.418 -0.2439 -0.0749  0.1792
  287loPI   C4A 4586   1.612   6.408   8.003  0.0165  0.0932 -0.1526
  287loPI   C5A 4587   1.495   6.254   7.611 -0.1348 -0.0621  0.1736
  287loPI   C6A 4588   1.475   6.178   7.120 -0.0319  0.2299  0.4338
  287loPI   C1B 4589   1.914   6.803   9.326  0.1194  0.3963  0.0843
  287loPI   C2B 4590   1.882   6.865   8.976 -0.0410 -0.0898 -0.1171
  287loPI   C3B 4591   1.644   6.682   8.667 -0.3424 -0.2641  0.3435
  287loPI   C4B 4592   1.384   6.835   8.365 -0.0954 -0.0386  0.0330
  288loPI    C1 4593  14.769   1.772   9.750  0.1526  0.0253  0.2940
  288loPI    C2 4594  14.758   2.141   9.903 -0.1785  0.2187 -0.1724
  288loPI    C3 4595  14.896   2.083   9.532  0.1886 -0.1785  0.0185
  288loPI   PO4 4596  14.562   1.681   9.837 -0.2784 -0.0388 -0.0891
  288loPI   GL1 4597  14.230   1.532   9.521  0.1204  0.0398 -0.1494
  288loPI   GL2 4598  14.549   1.663   9.317 -0.1049  0.1313  0.0792
  288loPI   C1A 4599  14.066   1.435   9.144  0.1695  0.4531 -0.2638
  288loPI   C2A 4600  13.965   1.085   8.852  0.0117  0.0764  0.0107
  288loPI   C3A 4601  13.868   0.956   8.439  0.3768 -0.1185 -0.1486
  288loPI   C4A 4602  13.938   0.644   8.122  0.1916 -0.1140 -0.1353
  288loPI   C5A 4603  13.945   0.765   7.676 -0.2491  0.0609  0.0298
  288loPI   C6A 4604  13.618   0.706   7.415  0.1513 -0.1171 -0.1265
  288loPI   C1B 4605  14.472   1.661   8.820 -0.0642 -0.2128 -0.0691
  288loPI   C2B 4606  14.594   1.717   8.391 -0.1059 -0.0401  0.2348
  288loPI   C3B 4607  14.736   1.839   8.047 -0.0432 -0.2922 -0.2317
  288loPI   C4B 4608  14.747   2.065   7.593 -0.1385  0.0551  0.3310
  289loPI    C1 4609   0.509  10.375  10.123 -0.0336  0.1338  0.1237
  289loPI    C2 4610   0.565  10.570   9.778 -0.3048 -0.0197 -0.0105
  289loPI    C3 4611   0.535  10.774  10.121  0.0720  0.1269 -0.0601
  289loPI   PO4 4612   0.557  10.109  10.005 -0.0289 -0.4116  0.0899
  289loPI   GL1 4613   0.754   9.669   9.734  0.1774 -0.0562 -0.2049
  289loPI   GL2 4614   0.955   9.939   9.757  0.0868 -0.0734 -0.1162
  289loPI   C1A 4615   0.562   9.544   9.375  0.1198  0.2529 -0.1791
  289loPI   C2A 4616   0.556   9.758   8.944 -0.1176 -0.3799  0.2445
  289loPI   C3A 4617   0.572   9.775   8.499 -0.0294 -0.0490 -0.1309
  289loPI   C4A 4618   0.512   9.822   8.076 -0.1977  0.2248 -0.2684
  289loPI   C5A 4619   0.563   9.958   7.640  0.1399 -0.2845 -0.2444
  289loPI   C6A 4620   0.962  10.264   7.436  0.0301 -0.0971 -0.0127
  289loPI   C1B 4621   0.918   9.961   9.262  0.0625 -0.2017  0.2572
  289loPI   C2B 4622   1.031  10.029   8.858  0.1304  0.2585 -0.0524
  289loPI   C3B 4623   1.085  10.071   8.447  0.0901  0.2902  0.0591
  289loPI   C4B 4624   1.037  10.050   7.914  0.0523 -0.2419 -0.1038
  290loPI    C1 4625  14.640  16.879  10.193 -0.0695 -0.1977 -0.0820
  290loPI    C2 4626  14.288  17.068  10.209  0.0343 -0.0320  0.3858
  290loPI    C3 4627  14.327  16.704  10.370  0.0875 -0.0305  0.3763
  290loPI   PO4 4628  14.695  16.874   9.957  0.0123  0.0206  0.1134
  290loPI   GL1 4629  14.807  16.615   9.590 -0.2837 -0.3634 -0.1312
  290loPI   GL2 4630  14.906  16.319   9.493 -0.0970 -0.5720  0.1288
  290loPI   C1A 4631  14.529  16.791   9.166 -0.0297  0.2230 -0.0955
  290loPI   C2A 4632  14.603  17.090   8.775 -0.1686  0.0791 -0.1404
  290loPI   C3A 4633  14.223  17.097   8.318 -0.3553 -0.2251  0.2283
  290loPI   C4A 4634  13.967  16.751   8.199  0.0281  0.0626  0.0302
  290loPI   C5A 4635  13.627  16.587   7.927 -0.2650 -0.1580  0.0245
  290loPI   C6A 4636  13.259  16.362   8.005 -0.0850  0.1819 -0.2050
  290loPI   C1B 4637  14.805  16.351   9.096 -0.0528  0.2868 -0.1147
  290loPI   C2B 4638  14.642  16.243   8.616 -0.0537  0.0367 -0.0840
  290loPI   C3B 4639  14.650  16.274   8.143 -0.1134 -0.0069  0.0594
  290loPI   C4B 4640  14.735  15.981   7.738 -0.1468 -0.0095  0.0934
  291loPI    C1 4641   1.750   5.607  10.097 -0.0994  0.0816  0.1731
  291loPI    C2 4642   2.060   5.537  10.339  0.0839  0.2510 -0.0093
  291loPI    C3 4643   1.705   5.370  10.416  0.3327 -0.3253 -0.0557
  291loPI   PO4 4644   1.830   5.824   9.873  0.0129  0.2960 -0.0773
  291loPI   GL1 4645   2.114   5.688   9.423  0.0815 -0.0857  0.3432
  291loPI   GL2 4646   1.828   5.585   9.273  0.0713 -0.0916 -0.1258
  291loPI   C1A 4647   2.374   5.654   9.075  0.1071 -0.0123 -0.1803
  291loPI   C2A 4648   2.316   5.659   8.670 -0.1431  0.0490 -0.2310
  291loPI   C3A 4649   2.635   5.474   8.323 -0.2774  0.0836 -0.0627
  291loPI   C4A 4650   2.683   5.467   7.852 -0.3016 -0.2012  0.0326
  291loPI   C5A 4651   2.847   5.305   7.474 -0.0578 -0.0302 -0.1950
  291loPI   C6A 4652   3.204   5.558   7.299 -0.1987  0.0724 -0.0674
  291loPI   C1B 4653   1.800   5.752   8.906  0.2872 -0.0032 -0.0083
  291loPI   C2B 4654   1.687   5.804   8.579 -0.1347  0.1392 -0.0580
  291loPI   C3B 4655   1.631   5.690   8.177 -0.3589  0.0426 -0.3198
  291loPI   C4B 4656   1.659   5.790   7.723 -0.0087  0.0957  0.1007
  292loPI    C1 4657  10.662  16.667  10.362  0.0583  0.0334 -0.0711
  292loPI    C2 4658  10.956  16.925  10.279  0.1968 -0.1201 -0.0654
  292loPI    C3 4659  10.844  16.864  10.659  0.0841  0.0170 -0.0758
  292loPI   PO4 4660  10.595  16.376  10.225  0.1311  0.2732 -0.2493
  292loPI   GL1 4661  10.635  16.369   9.844  0.2453  0.1645  0.1278
  292loPI   GL2 4662  10.708  16.734   9.857 -0.2180  0.1733 -0.0189
  292loPI   C1A 4663  10.710  16.619   9.316 -0.0306 -0.0794 -0.0426
  292loPI   C2A 4664  10.767  16.602   8.873  0.2058  0.2196  0.0268
  292loPI   C3A 4665  10.720  16.717   8.392 -0.0380  0.1136 -0.0544
  292loPI   C4A 4666  10.494  16.732   8.176  0.1790  0.0827 -0.0720
  292loPI   C5A 4667  10.228  16.899   7.860 -0.1724  0.3403  0.2053
  292loPI   C6A 4668   9.797  17.005   7.853 -0.4804 -0.0061  0.0883
  292loPI   C1B 4669  11.003  16.856   9.711  0.2059  0.1988  0.1684
  292loPI   C2B 4670  11.387  16.781   9.409  0.3673 -0.1094  0.1591
  292loPI   C3B 4671  11.748  16.996   9.267  0.3160  0.0532 -0.0048
  292loPI   C4B 4672  12.066  17.113   8.945 -0.0920  0.1828 -0.2869
  293loPI    C1 4673  12.095   4.202  10.361 -0.0153 -0.0063 -0.0161
  293loPI    C2 4674  12.462   4.275  10.503  0.0669  0.0994 -0.2760
  293loPI    C3 4675  12.314   3.903  10.513  0.2150  0.0403 -0.2492
  293loPI   PO4 4676  12.017   4.322  10.150 -0.1781 -0.2916 -0.1292
  293loPI   GL1 4677  11.862   4.336   9.780 -0.0534 -0.1511  0.2574
  293loPI   GL2 4678  11.590   4.156   9.856  0.4039  0.0127  0.2085
  293loPI   C1A 4679  11.940   4.360   9.409 -0.3877 -0.1941 -0.2207
  293loPI   C2A 4680  11.974   4.217   9.064  0.0110 -0.2709  0.0753
  293loPI   C3A 4681  11.990   4.208   8.550  0.0165  0.1544  0.0502
  293loPI   C4A 4682  11.939   3.884   8.270 -0.0048 -0.1437 -0.0044
  293loPI   C5A 4683  11.902   3.988   7.880  0.0587  0.0730 -0.2266
  293loPI   C6A 4684  12.110   4.121   7.550 -0.1186  0.0373  0.2399
  293loPI   C1B 4685  11.466   4.124   9.424 -0.3138 -0.0276  0.0485
  293loPI   C2B 4686  11.524   3.902   9.114  0.3032 -0.1322 -0.1099
  293loPI   C3B 4687  11.555   3.984   8.705 -0.0196 -0.1743 -0.2094
  293loPI   C4B 4688  11.440   3.826   8.238  0.1645 -0.3348  0.2148
  294loPI    C1 4689   2.038  10.401  10.131 -0.0718  0.1211 -0.0626
  294loPI    C2 4690   1.899  10.352  10.503 -0.0256  0.0060 -0.0598
  294loPI    C3 4691   1.930  10.720  10.347 -0.1191  0.0487  0.0211
  294loPI   PO4 4692   1.936  10.188   9.994 -0.4820  0.2121 -0.0446
  294loPI   GL1 4693   1.740  10.165   9.639  0.0531 -0.0847 -0.1599
  294loPI   GL2 4694   1.363  10.277   9.757 -0.0846  0.0346 -0.2189
  294loPI   C1A 4695   1.958  10.134   9.222 -0.0732 -0.1345  0.0440
  294loPI   C2A 4696   1.884  10.082   8.856  0.2070  0.1258 -0.2162
  294loPI   C3A 4697   1.890  10.028   8.335  0.1495  0.0082  0.1552
  294loPI   C4A 4698   1.953  10.068   7.905  0.0012 -0.0421 -0.0324
  294loPI   C5A 4699   1.691  10.222   7.608  0.0076  0.0061 -0.1394
  294loPI   C6A 4700   1.825  10.608   7.443  0.1440 -0.2705  0.4740
  294loPI   C1B 4701   1.355  10.324   9.364  0.0455 -0.3884 -0.1232
  294loPI   C2B 4702   1.446  10.302   8.949  0.2127 -0.1177  0.0980
  294loPI   C3B 4703   1.489  10.263   8.570  0.0357  0.1583  0.0889
  294loPI   C4B 4704   1.449  10.204   8.134  0.0089 -0.1850  0.3764
  295loPI    C1 4705  12.203  13.718  10.139 -0.1676 -0.1810  0.0122
  295loPI    C2 4706  12.324  13.526  10.469 -0.2693 -0.4170 -0.0856
  295loPI    C3 4707  11.934  13.551  10.383 -0.2609 -0.1209 -0.0489
  295loPI   PO4 4708  12.356  13.614   9.940 -0.1487  0.1778  0.0387
  295loPI   GL1 4709  12.428  13.529   9.492  0.0339  0.1755 -0.2997
  295loPI   GL2 4710  12.258  13.234   9.595 -0.2236 -0.2396 -0.0173
  295loPI   C1A 4711  12.544  13.540   9.080 -0.0417 -0.0427  0.2151
  295loPI   C2A 4712  12.687  13.981   8.957  0.0835 -0.0314  0.2359
  295loPI   C3A 4713  12.795  14.253   8.780 -0.0030 -0.0245 -0.0364
  295loPI   C4A 4714  12.964  14.533   8.493 -0.1723  0.2167 -0.1483
  295loPI   C5A 4715  13.216  14.666   8.137 -0.2626 -0.0151  0.0871
  295loPI   C6A 4716  12.993  14.784   7.762  0.2371  0.2692 -0.0316
  295loPI   C1B 4717  12.283  13.064   9.179  0.1753  0.0635 -0.0378
  295loPI   C2B 4718  12.319  13.177   8.862 -0.1782  0.0610  0.2434
  295loPI   C3B 4719  12.252  13.279   8.424 -0.1836  0.0174  0.1796
  295loPI   C4B 4720  12.323  13.437   7.920  0.1448 -0.1403  0.0225
  296loPI    C1 4721  17.359  18.211   9.941 -0.0597 -0.0562  0.1219
  296loPI    C2 4722  16.982  18.317  10.019 -0.1136 -0.1712  0.0220
  296loPI    C3 4723  17.173  18.065  10.263 -0.2070 -0.3575 -0.0948
  296loPI   PO4 4724  17.370  18.148   9.744  0.2991 -0.2415  0.1321
  296loPI   GL1 4725  17.321  18.394   9.335  0.3628  0.0969 -0.4128
  296loPI   GL2 4726  17.447  18.054   9.269  0.1125 -0.1754  0.3077
  296loPI   C1A 4727  17.326  18.363   8.899  0.0441 -0.0300 -0.1501
  296loPI   C2A 4728  17.592  18.303   8.625  0.3585 -0.0528  0.2287
  296loPI   C3A 4729  17.683  18.329   8.214 -0.2239 -0.1117 -0.1541
  296loPI   C4A 4730  17.571  18.401   7.825 -0.3018  0.0138  0.4594
  296loPI   C5A 4731  17.728  18.780   7.634 -0.4110  0.0881 -0.2346
  296loPI   C6A 4732  18.271  18.843   7.507  0.0563  0.3648  0.2532
  296loPI   C1B 4733  17.482  17.661   8.981 -0.1405  0.0185  0.1278
  296loPI   C2B 4734  17.509  17.437   8.688  0.1865  0.3657  0.0736
  296loPI   C3B 4735  17.401  17.167   8.404 -0.0205 -0.1427 -0.3335
  296loPI   C4B 4736  17.379  17.330   7.971 -0.1059  0.1097  0.3427
  297loPI    C1 4737   5.850  10.191  10.098 -0.1020  0.0602  0.0687
  297loPI    C2 4738   5.972  10.460  10.367 -0.1620  0.1388  0.0179
  297loPI    C3 4739   5.758  10.143  10.484 -0.1900  0.1739  0.0623
  297loPI   PO4 4740   6.052  10.300   9.874 -0.1629  0.0011  0.0793
  297loPI   GL1 4741   6.093  10.209   9.466  0.3268  0.2137  0.0858
  297loPI   GL2 4742   6.227   9.903   9.228 -0.2146  0.0520  0.2741
  297loPI   C1A 4743   5.712  10.214   9.119 -0.3552 -0.0563 -0.3323
  297loPI   C2A 4744   5.450  10.303   8.785 -0.1422 -0.0773 -0.3397
  297loPI   C3A 4745   5.226  10.437   8.459  0.1157  0.0859  0.2394
  297loPI   C4A 4746   5.034  10.273   8.100 -0.0733  0.1915 -0.0671
  297loPI   C5A 4747   4.694  10.022   7.935 -0.1154  0.1780 -0.0197
  297loPI   C6A 4748   4.632  10.012   7.526 -0.1329  0.0737 -0.2545
  297loPI   C1B 4749   6.064  10.042   8.806  0.0588  0.2021  0.1362
  297loPI   C2B 4750   5.868  10.292   8.488 -0.2800 -0.0683 -0.3190
  297loPI   C3B 4751   5.659  10.538   8.243 -0.0553 -0.1053  0.2095
  297loPI   C4B 4752   5.436  10.879   8.062  0.1169 -0.0856  0.0858
  298loPI    C1 4753   3.220  13.010  10.656 -0.1617 -0.0738 -0.1966
  298loPI    C2 4754   2.853  13.111  10.779 -0.1252 -0.1180 -0.0493
  298loPI    C3 4755   3.170  13.322  10.901 -0.0987 -0.0954 -0.1562
  298loPI   PO4 4756   3.116  12.941  10.383 -0.2622 -0.1216 -0.1410
  298loPI   GL1 4757   3.018  12.827   9.991  0.4057 -0.3524 -0.2278
  298loPI   GL2 4758   2.712  12.964   9.847  0.1524  0.0702  0.1750
  298loPI   C1A 4759   3.168  12.831   9.592 -0.3251  0.0436 -0.0913
  298loPI   C2A 4760   3.063  12.916   9.123  0.0720 -0.0996 -0.0459
  298loPI   C3A 4761   2.991  12.968   8.720  0.1188  0.0827 -0.1016
  298loPI   C4A 4762   2.976  13.003   8.260 -0.0551 -0.3064 -0.0588
  298loPI   C5A 4763   2.953  13.058   7.788  0.1591 -0.0315 -0.0270
  298loPI   C6A 4764   2.878  13.217   7.365  0.1364 -0.2420 -0.3225
  298loPI   C1B 4765   2.687  12.737   9.391  0.1180 -0.4715  0.0956
  298loPI   C2B 4766   2.586  12.631   8.970  0.0252  0.4256 -0.0335
  298loPI   C3B 4767   2.627  12.717   8.467  0.0069  0.1255 -0.1773
  298loPI   C4B 4768   2.540  12.747   8.064  0.2577 -0.0434 -0.0681
  299loPI    C1 4769   9.520  17.185  10.655 -0.2217 -0.0458 -0.2074
  299loPI    C2 4770   9.181  17.332  10.808  0.0684  0.1661  0.2557
  299loPI    C3 4771   9.201  16.948  10.698 -0.4234  0.2365 -0.1156
  299loPI   PO4 4772   9.599  17.403  10.418  0.0822  0.2010  0.0210
  299loPI   GL1 4773   9.580  17.352   9.996  0.1718 -0.0077 -0.1591
  299loPI   GL2 4774   9.284  17.324   9.770  0.1971  0.0461 -0.1511
  299loPI   C1A 4775   9.867  17.062   9.815 -0.1947  0.1598 -0.4050
  299loPI   C2A 4776   9.930  16.791   9.463  0.0183 -0.1725  0.2898
  299loPI   C3A 4777   9.794  16.713   8.966 -0.0825  0.2572 -0.1463
  299loPI   C4A 4778   9.885  16.474   8.566 -0.0769 -0.1709  0.2542
  299loPI   C5A 4779   9.920  16.550   8.111 -0.2172  0.3217  0.0030
  299loPI   C6A 4780   9.742  16.185   7.754  0.1766 -0.2191  0.0848
  299loPI   C1B 4781   9.493  17.227   9.398  0.1453 -0.1283 -0.2634
  299loPI   C2B 4782   9.373  17.310   8.998  0.1105  0.0948 -0.1259
  299loPI   C3B 4783   9.574  17.482   8.591  0.0533 -0.0279 -0.2408
  299loPI   C4B 4784   9.408  17.726   8.271 -0.0448  0.1942  0.2267
  300loPI    C1 4785  14.729  18.524  10.573 -0.0827  0.1005  0.1200
  300loPI    C2 4786  14.468  18.575  10.872 -0.1049 -0.0324  0.1234
  300loPI    C3 4787  14.845  18.467  10.951 -0.0346  0.2058  0.1216
  300loPI   PO4 4788  14.461  18.421  10.389 -0.0373 -0.0184 -0.1578
  300loPI   GL1 4789  14.380  18.480   9.977 -0.0894 -0.1881  0.0083
  300loPI   GL2 4790  14.484  18.205   9.796  0.1520 -0.0925 -0.1178
  300loPI   C1A 4791  14.357  18.606   9.457  0.0799  0.1042 -0.0867
  300loPI   C2A 4792  14.505  18.503   9.034 -0.1425 -0.0188  0.2009
  300loPI   C3A 4793  14.473  18.347   8.532 -0.2304  0.3458 -0.1438
  300loPI   C4A 4794  14.388  18.022   8.217 -0.0485  0.1784 -0.3237
  300loPI   C5A 4795  14.586  17.655   7.972 -0.1717 -0.2447  0.2584
  300loPI   C6A 4796  15.000  17.423   7.812  0.1220 -0.1573  0.0630
  300loPI   C1B 4797  14.357  18.113   9.428 -0.2204 -0.0568 -0.1678
  300loPI   C2B 4798  14.216  17.986   8.981 -0.0328 -0.0036  0.4251
  300loPI   C3B 4799  14.099  17.965   8.647  0.0488 -0.3294  0.2709
  300loPI   C4B 4800  13.849  17.962   8.338 -0.1834  0.0796  0.1521
  301loPI    C1 4801  10.924  13.688  10.453 -0.0090 -0.1364  0.1203
  301loPI    C2 4802  10.816  14.068  10.515  0.0841 -0.0924  0.0161
  301loPI    C3 4803  11.177  13.942  10.630  0.0795 -0.1314 -0.0123
  301loPI   PO4 4804  10.811  13.631  10.236  0.1768 -0.0112  0.4745
  301loPI   GL1 4805  10.652  13.715   9.788  0.1381 -0.2510  0.0382
  301loPI   GL2 4806  10.979  13.814   9.707  0.0271  0.1948 -0.1300
  301loPI   C1A 4807  10.501  13.706   9.367 -0.0085  0.1607  0.0451
  301loPI   C2A 4808  10.602  13.797   8.961 -0.0918  0.3470  0.0730
  301loPI   C3A 4809  10.631  13.777   8.528  0.1019  0.0158 -0.1390
  301loPI   C4A 4810  10.770  13.897   8.083  0.1532 -0.0727  0.0211
  301loPI   C5A 4811  11.026  14.009   7.795  0.1338 -0.0170 -0.0237
  301loPI   C6A 4812  11.159  13.675   7.553  0.1840 -0.1827  0.0429
  301loPI   C1B 4813  11.010  14.054   9.271  0.1490 -0.2798  0.1670
  301loPI   C2B 4814  11.050  14.035   8.796 -0.0647  0.1527  0.3606
  301loPI   C3B 4815  11.170  13.915   8.459 -0.1150 -0.1191 -0.1873
  301loPI   C4B 4816  11.322  13.694   8.107 -0.0919 -0.0444  0.1036
  302loPI    C1 4817  15.276  15.998  10.126 -0.1226  0.0216 -0.3111
  302loPI    C2 4818  14.968  16.048  10.376  0.2343  0.2245  0.1025
  302loPI    C3 4819  15.209  15.731  10.415  0.1121  0.0911 -0.1898
  302loPI   PO4 4820  15.198  15.999   9.879  0.0507  0.1372  0.0252
  302loPI   GL1 4821  15.466  15.930   9.604 -0.1394 -0.3714  0.2176
  302loPI   GL2 4822  15.295  15.616   9.589  0.2375  0.0152  0.1323
  302loPI   C1A 4823  15.343  16.081   9.134 -0.0734  0.1845 -0.2151
  302loPI   C2A 4824  15.173  16.205   8.711  0.0480  0.1655  0.1906
  302loPI   C3A 4825  15.204  16.328   8.229 -0.2337 -0.2539 -0.1138
  302loPI   C4A 4826  15.055  16.419   7.801 -0.0587 -0.0902  0.1115
  302loPI   C5A 4827  14.754  16.586   7.513  0.1697 -0.0136 -0.1069
  302loPI   C6A 4828  14.345  16.499   7.598  0.2265 -0.0115 -0.0611
  302loPI   C1B 4829  15.497  15.619   9.243 -0.1863 -0.1147  0.2254
  302loPI   C2B 4830  15.739  15.626   9.025 -0.1343 -0.2208  0.0028
  302loPI   C3B 4831  16.039  15.684   8.657 -0.0644  0.2120 -0.0893
  302loPI   C4B 4832  16.328  15.407   8.446  0.1102 -0.1815 -0.2363
  303loPI    C1 4833  17.118   6.292  10.091  0.1377  0.2188  0.3187
  303loPI    C2 4834  17.181   5.941  10.273  0.0871  0.0989  0.1086
  303loPI    C3 4835  17.321   6.279  10.435 -0.1379  0.0205  0.4784
  303loPI   PO4 4836  17.102   6.212   9.802  0.1951 -0.2916  0.0131
  303loPI   GL1 4837  17.427   6.241   9.460 -0.1250 -0.0606  0.0043
  303loPI   GL2 4838  17.355   5.962   9.398  0.0243 -0.1613 -0.3766
  303loPI   C1A 4839  17.362   6.508   9.170 -0.0384 -0.1637  0.2215
  303loPI   C2A 4840  17.329   6.881   8.915 -0.1499 -0.3108  0.0166
  303loPI   C3A 4841  17.345   7.208   8.572  0.2288 -0.1841  0.1803
  303loPI   C4A 4842  17.262   7.251   8.130  0.0728  0.0711  0.1242
  303loPI   C5A 4843  17.323   7.138   7.665  0.0610 -0.1466  0.2410
  303loPI   C6A 4844  17.536   6.996   7.282  0.0100 -0.0776 -0.2994
  303loPI   C1B 4845  17.114   5.720   9.076 -0.2309  0.1131 -0.1960
  303loPI   C2B 4846  16.751   5.578   8.863  0.0802  0.2508  0.0774
  303loPI   C3B 4847  16.482   5.651   8.615  0.0617  0.0410  0.0206
  303loPI   C4B 4848  16.520   5.584   8.080  0.0211  0.4110  0.3288
  304loPI    C1 4849  17.215   2.788   9.807  0.2240  0.2474  0.0432
  304loPI    C2 4850  16.879   2.882   9.612  0.2768  0.2779 -0.0335
  304loPI    C3 4851  17.025   3.131   9.889  0.1093  0.1548  0.1682
  304loPI   PO4 4852  17.270   2.489   9.705 -0.0813  0.1634  0.1448
  304loPI   GL1 4853  17.067   2.481   9.286  0.2026 -0.3396 -0.3138
  304loPI   GL2 4854  17.101   2.160   9.431  0.4841 -0.0022  0.2518
  304loPI   C1A 4855  17.295   2.258   8.992  0.3139 -0.2503 -0.0790
  304loPI   C2A 4856  17.292   1.944   8.590  0.2527  0.3056  0.0513
  304loPI   C3A 4857  17.372   1.849   8.115  0.0693 -0.0274 -0.0004
  304loPI   C4A 4858  17.631   1.897   7.815  0.0802 -0.1272  0.1891
  304loPI   C5A 4859  17.515   2.052   7.454 -0.2900  0.1520 -0.2443
  304loPI   C6A 4860  17.440   2.035   7.048 -0.1794 -0.0866 -0.0542
  304loPI   C1B 4861  17.199   1.772   9.307 -0.0748 -0.1781  0.3286
  304loPI   C2B 4862  17.375   1.595   8.975  0.0026 -0.3214  0.2417
  304loPI   C3B 4863  17.328   1.441   8.509  0.0591 -0.1019  0.0971
  304loPI   C4B 4864  17.712   1.431   8.192  0.5929 -0.0358  0.1952
  305loPI    C1 4865   5.684  14.790  10.137 -0.1795 -0.1679 -0.0133
  305loPI    C2 4866   5.712  14.775  10.536 -0.1097 -0.0029 -0.0113
  305loPI    C3 4867   5.748  15.125  10.346  0.1239 -0.1175 -0.1825
  305loPI   PO4 4868   5.506  14.598  10.087  0.1061  0.0306  0.0004
  305loPI   GL1 4869   5.340  14.670   9.743  0.3139  0.1273 -0.0837
  305loPI   GL2 4870   5.097  14.403   9.666  0.0335  0.0324 -0.2033
  305loPI   C1A 4871   5.542  14.763   9.426 -0.3908  0.0836  0.1577
  305loPI   C2A 4872   5.654  14.761   9.080 -0.2804  0.1491 -0.0986
  305loPI   C3A 4873   5.644  14.764   8.671  0.0960  0.0763  0.1216
  305loPI   C4A 4874   5.621  14.769   8.214  0.0437  0.2718 -0.0016
  305loPI   C5A 4875   5.778  14.856   7.655  0.3414  0.0632 -0.2098
  305loPI   C6A 4876   6.185  14.992   7.668  0.0772 -0.0439 -0.0640
  305loPI   C1B 4877   5.141  14.593   9.230  0.0121 -0.2165 -0.1833
  305loPI   C2B 4878   5.192  14.523   8.797  0.0680  0.2036 -0.1231
  305loPI   C3B 4879   5.101  14.412   8.368  0.2699 -0.2766 -0.0732
  305loPI   C4B 4880   5.077  14.306   8.009  0.0219 -0.1459  0.2253
  306loPI    C1 4881   3.851   2.490   9.910 -0.0694  0.0811  0.0364
  306loPI    C2 4882   3.928   2.821  10.121  0.2097 -0.0267  0.1082
  306loPI    C3 4883   3.994   2.460  10.282  0.2400 -0.1127 -0.0934
  306loPI   PO4 4884   3.908   2.608   9.637 -0.0667  0.2069 -0.5517
  306loPI   GL1 4885   3.868   2.386   9.212  0.1704 -0.1514 -0.0453
  306loPI   GL2 4886   3.614   2.234   9.166 -0.2302 -0.2585 -0.0011
  306loPI   C1A 4887   3.863   2.746   8.961 -0.0968  0.0507  0.0723
  306loPI   C2A 4888   4.049   2.625   8.573 -0.1022  0.3875  0.3255
  306loPI   C3A 4889   3.718   2.821   8.291  0.0737  0.2111 -0.0836
  306loPI   C4A 4890   3.800   2.929   7.796 -0.0763 -0.1806  0.2659
  306loPI   C5A 4891   3.877   2.866   7.364  0.3150  0.5402  0.1335
  306loPI   C6A 4892   3.653   2.578   7.144  0.1672 -0.0690  0.0763
  306loPI   C1B 4893   3.594   2.308   8.655 -0.3299 -0.0444  0.0909
  306loPI   C2B 4894   3.840   2.240   8.199  0.1234  0.4319  0.0914
  306loPI   C3B 4895   4.146   2.478   8.061 -0.1281  0.1203  0.1720
  306loPI   C4B 4896   4.327   2.856   8.196  0.4460 -0.0128 -0.3632
  307loPI    C1 4897   4.947   4.732   9.827 -0.0305  0.0614  0.0902
  307loPI    C2 4898   4.999   4.450  10.105 -0.2028  0.0921  0.1548
  307loPI    C3 4899   5.182   4.803  10.143  0.0310 -0.0165  0.0626
  307loPI   PO4 4900   5.083   4.635   9.566 -0.0316  0.3420 -0.3519
  307loPI   GL1 4901   5.239   4.598   9.182 -0.0421  0.1312 -0.0660
  307loPI   GL2 4902   5.044   4.281   9.209 -0.0236 -0.2190 -0.1047
  307loPI   C1A 4903   5.247   4.385   8.780 -0.0245  0.0318  0.0428
  307loPI   C2A 4904   5.493   4.289   8.406 -0.0452  0.0312  0.2271
  307loPI   C3A 4905   5.847   4.104   8.276 -0.0698 -0.0938 -0.0531
  307loPI   C4A 4906   6.050   3.903   7.884 -0.1638  0.1065  0.2628
  307loPI   C5A 4907   6.105   4.064   7.503  0.0553  0.1226  0.2543
  307loPI   C6A 4908   6.368   4.280   7.209  0.0934 -0.1626  0.3596
  307loPI   C1B 4909   4.806   4.263   8.908  0.6233  0.0095 -0.0932
  307loPI   C2B 4910   4.604   4.267   8.517 -0.1579 -0.2031  0.1204
  307loPI   C3B 4911   4.988   4.280   8.216  0.1189  0.0167  0.0547
  307loPI   C4B 4912   5.269   4.552   7.921 -0.0544  0.4547  0.0492
  308loPI    C1 4913   2.663  13.747  10.385 -0.0462  0.0743  0.1288
  308loPI    C2 4914   2.590  13.997  10.688  0.2613  0.0405  0.2335
  308loPI    C3 4915   2.717  13.625  10.761  0.3235  0.0276  0.0640
  308loPI   PO4 4916   2.462  13.773  10.193 -0.1260  0.1087  0.1672
  308loPI   GL1 4917   2.425  13.866   9.860  0.2494  0.1066  0.2230
  308loPI   GL2 4918   2.336  14.192   9.854  0.2250  0.1351 -0.1111
  308loPI   C1A 4919   2.643  13.694   9.470 -0.0933 -0.0919 -0.0559
  308loPI   C2A 4920   2.493  13.316   9.410  0.2357  0.3334 -0.0472
  308loPI   C3A 4921   2.607  13.144   9.013  0.5256 -0.1303 -0.1320
  308loPI   C4A 4922   2.542  13.228   8.575  0.1685  0.1721  0.1177
  308loPI   C5A 4923   2.548  13.218   8.151  0.0695  0.0306  0.0226
  308loPI   C6A 4924   2.370  13.219   7.780  0.1407  0.1943  0.3921
  308loPI   C1B 4925   2.468  14.230   9.461 -0.2517  0.1338 -0.2062
  308loPI   C2B 4926   2.479  14.114   9.121  0.0652  0.0044  0.0507
  308loPI   C3B 4927   2.535  14.192   8.763 -0.1616 -0.0593  0.4122
  308loPI   C4B 4928   2.408  14.265   8.341 -0.2135  0.3547  0.0574
  309loPI    C1 4929   9.492   0.588  10.231  0.0336  0.0150  0.0210
  309loPI    C2 4930   9.443   0.877  10.503 -0.0021 -0.0734  0.1089
  309loPI    C3 4931   9.718   0.593  10.561 -0.0300 -0.1090  0.0666
  309loPI   PO4 4932   9.352   0.602  10.039  0.0121  0.3330  0.0013
  309loPI   GL1 4933   9.263   0.700   9.668 -0.0863  0.0238  0.1051
  309loPI   GL2 4934   9.141   0.965   9.400  0.3600 -0.1700 -0.3205
  309loPI   C1A 4935   9.261   0.492   9.270  0.1570 -0.2497 -0.2461
  309loPI   C2A 4936   9.225   0.451   8.828 -0.1293 -0.2660 -0.3131
  309loPI   C3A 4937   9.523   0.444   8.402 -0.2909  0.0707 -0.0691
  309loPI   C4A 4938   9.592   0.732   8.013  0.2951  0.1930  0.0833
  309loPI   C5A 4939   9.688   0.547   7.622  0.1025 -0.0107 -0.0730
  309loPI   C6A 4940   9.371   0.469   7.259  0.1660 -0.0160 -0.0139
  309loPI   C1B 4941   8.986   0.953   9.032  0.0629  0.3142 -0.0792
  309loPI   C2B 4942   9.116   0.929   8.676  0.0115 -0.0859  0.1990
  309loPI   C3B 4943   9.069   0.677   8.261 -0.2378 -0.1232  0.3029
  309loPI   C4B 4944   8.913   0.623   7.749 -0.0592 -0.0017 -0.3232
  310loPI    C1 4945  17.475   1.162  10.136 -0.3928  0.0996  0.0998
  310loPI    C2 4946  17.647   1.366  10.434 -0.1312 -0.1222  0.1038
  310loPI    C3 4947  17.577   0.974  10.474 -0.2401 -0.1210 -0.0661
  310loPI   PO4 4948  17.583   1.298   9.895 -0.1409 -0.1914  0.1935
  310loPI   GL1 4949  17.574   1.231   9.426  0.1969  0.0624 -0.0501
  310loPI   GL2 4950  17.375   1.054   9.239  0.0839 -0.0946  0.1480
  310loPI   C1A 4951  17.800   1.227   9.046  0.1258 -0.0475 -0.2942
  310loPI   C2A 4952  17.814   1.044   8.657 -0.1267  0.0216  0.1020
  310loPI   C3A 4953  18.117   1.033   8.304 -0.1955  0.1257 -0.0356
  310loPI   C4A 4954  18.470   1.158   8.098 -0.1937 -0.1069 -0.1473
  310loPI   C5A 4955  18.316   1.195   7.632 -0.0696 -0.1984 -0.2371
  310loPI   C6A 4956  18.145   1.546   7.396 -0.1111 -0.1221  0.2111
  310loPI   C1B 4957  17.359   0.981   8.777 -0.2072 -0.0709 -0.1364
  310loPI   C2B 4958  17.401   0.833   8.378 -0.1374  0.0173 -0.0948
  310loPI   C3B 4959  17.421   0.411   8.224 -0.0671  0.3490  0.2997
  310loPI   C4B 4960  17.474   0.362   7.814 -0.2688  0.2017  0.0121
  311loPI    C1 4961   2.375  12.759  10.777 -0.1597  0.3524  0.1554
  311loPI    C2 4962   2.360  12.456  11.038 -0.0493  0.1732 -0.0428
  311loPI    C3 4963   2.441  12.826  11.166 -0.0913  0.1039  0.1889
  311loPI   PO4 4964   2.206  12.696  10.503  0.1616  0.4097 -0.2215
  311loPI   GL1 4965   2.202  12.501  10.009  0.1224 -0.1691 -0.2446
  311loPI   GL2 4966   2.017  12.366   9.794 -0.1130  0.3080  0.0318
  311loPI   C1A 4967   2.273  12.785   9.656 -0.0644 -0.2101  0.0604
  311loPI   C2A 4968   2.095  12.824   9.236 -0.1033  0.0636  0.3190
  311loPI   C3A 4969   2.157  12.789   8.773  0.1042  0.1565  0.1902
  311loPI   C4A 4970   2.082  12.906   8.462  0.1158 -0.2227 -0.0591
  311loPI   C5A 4971   2.040  12.870   7.987 -0.3468 -0.2239  0.0559
  311loPI   C6A 4972   1.920  12.917   7.644  0.1062 -0.0014  0.1363
  311loPI   C1B 4973   2.100  12.336   9.361 -0.2335  0.0105  0.0808
  311loPI   C2B 4974   2.193  12.338   9.005  0.0118 -0.0565 -0.1265
  311loPI   C3B 4975   2.150  12.303   8.601  0.2425 -0.3935  0.0376
  311loPI   C4B 4976   2.092  12.475   8.258  0.3211  0.1367  0.0823
  312loPI    C1 4977   1.356  11.094  10.369 -0.0293 -0.0127  0.0888
  312loPI    C2 4978   1.188  10.971  10.711 -0.0660 -0.0503  0.0574
  312loPI    C3 4979   1.583  10.935  10.657 -0.0260  0.1721  0.1897
  312loPI   PO4 4980   1.238  11.072  10.146  0.1694 -0.1440  0.2897
  312loPI   GL1 4981   1.447  11.256   9.774  0.0103 -0.1514  0.0482
  312loPI   GL2 4982   1.199  11.249   9.523  0.0861 -0.3357 -0.0167
  312loPI   C1A 4983   1.674  11.043   9.457  0.0367  0.1819 -0.1060
  312loPI   C2A 4984   1.809  11.127   9.104 -0.0179  0.5362 -0.1685
  312loPI   C3A 4985   1.895  11.078   8.746  0.0074  0.0681  0.0372
  312loPI   C4A 4986   1.816  11.076   8.348  0.0451  0.1116 -0.2975
  312loPI   C5A 4987   1.954  11.050   7.922  0.2003  0.2313 -0.0735
  312loPI   C6A 4988   2.365  11.108   7.768  0.2656  0.0659  0.0927
  312loPI   C1B 4989   1.331  11.307   9.018 -0.2158  0.0486  0.1753
  312loPI   C2B 4990   1.409  11.207   8.636  0.1054 -0.0081 -0.1572
  312loPI   C3B 4991   1.374  11.222   8.143 -0.1374  0.0604  0.2123
  312loPI   C4B 4992   1.565  11.356   7.839 -0.0890 -0.1860  0.1962
  313loPI    C1 4993  12.046   6.395  10.202  0.1011  0.0554 -0.2056
  313loPI    C2 4994  11.739   6.348  10.454  0.1279 -0.0034 -0.1838
  313loPI    C3 4995  12.103   6.433  10.596  0.1697 -0.1643 -0.1931
  313loPI   PO4 4996  11.982   6.248  10.050  0.2791 -0.0879 -0.2992
  313loPI   GL1 4997  12.104   6.179   9.695 -0.3097 -0.1639  0.2111
  313loPI   GL2 4998  11.697   6.446   9.640  0.4501  0.0846  0.0336
  313loPI   C1A 4999  12.116   6.204   9.251  0.0054  0.0411 -0.3102
  313loPI   C2A 5000  12.019   6.137   8.753 -0.1121  0.4471 -0.2463
  313loPI   C3A 5001  11.996   6.211   8.289  0.2138 -0.1631  0.0035
  313loPI   C4A 5002  11.906   6.260   7.828  0.1518  0.0404 -0.0535
  313loPI   C5A 5003  12.203   6.387   7.569 -0.3090 -0.0407 -0.0553
  313loPI   C6A 5004  12.461   6.763   7.571 -0.0397 -0.1640  0.3526
  313loPI   C1B 5005  11.654   6.536   9.251  0.4281  0.1431  0.1153
  313loPI   C2B 5006  11.684   6.540   8.820 -0.1522 -0.0579  0.1215
  313loPI   C3B 5007  11.789   6.601   8.435  0.0229 -0.0630 -0.1076
  313loPI   C4B 5008  12.079   6.666   8.056 -0.0744  0.2155 -0.1049
  314loPI    C1 5009   9.422  15.429  10.132  0.1172  0.0109 -0.1066
  314loPI    C2 5010   9.624  15.214  10.402  0.1038  0.0202 -0.0892
  314loPI    C3 5011   9.517  15.590  10.485  0.0496  0.0040 -0.0852
  314loPI   PO4 5012   9.518  15.345   9.916  0.0301 -0.1639  0.0106
  314loPI   GL1 5013   9.541  15.027   9.592  0.1669 -0.2319  0.1103
  314loPI   GL2 5014   9.232  15.017   9.550  0.0007 -0.0115 -0.1505
  314loPI   C1A 5015   9.924  14.916   9.377  0.0460 -0.0465  0.1151
  314loPI   C2A 5016   9.977  15.013   8.895 -0.1984 -0.0043  0.0489
  314loPI   C3A 5017   9.980  15.130   8.380  0.0994  0.0795  0.2486
  314loPI   C4A 5018  10.027  15.098   7.929 -0.1560 -0.2529 -0.0125
  314loPI   C5A 5019  10.124  15.201   7.570  0.0975  0.1699 -0.2296
  314loPI   C6A 5020  10.168  15.296   7.104  0.0044 -0.1710 -0.1225
  314loPI   C1B 5021   9.391  15.428   9.213  0.0264 -0.0776 -0.3690
  314loPI   C2B 5022   9.441  15.615   8.828 -0.1518 -0.0554 -0.1928
  314loPI   C3B 5023   9.430  15.825   8.441 -0.3064  0.1140 -0.1898
  314loPI   C4B 5024   9.435  15.874   8.034 -0.1853  0.0528 -0.0448
  315loPI    C1 5025  18.648   5.294   9.994 -0.0333  0.0997  0.0640
  315loPI    C2 5026  18.322   5.469  10.145 -0.3136 -0.1703 -0.2125
  315loPI    C3 5027  18.426   5.102  10.266 -0.0105 -0.0183  0.0004
  315loPI   PO4 5028  18.647   5.257   9.779  0.3312 -0.0469 -0.1495
  315loPI   GL1 5029  18.788   5.263   9.336  0.0554 -0.0024  0.0122
  315loPI   GL2 5030  18.602   5.109   9.139  0.0718 -0.1058  0.1202
  315loPI   C1A 5031  18.751   5.620   9.060  0.0698  0.0599 -0.2171
  315loPI   C2A 5032  18.524   5.845   8.709 -0.2459 -0.2823  0.1816
  315loPI   C3A 5033  18.810   6.070   8.477 -0.0430 -0.0567 -0.1084
  315loPI   C4A 5034  18.852   6.156   8.138  0.1668  0.1223  0.1562
  315loPI   C5A 5035  18.611   6.450   7.966  0.2433 -0.0278 -0.3085
  315loPI   C6A 5036  18.320   6.598   7.717  0.0304  0.2250  0.1137
  315loPI   C1B 5037  18.699   5.300   8.695 -0.1179 -0.5070 -0.0143
  315loPI   C2B 5038  18.459   5.202   8.260  0.0195  0.2457 -0.1850
  315loPI   C3B 5039  18.250   4.986   7.873 -0.0889 -0.1914 -0.1458
  315loPI   C4B 5040  18.449   4.853   7.451 -0.0416  0.0417  0.3538
  316loPI    C1 5041   4.162   6.155   9.867 -0.1785  0.2913  0.0317
  316loPI    C2 5042   4.141   6.393  10.189  0.1277  0.0247  0.2547
  316loPI    C3 5043   4.457   6.152  10.138 -0.1874 -0.3557  0.0480
  316loPI   PO4 5044   4.156   6.297   9.704  0.1449 -0.1011 -0.4273
  316loPI   GL1 5045   4.282   6.612   9.430 -0.1431 -0.1905 -0.1264
  316loPI   GL2 5046   4.058   6.543   9.273  0.2726  0.0592  0.0897
  316loPI   C1A 5047   4.289   6.957   9.164  0.0469 -0.0475  0.1220
  316loPI   C2A 5048   4.428   6.909   8.783  0.2838  0.1671  0.0740
  316loPI   C3A 5049   4.491   6.869   8.295 -0.0337 -0.2193 -0.0519
  316loPI   C4A 5050   4.525   6.831   7.828  0.0011  0.2357  0.0240
  316loPI   C5A 5051   4.623   6.607   7.403 -0.1545  0.2287  0.1235
  316loPI   C6A 5052   4.867   6.422   6.989 -0.1372 -0.3830 -0.0557
  316loPI   C1B 5053   4.189   6.273   8.945  0.2269  0.1058 -0.0592
  316loPI   C2B 5054   4.349   6.041   8.612 -0.0568  0.2212 -0.2952
  316loPI   C3B 5055   4.362   5.971   8.217  0.2571 -0.2406  0.1590
  316loPI   C4B 5056   4.060   5.639   8.125  0.0840  0.1987 -0.1264
  317loPI    C1 5057  15.308  12.345  10.145 -0.0756  0.3250 -0.2124
  317loPI    C2 5058  15.521  12.189  10.445 -0.3151  0.0658 -0.1722
  317loPI    C3 5059  15.347  12.547  10.488 -0.2282  0.0946 -0.0565
  317loPI   PO4 5060  15.330  12.209   9.966 -0.0996 -0.0122  0.1739
  317loPI   GL1 5061  15.350  12.107   9.483  0.1036  0.0882 -0.1540
  317loPI   GL2 5062  15.272  12.235   9.178  0.1662  0.3427 -0.1158
  317loPI   C1A 5063  15.191  11.744   9.307  0.0871 -0.1382 -0.1171
  317loPI   C2A 5064  15.319  11.709   8.936  0.0149 -0.0734 -0.2042
  317loPI   C3A 5065  15.157  11.643   8.597 -0.0322  0.2029  0.1810
  317loPI   C4A 5066  14.893  11.803   8.290 -0.0457 -0.3078  0.0533
  317loPI   C5A 5067  14.740  12.158   8.097  0.2509  0.2090 -0.1138
  317loPI   C6A 5068  14.715  12.341   7.645 -0.1407  0.1696 -0.1061
  317loPI   C1B 5069  15.417  12.355   8.771 -0.1499  0.0300  0.1101
  317loPI   C2B 5070  15.307  12.152   8.375 -0.1530 -0.1771  0.1849
  317loPI   C3B 5071  15.502  12.218   7.922  0.1243  0.2168 -0.0964
  317loPI   C4B 5072  15.431  12.570   7.658  0.2997  0.0984 -0.1838
  318loPI    C1 5073  11.050  15.933  10.644  0.1229  0.1078  0.2237
  318loPI    C2 5074  10.717  15.950  10.424  0.2318 -0.0877  0.0394
  318loPI    C3 5075  10.712  15.769  10.780  0.0630  0.2008  0.1882
  318loPI   PO4 5076  11.243  15.888  10.444  0.3869  0.0211 -0.3924
  318loPI   GL1 5077  11.263  16.029  10.089 -0.1001  0.0208  0.1508
  318loPI   GL2 5078  11.162  16.200   9.949  0.2849  0.3103 -0.1647
  318loPI   C1A 5079  11.127  15.838   9.670  0.1952  0.0084  0.0561
  318loPI   C2A 5080  11.190  15.837   9.204  0.2167 -0.2206 -0.4474
  318loPI   C3A 5081  11.310  15.834   8.846  0.0724  0.0050 -0.2454
  318loPI   C4A 5082  11.235  15.810   8.365 -0.1635 -0.1675 -0.3372
  318loPI   C5A 5083  11.467  15.936   7.908 -0.0077 -0.0433 -0.1788
  318loPI   C6A 5084  11.643  16.074   7.437 -0.2118  0.1323  0.1856
  318loPI   C1B 5085  11.178  16.385   9.499  0.0245 -0.0478 -0.2763
  318loPI   C2B 5086  11.097  16.366   9.117 -0.1508 -0.0980 -0.0524
  318loPI   C3B 5087  11.260  16.600   8.722  0.0955 -0.2096  0.0937
  318loPI   C4B 5088  11.300  16.505   8.262  0.1340  0.3762 -0.3712
  319loPI    C1 5089  15.230   0.930  10.190  0.3137 -0.0683 -0.0511
  319loPI    C2 5090  15.275   1.280  10.379  0.1248 -0.0637 -0.0137
  319loPI    C3 5091  15.018   1.007  10.520 -0.1163 -0.0085 -0.3336
  319loPI   PO4 5092  15.307   1.029   9.954  0.0890 -0.1211 -0.1302
  319loPI   GL1 5093  14.977   1.119   9.596  0.0598 -0.2599 -0.0552
  319loPI   GL2 5094  14.671   1.258   9.647  0.1679 -0.0325 -0.2213
  319loPI   C1A 5095  15.147   1.117   9.182  0.2032 -0.2766  0.0651
  319loPI   C2A 5096  15.132   1.007   8.786 -0.0800  0.0136  0.0472
  319loPI   C3A 5097  14.838   0.753   8.623  0.0493 -0.1855  0.0627
  319loPI   C4A 5098  14.795   0.939   8.174 -0.0675 -0.0685  0.0607
  319loPI   C5A 5099  14.695   1.332   7.951  0.3303  0.0103 -0.0134
  319loPI   C6A 5100  14.331   1.594   7.939 -0.0852 -0.3485  0.2165
  319loPI   C1B 5101  14.682   1.241   9.093 -0.2655 -0.1128  0.2085
  319loPI   C2B 5102  14.974   1.541   8.832  0.2156  0.0864  0.0423
  319loPI   C3B 5103  15.064   1.809   8.435 -0.1633 -0.0891 -0.0282
  319loPI   C4B 5104  15.163   2.116   8.167 -0.1735 -0.1755  0.0052
  320loPI    C1 5105   8.268   1.371  10.523 -0.3755 -0.0122  0.0971
  320loPI    C2 5106   8.337   0.981  10.577  0.1364  0.0527 -0.0382
  320loPI    C3 5107   8.192   1.202  10.877 -0.2162 -0.2494  0.0204
  320loPI   PO4 5108   8.165   1.419  10.216 -0.1924  0.0285  0.0115
  320loPI   GL1 5109   7.864   1.548   9.842  0.0770 -0.0722 -0.1162
  320loPI   GL2 5110   8.146   1.364   9.703  0.0587  0.1137  0.1611
  320loPI   C1A 5111   7.845   1.750   9.321  0.0909 -0.3735  0.0652
  320loPI   C2A 5112   7.582   1.880   9.040  0.1164 -0.0268  0.0246
  320loPI   C3A 5113   7.448   1.708   8.583  0.0584 -0.3564  0.0277
  320loPI   C4A 5114   7.489   1.578   8.106  0.0493  0.0255  0.0703
  320loPI   C5A 5115   7.403   1.385   7.663 -0.3012  0.1052  0.5093
  320loPI   C6A 5116   7.296   0.949   7.343  0.0100 -0.1144  0.0350
  320loPI   C1B 5117   8.361   1.610   9.398 -0.2695  0.3034  0.1400
  320loPI   C2B 5118   8.342   1.397   8.880  0.1747  0.1631  0.0535
  320loPI   C3B 5119   8.390   1.358   8.469  0.3403 -0.0349  0.0333
  320loPI   C4B 5120   8.272   1.137   8.192  0.1255 -0.0248 -0.3420
  321loPI    C1 5121   4.357  17.054  10.684 -0.2208  0.0989 -0.1884
  321loPI    C2 5122   4.244  16.837  11.001  0.2684 -0.2731 -0.2552
  321loPI    C3 5123   4.294  17.232  11.037  0.0982 -0.2773  0.0683
  321loPI   PO4 5124   4.244  16.891  10.453  0.0534 -0.1804  0.1419
  321loPI   GL1 5125   4.298  16.843  10.060  0.0583  0.0959 -0.1031
  321loPI   GL2 5126   3.995  16.949  10.036 -0.2174 -0.1170  0.0274
  321loPI   C1A 5127   4.414  16.770   9.635 -0.0628  0.0055  0.2207
  321loPI   C2A 5128   4.485  16.682   9.164  0.1584 -0.0873  0.0692
  321loPI   C3A 5129   4.442  16.686   8.774 -0.0865 -0.2751 -0.3046
  321loPI   C4A 5130   4.530  16.689   8.361 -0.0618 -0.2203 -0.3109
  321loPI   C5A 5131   4.407  17.046   8.035 -0.0516 -0.0984 -0.1281
  321loPI   C6A 5132   4.565  17.409   7.912  0.0237  0.2890 -0.2354
  321loPI   C1B 5133   4.161  17.147   9.740  0.0445 -0.1972  0.2183
  321loPI   C2B 5134   4.448  17.231   9.271  0.2089 -0.1441  0.0205
  321loPI   C3B 5135   4.410  17.292   8.900 -0.3070 -0.0267 -0.0072
  321loPI   C4B 5136   4.444  17.232   8.514 -0.2595  0.0219 -0.2704
  322loPI    C1 5137   5.467  11.537  10.178 -0.2053 -0.1860 -0.2041
  322loPI    C2 5138   5.293  11.661  10.516 -0.0249 -0.0359 -0.1651
  322loPI    C3 5139   5.197  11.305  10.361  0.0284 -0.1889  0.1458
  322loPI   PO4 5140   5.478  11.709  10.010 -0.2829 -0.0199  0.0538
  322loPI   GL1 5141   5.277  11.761   9.675  0.0234  0.0353  0.2063
  322loPI   GL2 5142   5.464  11.537   9.552 -0.1153  0.2507  0.5062
  322loPI   C1A 5143   5.119  12.046   9.338  0.0940  0.0001  0.2890
  322loPI   C2A 5144   4.980  12.075   8.894 -0.2103  0.0408  0.1016
  322loPI   C3A 5145   4.951  12.054   8.507 -0.3213  0.0564 -0.3476
  322loPI   C4A 5146   5.018  11.888   8.159  0.2548 -0.1390 -0.1407
  322loPI   C5A 5147   5.094  11.710   7.708 -0.1650 -0.0254  0.1674
  322loPI   C6A 5148   5.199  12.046   7.449 -0.3032  0.0999  0.2516
  322loPI   C1B 5149   5.450  11.614   9.093 -0.1256 -0.0558 -0.0009
  322loPI   C2B 5150   5.500  11.861   8.660 -0.1499 -0.0784 -0.0299
  322loPI   C3B 5151   5.481  12.037   8.293  0.0250 -0.0518 -0.1003
  322loPI   C4B 5152   5.543  12.181   7.876  0.1835 -0.3370  0.0032
  323loPI    C1 5153   5.870   3.838   9.741 -0.1707  0.2160 -0.1298
  323loPI    C2 5154   6.091   3.965   9.433  0.1628 -0.0330  0.0001
  323loPI    C3 5155   6.131   3.590   9.567 -0.2810 -0.0564  0.0839
  323loPI   PO4 5156   5.644   3.880   9.679  0.1109  0.2320 -0.1840
  323loPI   GL1 5157   5.205   3.739   9.372  0.0234 -0.2568 -0.0869
  323loPI   GL2 5158   5.541   3.648   9.236 -0.0965 -0.3327  0.0278
  323loPI   C1A 5159   5.157   3.928   8.882  0.2134  0.0048 -0.5269
  323loPI   C2A 5160   5.134   3.830   8.429  0.0577 -0.2732 -0.1398
  323loPI   C3A 5161   5.384   3.994   8.024  0.1312 -0.2534  0.2636
  323loPI   C4A 5162   5.667   4.272   7.809  0.1182  0.2230  0.1300
  323loPI   C5A 5163   5.689   4.724   7.691  0.2426 -0.2587  0.1182
  323loPI   C6A 5164   5.453   4.977   7.945 -0.2858  0.1990  0.3130
  323loPI   C1B 5165   5.950   3.589   9.063 -0.1497 -0.0326  0.0491
  323loPI   C2B 5166   6.191   3.968   8.984  0.1270  0.0344  0.2900
  323loPI   C3B 5167   6.296   4.204   8.731 -0.1289  0.2945 -0.1733
  323loPI   C4B 5168   6.380   4.204   8.279 -0.0309 -0.2346  0.1666
  324loPI    C1 5169   0.664   0.101  10.395 -0.1630  0.1274 -0.0367
  324loPI    C2 5170   1.050   0.177  10.464 -0.0721 -0.3646  0.0351
  324loPI    C3 5171   0.768   0.400  10.638  0.1739  0.1611 -0.2170
  324loPI   PO4 5172   0.625   0.170  10.147  0.2574  0.0810 -0.2999
  324loPI   GL1 5173   0.741  -0.020   9.739 -0.0519 -0.0903 -0.3169
  324loPI   GL2 5174   1.078   0.013   9.648  0.2158  0.0354 -0.1738
  324loPI   C1A 5175   0.559   0.108   9.383 -0.0507 -0.1343 -0.0619
  324loPI   C2A 5176   0.586   0.033   8.860 -0.1530  0.1212 -0.1807
  324loPI   C3A 5177   0.723  -0.068   8.488 -0.0825  0.1860 -0.0606
  324loPI   C4A 5178   0.915  -0.220   8.065  0.0388 -0.0899 -0.2096
  324loPI   C5A 5179   0.984  -0.455   7.763  0.0486 -0.0242  0.0239
  324loPI   C6A 5180   0.805  -0.759   7.508 -0.0583  0.3532  0.0897
  324loPI   C1B 5181   1.036   0.105   9.219  0.2193  0.0465 -0.0013
  324loPI   C2B 5182   1.046   0.312   8.847  0.0742  0.0347 -0.0533
  324loPI   C3B 5183   0.888   0.573   8.383  0.5094 -0.0644 -0.0585
  324loPI   C4B 5184   0.780   0.899   8.116  0.1984  0.2877 -0.2140
  325loPI    C1 5185  11.107   3.348  10.382 -0.3600  0.0361 -0.0186
  325loPI    C2 5186  10.867   3.034  10.444 -0.2457 -0.0552 -0.0357
  325loPI    C3 5187  10.765   3.394  10.584 -0.2808 -0.1395  0.1587
  325loPI   PO4 5188  11.140   3.334  10.072 -0.2115  0.0130  0.1177
  325loPI   GL1 5189  11.551   3.138   9.718 -0.1728  0.0862  0.1566
  325loPI   GL2 5190  11.336   2.973   9.620  0.2230  0.0741  0.0909
  325loPI   C1A 5191  11.700   3.218   9.361  0.0846 -0.2373  0.0844
  325loPI   C2A 5192  11.550   3.470   9.017  0.2021  0.0414 -0.1030
  325loPI   C3A 5193  11.681   3.478   8.559 -0.3404  0.2302 -0.1484
  325loPI   C4A 5194  11.693   3.341   8.157  0.2257  0.1572 -0.1133
  325loPI   C5A 5195  11.810   3.155   7.832 -0.0149 -0.0446 -0.1319
  325loPI   C6A 5196  11.839   2.941   7.516 -0.0229 -0.0703  0.3778
  325loPI   C1B 5197  11.087   2.706   9.274  0.3232  0.1079  0.0377
  325loPI   C2B 5198  11.097   2.650   8.805  0.0078  0.2586 -0.0851
  325loPI   C3B 5199  10.974   2.443   8.419  0.0313 -0.0819 -0.1373
  325loPI   C4B 5200  10.835   2.590   7.950  0.2056  0.1026 -0.0270
  326loPI    C1 5201   3.562   1.431  10.244  0.0538  0.0875  0.0299
  326loPI    C2 5202   3.493   1.798  10.386 -0.2279  0.0118  0.0948
  326loPI    C3 5203   3.351   1.478  10.580  0.1171 -0.1405  0.1040
  326loPI   PO4 5204   3.792   1.584   9.970 -0.0961 -0.0956  0.0186
  326loPI   GL1 5205   3.768   1.515   9.510  0.1764  0.0537  0.1057
  326loPI   GL2 5206   4.121   1.392   9.407  0.0948  0.0355 -0.0570
  326loPI   C1A 5207   3.731   1.336   8.992 -0.0799 -0.2554  0.1658
  326loPI   C2A 5208   3.557   1.296   8.582 -0.1987 -0.1151  0.2694
  326loPI   C3A 5209   3.755   1.093   8.116  0.0431 -0.0434  0.1854
  326loPI   C4A 5210   3.658   1.297   7.717  0.1769 -0.1376  0.0747
  326loPI   C5A 5211   3.362   1.252   7.323 -0.2890  0.0963 -0.0130
  326loPI   C6A 5212   3.426   0.803   7.085 -0.0773 -0.1849 -0.0301
  326loPI   C1B 5213   4.331   1.432   8.982 -0.1413  0.0509  0.1446
  326loPI   C2B 5214   4.311   1.638   8.657  0.2077  0.3696  0.0224
  326loPI   C3B 5215   4.380   2.026   8.490 -0.0249  0.0945  0.0114
  326loPI   C4B 5216   4.495   2.437   8.403  0.1731 -0.1504 -0.0231
  327loPI    C1 5217  10.167   8.927  10.364  0.0344 -0.0267 -0.0710
  327loPI    C2 5218  10.067   8.738  10.702 -0.0012  0.0609 -0.0323
  327loPI    C3 5219  10.357   9.013  10.706  0.0331  0.0258 -0.0835
  327loPI   PO4 5220   9.920   9.004  10.222  0.3100  0.0624 -0.0679
  327loPI   GL1 5221   9.889   9.196   9.739 -0.1117 -0.0530  0.0424
  327loPI   GL2 5222   9.858   8.867   9.716  0.1310  0.0201 -0.1246
  327loPI   C1A 5223   9.988   9.323   9.274  0.1587  0.3813 -0.1200
  327loPI   C2A 5224   9.952   9.540   8.949  0.1697 -0.0735 -0.4366
  327loPI   C3A 5225   9.991   9.718   8.531  0.0244  0.2250 -0.0093
  327loPI   C4A 5226  10.025   9.628   8.128 -0.0507 -0.2444 -0.0305
  327loPI   C5A 5227  10.177   9.400   7.754  0.0473  0.0701  0.2524
  327loPI   C6A 5228  10.567   9.078   7.596 -0.0261 -0.1086  0.2219
  327loPI   C1B 5229   9.812   8.750   9.237  0.0364 -0.1270 -0.1924
  327loPI   C2B 5230   9.999   8.869   8.847  0.0809 -0.1769  0.1468
  327loPI   C3B 5231  10.164   8.751   8.440 -0.2711  0.1401 -0.0704
  327loPI   C4B 5232  10.237   8.823   7.914 -0.1347 -0.1594  0.0214
  328loPI    C1 5233   9.920   1.115  10.412  0.0775 -0.0601 -0.1731
  328loPI    C2 5234   9.911   1.484  10.257 -0.0001 -0.0124 -0.0569
  328loPI    C3 5235   9.974   1.433  10.649 -0.0336 -0.1207 -0.0654
  328loPI   PO4 5236  10.008   0.997  10.190  0.2741  0.1947 -0.0676
  328loPI   GL1 5237   9.829   0.732   9.860 -0.0974  0.0021 -0.1359
  328loPI   GL2 5238   9.726   0.500   9.641 -0.2004  0.1327 -0.0218
  328loPI   C1A 5239   9.598   0.978   9.420 -0.0243  0.4107  0.3602
  328loPI   C2A 5240   9.648   0.976   9.059  0.0320 -0.3287  0.1047
  328loPI   C3A 5241   9.625   0.917   8.574 -0.3305 -0.2678 -0.2661
  328loPI   C4A 5242   9.930   0.744   8.398 -0.2031  0.0605  0.0139
  328loPI   C5A 5243  10.100   0.471   8.324  0.3814  0.0077 -0.1465
  328loPI   C6A 5244   9.857   0.256   8.028  0.2446  0.2757 -0.0911
  328loPI   C1B 5245   9.782   0.507   9.219 -0.0551 -0.4372  0.0537
  328loPI   C2B 5246   9.856   0.461   8.851 -0.1281 -0.1221  0.3226
  328loPI   C3B 5247   9.857   0.046   8.598  0.1520 -0.2516 -0.0147
  328loPI   C4B 5248   9.855  -0.115   8.318  0.0397 -0.0754  0.3160
  329loPI    C1 5249  11.597  17.072  10.303 -0.2295 -0.2563 -0.3058
  329loPI    C2 5250  11.414  16.801  10.534  0.0509 -0.0743  0.1431
  329loPI    C3 5251  11.779  16.726  10.389 -0.0466 -0.1091 -0.0877
  329loPI   PO4 5252  11.412  17.137  10.172  0.2414 -0.1235  0.0651
  329loPI   GL1 5253  11.268  17.255   9.817 -0.1844  0.0629  0.1020
  329loPI   GL2 5254  11.513  17.352   9.682 -0.1371 -0.2016  0.1288
  329loPI   C1A 5255  11.168  17.459   9.381  0.2840 -0.2189  0.0353
  329loPI   C2A 5256  11.043  17.476   8.982 -0.1019 -0.1580 -0.0679
  329loPI   C3A 5257  11.080  17.309   8.600 -0.0320  0.1662 -0.4161
  329loPI   C4A 5258  11.272  17.060   8.303  0.0077 -0.1417  0.2713
  329loPI   C5A 5259  11.581  17.045   7.945 -0.2134 -0.3373  0.2055
  329loPI   C6A 5260  11.912  16.940   7.637 -0.1556 -0.0321 -0.0532
  329loPI   C1B 5261  11.641  17.566   9.329  0.2048 -0.3658 -0.1604
  329loPI   C2B 5262  11.720  17.483   8.918 -0.2947 -0.0265 -0.1158
  329loPI   C3B 5263  11.826  17.411   8.567 -0.2474 -0.1841  0.1738
  329loPI   C4B 5264  12.174  17.248   8.437  0.2588  0.0234 -0.0860
  330loPI    C1 5265  15.869   7.072   9.966  0.0240  0.0319 -0.0612
  330loPI    C2 5266  16.101   6.747   9.993  0.0715  0.0812  0.1432
  330loPI    C3 5267  15.787   6.789  10.237 -0.1355  0.0308 -0.1099
  330loPI   PO4 5268  15.725   7.021   9.665 -0.1609 -0.3282 -0.0059
  330loPI   GL1 5269  15.957   7.177   9.364  0.0583  0.0150 -0.0098
  330loPI   GL2 5270  16.004   7.575   9.284  0.0920  0.0262  0.0802
  330loPI   C1A 5271  15.882   6.904   9.037 -0.0178 -0.0618  0.2506
  330loPI   C2A 5272  15.629   6.910   8.626  0.1771 -0.2572 -0.3207
  330loPI   C3A 5273  15.743   6.856   8.173  0.1226  0.0860 -0.1043
  330loPI   C4A 5274  15.535   7.011   7.720 -0.0453  0.0913  0.0960
  330loPI   C5A 5275  15.178   7.063   7.455  0.2606 -0.3355 -0.1642
  330loPI   C6A 5276  14.756   7.327   7.533  0.1981 -0.0155  0.1855
  330loPI   C1B 5277  16.134   7.464   8.857  0.3712  0.0901 -0.0196
  330loPI   C2B 5278  16.082   7.813   8.458  0.1443 -0.1378  0.0154
  330loPI   C3B 5279  16.101   8.266   8.332 -0.2265 -0.0950  0.1341
  330loPI   C4B 5280  16.041   8.662   8.266  0.4361  0.0753  0.0915
  331loPI    C1 5281  17.683  13.518  10.132  0.1648 -0.2053  0.0927
  331loPI    C2 5282  17.583  13.905  10.125 -0.0184 -0.2547 -0.1795
  331loPI    C3 5283  17.419  13.662  10.397 -0.1465 -0.2041 -0.2105
  331loPI   PO4 5284  17.660  13.428   9.940  0.1654 -0.0827 -0.1291
  331loPI   GL1 5285  17.604  13.561   9.426  0.2090  0.2346 -0.2520
  331loPI   GL2 5286  17.894  13.534   9.463 -0.1910 -0.0149 -0.1459
  331loPI   C1A 5287  17.580  13.504   8.945 -0.0805  0.0136  0.1661
  331loPI   C2A 5288  17.439  13.127   8.730 -0.0316  0.0517  0.2464
  331loPI   C3A 5289  17.409  13.024   8.271  0.1827  0.0970 -0.1823
  331loPI   C4A 5290  17.743  12.996   7.930  0.3103 -0.1427  0.1857
  331loPI   C5A 5291  17.989  13.233   7.653  0.2941 -0.1407 -0.1590
  331loPI   C6A 5292  17.819  13.555   7.458 -0.0220 -0.1731  0.1803
  331loPI   C1B 5293  17.993  13.267   9.137 -0.1942  0.0163  0.2296
  331loPI   C2B 5294  17.949  13.051   8.774 -0.1052 -0.0570  0.2959
  331loPI   C3B 5295  18.045  13.045   8.368  0.1356  0.1721 -0.1791
  331loPI   C4B 5296  18.257  12.951   7.952 -0.1040  0.0463 -0.0277
  332loPI    C1 5297  11.879  15.173  10.457 -0.0214  0.1440  0.0141
  332loPI    C2 5298  12.204  15.404  10.484  0.1166 -0.0274 -0.1491
  332loPI    C3 5299  12.215  15.027  10.616 -0.0489 -0.0025 -0.0605
  332loPI   PO4 5300  11.757  15.279  10.196 -0.1888 -0.3411 -0.0595
  332loPI   GL1 5301  11.422  15.579   9.935 -0.1597 -0.1690 -0.1076
  332loPI   GL2 5302  11.311  15.309   9.918  0.0404  0.1048  0.3087
  332loPI   C1A 5303  11.731  15.495   9.550 -0.0922  0.0787 -0.1470
  332loPI   C2A 5304  11.748  15.204   9.274 -0.1222  0.2019 -0.0810
  332loPI   C3A 5305  11.837  15.131   8.878 -0.0852  0.0684  0.1768
  332loPI   C4A 5306  11.891  15.149   8.447 -0.2413 -0.0504 -0.0867
  332loPI   C5A 5307  12.173  15.161   8.041 -0.1483 -0.0349 -0.0748
  332loPI   C6A 5308  12.154  15.004   7.646  0.1015 -0.0219  0.0449
  332loPI   C1B 5309  11.239  15.339   9.439  0.1512 -0.1259  0.1167
  332loPI   C2B 5310  11.352  15.312   8.919 -0.0182 -0.0979  0.1608
  332loPI   C3B 5311  11.487  15.452   8.608 -0.0564  0.0288 -0.0365
  332loPI   C4B 5312  11.695  15.472   8.153 -0.0489 -0.4819 -0.3433
  333loPI    C1 5313  18.596  12.472  10.009  0.0857  0.0585  0.0964
  333loPI    C2 5314  18.269  12.662   9.878 -0.0561 -0.2374  0.0123
  333loPI    C3 5315  18.361  12.668  10.268 -0.1501 -0.1361  0.0337
  333loPI   PO4 5316  18.553  12.229   9.923 -0.1505  0.0854  0.0205
  333loPI   GL1 5317  18.458  12.090   9.562  0.1500  0.1881  0.1533
  333loPI   GL2 5318  18.326  12.409   9.415  0.0277  0.0505 -0.1220
  333loPI   C1A 5319  18.559  11.971   9.076 -0.0415 -0.3375  0.0064
  333loPI   C2A 5320  18.610  11.960   8.692  0.1751  0.0344  0.2084
  333loPI   C3A 5321  18.721  12.025   8.315 -0.0855 -0.2182 -0.1922
  333loPI   C4A 5322  18.634  12.108   7.841  0.1172  0.0188 -0.0614
  333loPI   C5A 5323  18.489  12.228   7.394 -0.1535  0.1284 -0.1221
  333loPI   C6A 5324  18.582  12.429   7.037 -0.1644 -0.2867 -0.0396
  333loPI   C1B 5325  18.504  12.518   9.042  0.1048 -0.2828 -0.3397
  333loPI   C2B 5326  18.668  12.455   8.638  0.0871 -0.1051 -0.3423
  333loPI   C3B 5327  18.730  12.802   8.325  0.0526 -0.1340  0.3126
  333loPI   C4B 5328  18.645  12.703   7.899 -0.2333  0.0370  0.1233
  334loPI    C1 5329   5.827   5.842   9.930 -0.0860 -0.0508  0.1643
  334loPI    C2 5330   6.079   6.034   9.687 -0.0400  0.0599  0.2977
  334loPI    C3 5331   5.900   6.232   9.984 -0.4131  0.0220  0.1042
  334loPI   PO4 5332   5.751   5.545   9.757  0.1480 -0.0006  0.5613
  334loPI   GL1 5333   5.966   5.618   9.452 -0.2480 -0.1976 -0.2843
  334loPI   GL2 5334   6.028   5.341   9.403  0.1786 -0.1382 -0.3059
  334loPI   C1A 5335   5.781   5.798   9.128 -0.1579 -0.1171 -0.2511
  334loPI   C2A 5336   5.714   5.813   8.632 -0.1775  0.0728 -0.4031
  334loPI   C3A 5337   5.721   5.837   8.172 -0.2344  0.1553 -0.0312
  334loPI   C4A 5338   5.833   5.891   7.752  0.0709  0.2485 -0.1222
  334loPI   C5A 5339   5.723   5.895   7.378 -0.2067  0.1466 -0.0327
  334loPI   C6A 5340   5.431   6.174   7.038  0.0914 -0.1358  0.1517
  334loPI   C1B 5341   6.054   5.017   9.041 -0.2186 -0.0077 -0.0283
  334loPI   C2B 5342   5.908   5.059   8.699  0.2248 -0.1359  0.0413
  334loPI   C3B 5343   6.060   5.160   8.229 -0.1380  0.2576 -0.3893
  334loPI   C4B 5344   6.194   4.968   7.993  0.0572 -0.0407  0.1241
  335loPI    C1 5345  10.116   3.509  10.448  0.0721 -0.1128 -0.0834
  335loPI    C2 5346  10.198   3.867  10.289 -0.0660 -0.1613 -0.2675
  335loPI    C3 5347  10.388   3.747  10.620 -0.1359  0.1498 -0.1107
  335loPI   PO4 5348  10.048   3.349  10.156 -0.0161 -0.1583 -0.0937
  335loPI   GL1 5349   9.878   3.123   9.764 -0.0628 -0.4558 -0.0212
  335loPI   GL2 5350   9.644   3.349   9.798 -0.3964 -0.0833  0.0929
  335loPI   C1A 5351  10.063   3.312   9.474  0.2093 -0.5539  0.0312
  335loPI   C2A 5352  10.100   3.638   9.136 -0.2521  0.0723 -0.4348
  335loPI   C3A 5353  10.238   3.745   8.806  0.0194 -0.1720 -0.1461
  335loPI   C4A 5354  10.194   3.719   8.388 -0.0943  0.2319  0.0406
  335loPI   C5A 5355  10.082   3.855   7.874  0.0426  0.3293 -0.0944
  335loPI   C6A 5356   9.933   3.714   7.467  0.2593 -0.0786 -0.0907
  335loPI   C1B 5357   9.641   3.614   9.458 -0.0346 -0.2249  0.1541
  335loPI   C2B 5358   9.665   3.897   9.030  0.0294 -0.1246  0.1065
  335loPI   C3B 5359   9.519   4.173   8.750  0.0981 -0.0032  0.2995
  335loPI   C4B 5360   9.389   4.319   8.384 -0.3546  0.0041  0.0991
  336loPI    C1 5361   5.157   0.362  10.375  0.0882 -0.0030 -0.1114
  336loPI    C2 5362   5.088   0.624  10.670 -0.1047 -0.0683 -0.0970
  336loPI    C3 5363   5.103   0.232  10.750  0.2662 -0.0589 -0.1044
  336loPI   PO4 5364   5.065   0.488  10.137 -0.3182 -0.3449 -0.0589
  336loPI   GL1 5365   4.949   0.417   9.724 -0.0829 -0.1370  0.1025
  336loPI   GL2 5366   4.637   0.280   9.803 -0.1680  0.0513  0.0403
  336loPI   C1A 5367   4.975   0.298   9.338 -0.1987 -0.1648 -0.0008
  336loPI   C2A 5368   5.113   0.329   8.975 -0.0611 -0.0964 -0.1743
  336loPI   C3A 5369   5.090   0.404   8.567  0.4220  0.3406  0.1123
  336loPI   C4A 5370   5.068   0.187   8.213  0.1816  0.1076  0.1380
  336loPI   C5A 5371   5.146   0.273   7.767  0.1319  0.2373  0.2070
  336loPI   C6A 5372   5.308   0.441   7.388  0.1933 -0.1318  0.1722
  336loPI   C1B 5373   4.505   0.458   9.341 -0.2057 -0.0145 -0.1433
  336loPI   C2B 5374   4.329   0.299   8.946 -0.1079  0.3919  0.0665
  336loPI   C3B 5375   4.278   0.120   8.448 -0.1299 -0.0125  0.1507
  336loPI   C4B 5376   4.288  -0.186   8.073 -0.0303 -0.0144 -0.1424
  337loPI    C1 5377   1.110  16.203  10.074  0.0553 -0.1635  0.0021
  337loPI    C2 5378   1.312  16.370  10.376  0.1884 -0.2366 -0.0455
  337loPI    C3 5379   1.062  16.066  10.446 -0.0629 -0.0139  0.0429
  337loPI   PO4 5380   1.032  16.424   9.864 -0.0576  0.0013 -0.1600
  337loPI   GL1 5381   1.245  16.598   9.637  0.3020 -0.0083 -0.0259
  337loPI   GL2 5382   1.145  16.907   9.543 -0.0745  0.2062 -0.1210
  337loPI   C1A 5383   1.306  16.482   9.243  0.0755 -0.0783 -0.1718
  337loPI   C2A 5384   1.216  16.478   8.861 -0.0349 -0.0233 -0.1269
  337loPI   C3A 5385   1.452  16.274   8.542  0.0927 -0.1459  0.0881
  337loPI   C4A 5386   1.553  16.153   8.131 -0.0859  0.2888  0.2068
  337loPI   C5A 5387   1.282  16.172   7.847 -0.0535 -0.1001  0.1211
  337loPI   C6A 5388   0.909  16.292   7.912 -0.0808 -0.0046 -0.2439
  337loPI   C1B 5389   0.954  16.869   9.134  0.0730 -0.0771 -0.0427
  337loPI   C2B 5390   1.187  16.965   8.703 -0.0763 -0.0730  0.0691
  337loPI   C3B 5391   1.481  16.761   8.406  0.3643 -0.3807  0.0320
  337loPI   C4B 5392   1.858  16.563   8.495 -0.2323 -0.0203 -0.0985
  338loPI    C1 5393   0.412  16.359   9.984 -0.3940 -0.3277  0.2554
  338loPI    C2 5394   0.685  16.394  10.273  0.1730 -0.0762 -0.2874
  338loPI    C3 5395   0.374  16.644  10.261  0.2420  0.0269 -0.0003
  338loPI   PO4 5396   0.571  16.400   9.760 -0.0648  0.0286 -0.3550
  338loPI   GL1 5397   0.761  16.454   9.411 -0.0314 -0.2524 -0.0278
  338loPI   GL2 5398   0.534  16.710   9.344  0.2409  0.0742 -0.1778
  338loPI   C1A 5399   0.648  16.535   8.924  0.0555  0.0334  0.0463
  338loPI   C2A 5400   0.477  16.418   8.577 -0.1948  0.3256  0.1905
  338loPI   C3A 5401   0.480  16.526   8.083 -0.0091 -0.0391 -0.2597
  338loPI   C4A 5402   0.439  16.832   7.742 -0.0218  0.0889 -0.3386
  338loPI   C5A 5403   0.497  17.124   7.472  0.0654  0.0741 -0.1942
  338loPI   C6A 5404   0.495  17.386   7.071  0.3208  0.1758  0.6346
  338loPI   C1B 5405   0.546  17.180   9.389 -0.1740 -0.1434  0.0455
  338loPI   C2B 5406   0.553  17.630   9.429 -0.2579  0.0418 -0.3025
  338loPI   C3B 5407   0.792  17.953   9.243 -0.0295 -0.2182 -0.2373
  338loPI   C4B 5408   0.619  18.366   9.017 -0.0076 -0.0866 -0.0848
  339loPI    C1 5409  16.499  12.942   9.932 -0.0120  0.1363  0.0861
  339loPI    C2 5410  16.741  12.648   9.811  0.1303  0.2658  0.0533
  339loPI    C3 5411  16.862  12.901  10.096 -0.1155  0.0992  0.3093
  339loPI   PO4 5412  16.298  12.963   9.701 -0.1040  0.0655  0.3166
  339loPI   GL1 5413  15.938  12.676   9.502 -0.0599 -0.0808 -0.2156
  339loPI   GL2 5414  15.891  12.951   9.356 -0.0267  0.3235  0.0404
  339loPI   C1A 5415  16.010  12.533   9.038  0.0622 -0.1090 -0.0203
  339loPI   C2A 5416  15.986  12.362   8.752 -0.0973 -0.0148 -0.1352
  339loPI   C3A 5417  15.851  12.271   8.412 -0.1190  0.0180 -0.0297
  339loPI   C4A 5418  15.879  11.906   8.192 -0.1616  0.0105  0.1348
  339loPI   C5A 5419  15.809  11.813   7.785  0.1089 -0.2509 -0.0784
  339loPI   C6A 5420  15.487  11.628   7.587  0.0079 -0.0436 -0.0796
  339loPI   C1B 5421  15.968  13.022   8.955  0.1112  0.1644  0.1579
  339loPI   C2B 5422  16.144  13.042   8.541 -0.1297  0.3919  0.1110
  339loPI   C3B 5423  15.998  13.274   8.170  0.0742 -0.0415  0.0641
  339loPI   C4B 5424  15.899  13.061   7.770 -0.1437 -0.0410  0.0862
  340loPI    C1 5425   2.426   3.899   9.970 -0.0871 -0.4621  0.0671
  340loPI    C2 5426   2.716   3.854  10.242  0.3396  0.1332 -0.2667
  340loPI    C3 5427   2.430   4.129  10.298  0.1169 -0.1133 -0.1737
  340loPI   PO4 5428   2.518   3.991   9.773  0.1160  0.0447  0.1785
  340loPI   GL1 5429   2.513   3.919   9.304  0.3117 -0.1341 -0.0119
  340loPI   GL2 5430   2.200   4.104   9.076 -0.0130 -0.0711  0.2605
  340loPI   C1A 5431   2.929   3.948   9.116 -0.0788 -0.0714 -0.0674
  340loPI   C2A 5432   3.222   4.351   9.010 -0.0892 -0.1435 -0.0060
  340loPI   C3A 5433   3.232   4.692   8.612 -0.2424 -0.0388 -0.0601
  340loPI   C4A 5434   3.366   4.677   8.134 -0.1750 -0.1140  0.2604
  340loPI   C5A 5435   3.520   4.913   7.802 -0.2152  0.0472 -0.1371
  340loPI   C6A 5436   3.508   5.035   7.343  0.2302  0.1935  0.1195
  340loPI   C1B 5437   2.533   4.217   8.852 -0.3680 -0.1561 -0.1339
  340loPI   C2B 5438   2.986   4.162   8.648  0.0023 -0.0212  0.3626
  340loPI   C3B 5439   3.157   4.213   8.242 -0.3091  0.0323  0.0101
  340loPI   C4B 5440   2.923   4.474   7.872 -0.1922 -0.0232 -0.1859
  341loPI    C1 5441   9.931   7.579  10.290  0.2407  0.0010  0.1349
  341loPI    C2 5442  10.050   7.766   9.957 -0.2580  0.0514 -0.0236
  341loPI    C3 5443  10.117   7.933  10.315  0.2485  0.0143 -0.0941
  341loPI   PO4 5444   9.916   7.363  10.172 -0.3391  0.1443 -0.0940
  341loPI   GL1 5445   9.651   7.198   9.946  0.1004  0.0809  0.0802
  341loPI   GL2 5446   9.660   7.555   9.782 -0.1299  0.0023 -0.2419
  341loPI   C1A 5447   9.734   7.056   9.507 -0.0378 -0.3109  0.1759
  341loPI   C2A 5448   9.992   7.107   9.073  0.2093 -0.0885 -0.0428
  341loPI   C3A 5449  10.199   7.466   8.820  0.0382 -0.1655 -0.3224
  341loPI   C4A 5450  10.197   7.647   8.399 -0.2190  0.1825  0.0193
  341loPI   C5A 5451  10.066   7.789   7.984 -0.0524  0.0522 -0.2037
  341loPI   C6A 5452   9.826   7.648   7.594 -0.2248 -0.1790 -0.0984
  341loPI   C1B 5453   9.645   7.492   9.351 -0.2416  0.0151 -0.2715
  341loPI   C2B 5454   9.645   7.476   8.841  0.1317  0.0811 -0.1608
  341loPI   C3B 5455   9.594   7.527   8.381 -0.1435 -0.0104 -0.1108
  341loPI   C4B 5456   9.544   7.539   7.974  0.0007 -0.0598  0.0666
  342loPI    C1 5457   9.255  12.518   9.899  0.1898 -0.0301  0.0744
  342loPI    C2 5458   8.911  12.541  10.102  0.1372 -0.0087 -0.0167
  342loPI    C3 5459   9.250  12.452  10.294  0.0807 -0.0326  0.0730
  342loPI   PO4 5460   9.246  12.694   9.741 -0.2106  0.1350  0.0353
  342loPI   GL1 5461   9.106  12.754   9.325 -0.0658  0.0944 -0.0059
  342loPI   GL2 5462   8.918  12.637   9.178  0.1244 -0.0658 -0.0978
  342loPI   C1A 5463   9.098  12.879   8.792 -0.4703  0.3591 -0.0551
  342loPI   C2A 5464   9.167  12.917   8.319 -0.0231  0.0938  0.0715
  342loPI   C3A 5465   9.308  12.678   8.036 -0.1242 -0.1157 -0.0255
  342loPI   C4A 5466   9.562  12.476   7.718  0.1237  0.2621  0.0142
  342loPI   C5A 5467  10.050  12.549   7.434  0.5256  0.2423 -0.0851
  342loPI   C6A 5468  10.426  12.590   7.364 -0.1483 -0.2407  0.0983
  342loPI   C1B 5469   8.691  12.480   8.838 -0.1192  0.2144  0.1059
  342loPI   C2B 5470   8.844  12.579   8.460 -0.3224  0.0814  0.1023
  342loPI   C3B 5471   8.823  12.482   8.007  0.0323 -0.0770 -0.1861
  342loPI   C4B 5472   8.416  12.228   7.714 -0.1531 -0.4542 -0.1650
  343loPI    C1 5473   3.541   7.471  10.156 -0.3868  0.1202  0.0673
  343loPI    C2 5474   3.787   7.597  10.445  0.0459  0.0251 -0.2494
  343loPI    C3 5475   3.536   7.293  10.515  0.0773  0.0646  0.0513
  343loPI   PO4 5476   3.483   7.786  10.092  0.0030 -0.1186  0.1781
  343loPI   GL1 5477   3.405   7.974   9.696 -0.0710 -0.0999  0.0639
  343loPI   GL2 5478   3.262   8.218   9.829 -0.1024  0.1673 -0.0703
  343loPI   C1A 5479   3.425   7.926   9.288  0.2142 -0.0227 -0.2529
  343loPI   C2A 5480   3.225   8.013   8.879  0.0408 -0.1373 -0.3469
  343loPI   C3A 5481   3.142   8.045   8.376  0.1838 -0.0284  0.0964
  343loPI   C4A 5482   3.063   8.198   8.056 -0.2464  0.1803  0.0052
  343loPI   C5A 5483   3.282   8.066   7.655  0.1890  0.0686  0.1429
  343loPI   C6A 5484   3.552   7.738   7.595 -0.1240  0.1158  0.3784
  343loPI   C1B 5485   3.068   8.440   9.497  0.1545  0.2261 -0.0138
  343loPI   C2B 5486   2.849   8.554   9.197  0.2251  0.0773  0.2127
  343loPI   C3B 5487   2.792   8.431   8.744  0.1602 -0.2570  0.2356
  343loPI   C4B 5488   2.761   8.445   8.310 -0.1934  0.0243  0.0703
  344loPI    C1 5489   2.375  18.566   9.918 -0.2800 -0.0759  0.0139
  344loPI    C2 5490   2.341  18.686  10.298 -0.1120  0.1788 -0.0488
  344loPI    C3 5491   2.696  18.570  10.156 -0.2206 -0.1432 -0.0646
  344loPI   PO4 5492   2.233  18.462   9.685  0.1386 -0.2045  0.0572
  344loPI   GL1 5493   2.201  18.635   9.332  0.0415 -0.0556 -0.1803
  344loPI   GL2 5494   1.995  18.852   9.395  0.0487 -0.1684 -0.0702
  344loPI   C1A 5495   2.225  18.427   8.958 -0.0407 -0.1266 -0.1089
  344loPI   C2A 5496   2.279  18.129   8.670  0.1481  0.0622  0.1537
  344loPI   C3A 5497   2.011  17.727   8.459 -0.1891 -0.2228 -0.0483
  344loPI   C4A 5498   1.609  17.761   8.370  0.1856  0.3832 -0.2234
  344loPI   C5A 5499   1.569  17.267   8.358  0.2251  0.0770 -0.1528
  344loPI   C6A 5500   1.266  17.095   8.057 -0.3223 -0.0659 -0.1262
  344loPI   C1B 5501   1.882  19.075   8.968 -0.0285  0.4806 -0.0934
  344loPI   C2B 5502   1.963  18.931   8.650  0.2320  0.1624 -0.4183
  344loPI   C3B 5503   2.021  18.596   8.323  0.1753 -0.1751  0.0388
  344loPI   C4B 5504   2.302  18.266   8.112 -0.0027 -0.0089  0.0239
  345loPI    C1 5505  16.531  16.283  10.377 -0.0808  0.0609  0.0641
  345loPI    C2 5506  16.721  16.518  10.640 -0.0428  0.0675  0.0309
  345loPI    C3 5507  16.598  16.154  10.750  0.0564  0.0336  0.0305
  345loPI   PO4 5508  16.651  16.357  10.173  0.0858 -0.0193 -0.1451
  345loPI   GL1 5509  16.630  16.467   9.829 -0.1046  0.2389 -0.0097
  345loPI   GL2 5510  16.346  16.318   9.712  0.1350  0.0123 -0.1866
  345loPI   C1A 5511  16.746  16.551   9.352 -0.0914 -0.2022 -0.0850
  345loPI   C2A 5512  16.865  16.596   8.990 -0.0869 -0.0216 -0.2868
  345loPI   C3A 5513  17.087  16.664   8.562 -0.0725  0.0719 -0.2596
  345loPI   C4A 5514  17.201  16.769   8.163 -0.1672  0.0651 -0.2356
  345loPI   C5A 5515  17.035  16.866   7.890  0.3636  0.0047 -0.1882
  345loPI   C6A 5516  17.146  16.681   7.577  0.1199  0.1966 -0.0698
  345loPI   C1B 5517  16.330  16.255   9.280  0.0945 -0.1956 -0.1801
  345loPI   C2B 5518  16.278  16.169   8.901 -0.1472  0.0840 -0.0517
  345loPI   C3B 5519  16.247  16.093   8.475 -0.0276  0.0159 -0.2070
  345loPI   C4B 5520  16.215  15.812   8.141 -0.1569 -0.2098 -0.1007
  346loPI    C1 5521   6.984  13.563   9.866 -0.1282 -0.0668 -0.1877
  346loPI    C2 5522   6.757  13.888   9.815 -0.0862 -0.0014  0.0313
  346loPI    C3 5523   6.680  13.635  10.116 -0.0015 -0.0929 -0.0235
  346loPI   PO4 5524   7.219  13.666   9.615 -0.1338 -0.1858 -0.0635
  346loPI   GL1 5525   7.179  14.134   9.398 -0.1354 -0.0697  0.3415
  346loPI   GL2 5526   7.053  13.839   9.100 -0.0508  0.1721  0.1501
  346loPI   C1A 5527   7.222  14.349   8.884  0.0979  0.0978  0.3094
  346loPI   C2A 5528   7.174  14.255   8.421  0.2261  0.1615 -0.0794
  346loPI   C3A 5529   6.906  14.126   8.139  0.0420 -0.2855  0.0926
  346loPI   C4A 5530   6.791  14.101   7.716  0.2757  0.0243  0.4930
  346loPI   C5A 5531   6.760  14.261   7.278 -0.1198  0.3661  0.1411
  346loPI   C6A 5532   6.964  14.439   6.995  0.2197 -0.2169  0.0044
  346loPI   C1B 5533   6.979  13.859   8.668  0.0986 -0.1558 -0.2960
  346loPI   C2B 5534   7.029  13.711   8.340 -0.1939  0.0924  0.1984
  346loPI   C3B 5535   7.212  13.706   7.885  0.0374 -0.0160 -0.3133
  346loPI   C4B 5536   7.380  13.548   7.528  0.1453  0.1004 -0.0292
  347loPI    C1 5537   9.577   5.529  10.268 -0.0502 -0.1518  0.0472
  347loPI    C2 5538   9.961   5.639  10.252 -0.0777 -0.0346  0.1715
  347loPI    C3 5539   9.794   5.548  10.604 -0.1907  0.0119  0.1303
  347loPI   PO4 5540   9.578   5.456   9.994 -0.1321 -0.2074  0.2054
  347loPI   GL1 5541   9.912   5.566   9.729 -0.0210  0.0887 -0.2149
  347loPI   GL2 5542   9.751   5.448   9.491 -0.1427  0.1032  0.0829
  347loPI   C1A 5543  10.252   5.508   9.467  0.0739 -0.0297  0.0859
  347loPI   C2A 5544  10.359   5.434   9.002  0.0554 -0.1030 -0.0445
  347loPI   C3A 5545  10.300   5.386   8.621  0.2352  0.0642 -0.1889
  347loPI   C4A 5546  10.435   5.503   8.233 -0.0020  0.0411  0.1343
  347loPI   C5A 5547  10.586   5.437   7.844 -0.2062 -0.1176  0.1480
  347loPI   C6A 5548  10.773   5.263   7.421  0.1270 -0.0034  0.2048
  347loPI   C1B 5549   9.923   5.559   9.103  0.0542  0.2526  0.1317
  347loPI   C2B 5550   9.858   5.551   8.626 -0.0207  0.0103 -0.0422
  347loPI   C3B 5551   9.935   5.736   8.290  0.2650  0.1188 -0.0742
  347loPI   C4B 5552   9.998   5.707   7.884 -0.2817  0.1781 -0.0400
  348loPI    C1 5553   8.786  16.925  10.456  0.3696  0.5377  0.0764
  348loPI    C2 5554   8.731  16.733  10.803 -0.2315 -0.1127 -0.3506
  348loPI    C3 5555   8.729  17.133  10.793 -0.1737 -0.0806  0.3894
  348loPI   PO4 5556   8.655  16.796  10.306 -0.2787  0.1896 -0.0762
  348loPI   GL1 5557   8.438  16.748   9.929  0.2428  0.1931 -0.2669
  348loPI   GL2 5558   8.358  17.022   9.928 -0.0352 -0.0180  0.1930
  348loPI   C1A 5559   8.612  16.666   9.639  0.0744  0.1483 -0.1411
  348loPI   C2A 5560   8.556  16.708   9.163  0.1939  0.1618  0.1804
  348loPI   C3A 5561   8.497  16.768   8.798  0.0732 -0.0103 -0.0497
  348loPI   C4A 5562   8.531  16.947   8.317 -0.2330  0.0417  0.0790
  348loPI   C5A 5563   8.290  17.158   7.964 -0.2370  0.1622 -0.3172
  348loPI   C6A 5564   8.317  17.114   7.604 -0.1752  0.1473  0.0633
  348loPI   C1B 5565   8.157  17.057   9.574  0.2142  0.1105 -0.1444
  348loPI   C2B 5566   8.062  16.976   9.155 -0.1778  0.1796 -0.0961
  348loPI   C3B 5567   7.990  17.109   8.893 -0.0942  0.0428 -0.0039
  348loPI   C4B 5568   8.050  17.124   8.419  0.3011  0.1184  0.3526
  349loPI    C1 5569   4.191  18.479  10.234  0.2343  0.0008  0.0067
  349loPI    C2 5570   3.965  18.608  10.538  0.1240 -0.0871 -0.0375
  349loPI    C3 5571   4.134  18.246  10.554 -0.0250 -0.1629 -0.1556
  349loPI   PO4 5572   4.013  18.525  10.033  0.0535 -0.2915 -0.3474
  349loPI   GL1 5573   3.827  18.085   9.828  0.5941  0.0821 -0.0857
  349loPI   GL2 5574   3.578  17.858   9.811 -0.1861  0.0237 -0.2189
  349loPI   C1A 5575   3.959  18.056   9.424 -0.0504 -0.0313 -0.4064
  349loPI   C2A 5576   3.911  17.891   8.952  0.0115 -0.0946 -0.0811
  349loPI   C3A 5577   4.054  17.989   8.529 -0.1274 -0.0811 -0.0863
  349loPI   C4A 5578   4.118  18.200   8.224  0.0015 -0.0648  0.1314
  349loPI   C5A 5579   3.975  18.201   7.746  0.1842  0.1522  0.0996
  349loPI   C6A 5580   4.038  18.519   7.470  0.0108 -0.2962  0.0163
  349loPI   C1B 5581   3.541  17.699   9.260  0.2277 -0.1694  0.2161
  349loPI   C2B 5582   3.481  17.667   8.802  0.1192  0.1777  0.2786
  349loPI   C3B 5583   3.503  17.699   8.374 -0.0432 -0.1392  0.3366
  349loPI   C4B 5584   3.264  17.563   8.027 -0.2098  0.0879  0.3036
  350loPI    C1 5585   0.929  18.290  10.173  0.2071 -0.1793 -0.0326
  350loPI    C2 5586   0.742  17.970  10.021 -0.0533 -0.0994  0.1119
  350loPI    C3 5587   0.825  17.986  10.412  0.0984 -0.0566  0.0786
  350loPI   PO4 5588   1.105  18.350  10.082  0.0839  0.2172 -0.0348
  350loPI   GL1 5589   1.317  18.195   9.783 -0.4358 -0.0153  0.2366
  350loPI   GL2 5590   1.644  18.320   9.761  0.1322 -0.1676  0.2025
  350loPI   C1A 5591   1.133  17.795   9.556 -0.1994 -0.0344 -0.1852
  350loPI   C2A 5592   1.053  17.500   9.268 -0.0115  0.1454  0.0296
  350loPI   C3A 5593   0.902  17.325   8.887  0.1636  0.4238  0.0618
  350loPI   C4A 5594   0.982  17.283   8.400  0.1054  0.1651  0.4048
  350loPI   C5A 5595   0.831  17.416   7.987  0.0598  0.0208 -0.0152
  350loPI   C6A 5596   0.940  17.533   7.583  0.0598 -0.0773  0.2001
  350loPI   C1B 5597   1.634  18.501   9.329 -0.1419  0.0736  0.2173
  350loPI   C2B 5598   1.777  18.584   8.987  0.2251 -0.1508  0.0462
  350loPI   C3B 5599   1.562  18.558   8.607 -0.1523  0.2125  0.1005
  350loPI   C4B 5600   1.663  18.891   8.264 -0.0807  0.2838  0.1722
  351loPI    C1 5601  13.800   3.795  10.333 -0.0265 -0.0759 -0.2870
  351loPI    C2 5602  14.113   3.971  10.509 -0.1107  0.0601 -0.2724
  351loPI    C3 5603  13.900   3.697  10.708  0.0343 -0.0759 -0.3031
  351loPI   PO4 5604  13.859   3.871  10.080  0.0528  0.1569  0.0450
  351loPI   GL1 5605  13.643   4.142   9.707  0.1574  0.0374  0.1471
  351loPI   GL2 5606  13.369   4.365   9.573  0.0465  0.1094 -0.1484
  351loPI   C1A 5607  13.727   4.131   9.272  0.2161  0.0073 -0.1124
  351loPI   C2A 5608  13.803   4.004   8.769 -0.1229 -0.0383 -0.0609
  351loPI   C3A 5609  13.742   4.065   8.233  0.1788  0.2699  0.1133
  351loPI   C4A 5610  13.685   3.839   7.835  0.0555 -0.1817  0.2136
  351loPI   C5A 5611  13.323   3.607   7.754 -0.2801  0.2823 -0.0667
  351loPI   C6A 5612  13.092   3.433   7.415  0.2139  0.3129 -0.2389
  351loPI   C1B 5613  13.430   4.643   9.328  0.0365  0.1445 -0.0691
  351loPI   C2B 5614  13.640   4.802   9.022  0.0445 -0.1683 -0.2509
  351loPI   C3B 5615  13.660   5.017   8.680  0.2290 -0.0651  0.3022
  351loPI   C4B 5616  13.721   5.066   8.218  0.1286  0.0832  0.3624
  352loPI    C1 5617   9.566   6.228  10.231  0.2929  0.0326  0.0109
  352loPI    C2 5618   9.562   5.973  10.540 -0.0413 -0.1768 -0.1607
  352loPI    C3 5619   9.334   6.302  10.549  0.1797 -0.0239 -0.0581
  352loPI   PO4 5620   9.573   5.993   9.993  0.0702 -0.1133 -0.0650
  352loPI   GL1 5621   9.511   5.908   9.662 -0.0583 -0.0219 -0.1798
  352loPI   GL2 5622   9.821   5.955   9.456  0.0560 -0.1187  0.0177
  352loPI   C1A 5623   9.403   5.771   9.185  0.2852 -0.2828  0.0466
  352loPI   C2A 5624   9.460   5.781   8.805 -0.1086 -0.0277  0.1362
  352loPI   C3A 5625   9.452   5.952   8.384  0.0747  0.1648  0.0762
  352loPI   C4A 5626   9.559   5.952   7.991  0.2287 -0.1579  0.2338
  352loPI   C5A 5627   9.611   5.877   7.573  0.0859  0.2898  0.2391
  352loPI   C6A 5628   9.605   5.880   7.086 -0.0279  0.0265 -0.2909
  352loPI   C1B 5629   9.806   6.116   9.068 -0.1630 -0.0739  0.1643
  352loPI   C2B 5630   9.846   6.157   8.637 -0.0560  0.2804 -0.1914
  352loPI   C3B 5631   9.945   6.255   8.221 -0.2207  0.0175  0.2231
  352loPI   C4B 5632   9.963   6.248   7.851  0.0212  0.2836 -0.0775
  353loPI    C1 5633  10.476  15.490  10.424 -0.0138 -0.0635 -0.1295
  353loPI    C2 5634  10.781  15.327  10.626 -0.0366 -0.0368 -0.0733
  353loPI    C3 5635  10.415  15.334  10.787 -0.0289  0.1002 -0.0613
  353loPI   PO4 5636  10.471  15.382  10.170 -0.2717  0.2092 -0.0143
  353loPI   GL1 5637  10.628  15.359   9.752  0.2891 -0.0721 -0.3160
  353loPI   GL2 5638  10.851  15.146   9.713 -0.0874 -0.2035  0.2261
  353loPI   C1A 5639  10.778  15.554   9.369  0.2112  0.3140 -0.1043
  353loPI   C2A 5640  10.859  15.680   8.874  0.0278  0.1521  0.0995
  353loPI   C3A 5641  10.812  15.626   8.428  0.1342 -0.0836  0.1051
  353loPI   C4A 5642  10.896  15.800   8.028  0.2897  0.3108  0.1307
  353loPI   C5A 5643  10.742  16.065   7.612  0.2684  0.1887  0.2366
  353loPI   C6A 5644  10.918  16.288   7.345  0.0616 -0.1418  0.2730
  353loPI   C1B 5645  10.841  15.051   9.313 -0.0814 -0.2219  0.3571
  353loPI   C2B 5646  10.905  15.143   8.932 -0.0542  0.0027 -0.2086
  353loPI   C3B 5647  10.860  15.053   8.510  0.0796 -0.2512 -0.1356
  353loPI   C4B 5648  10.959  14.842   8.124  0.3263 -0.0397 -0.0308
  354loPI    C1 5649   2.495   2.654   9.746 -0.0142  0.0099  0.0398
  354loPI    C2 5650   2.644   2.848  10.063 -0.2827  0.0731  0.1292
  354loPI    C3 5651   2.666   3.013   9.699 -0.1124  0.0698  0.1375
  354loPI   PO4 5652   2.547   2.415   9.702  0.1655  0.0395 -0.1442
  354loPI   GL1 5653   2.327   2.389   9.306  0.3397 -0.0292  0.2560
  354loPI   GL2 5654   2.120   2.192   9.179 -0.2232 -0.1995 -0.0467
  354loPI   C1A 5655   2.190   2.651   8.889  0.2279 -0.0103 -0.0850
  354loPI   C2A 5656   2.097   2.498   8.412  0.1082 -0.1637 -0.0586
  354loPI   C3A 5657   1.902   2.443   7.998 -0.0742  0.2447  0.2657
  354loPI   C4A 5658   1.562   2.158   7.870  0.1989 -0.0473  0.1906
  354loPI   C5A 5659   1.122   2.222   7.802 -0.4164  0.0127  0.1220
  354loPI   C6A 5660   0.770   2.243   7.593  0.2153  0.1683 -0.0531
  354loPI   C1B 5661   2.421   2.215   8.765 -0.1570 -0.0899  0.0444
  354loPI   C2B 5662   2.793   2.065   8.462 -0.1731 -0.2712  0.1091
  354loPI   C3B 5663   2.717   2.162   8.017 -0.2430  0.1966  0.2509
  354loPI   C4B 5664   2.275   2.188   7.688  0.0881 -0.1396 -0.2465
  355loPI    C1 5665  17.460   8.123  10.241  0.3305 -0.0112  0.0155
  355loPI    C2 5666  17.478   8.488  10.404  0.2225 -0.0558  0.1287
  355loPI    C3 5667  17.184   8.237  10.507  0.1127 -0.0609 -0.1859
  355loPI   PO4 5668  17.512   8.141   9.965  0.0292  0.2206  0.1336
  355loPI   GL1 5669  17.505   8.268   9.547  0.3356 -0.2041  0.1921
  355loPI   GL2 5670  17.503   7.893   9.399  0.0410  0.1459  0.1786
  355loPI   C1A 5671  17.575   8.357   9.233 -0.1153  0.3061 -0.0526
  355loPI   C2A 5672  17.915   8.444   8.996 -0.2993 -0.2065 -0.3116
  355loPI   C3A 5673  17.916   8.455   8.572 -0.0544  0.0815 -0.2994
  355loPI   C4A 5674  17.932   8.637   8.183  0.0348  0.3417 -0.3108
  355loPI   C5A 5675  18.014   8.483   7.735  0.0634 -0.0537  0.0133
  355loPI   C6A 5676  18.238   8.473   7.356 -0.2652  0.0839  0.2123
  355loPI   C1B 5677  17.316   7.904   9.081  0.2426  0.0013  0.0650
  355loPI   C2B 5678  17.350   7.738   8.511  0.0526  0.1808  0.0047
  355loPI   C3B 5679  17.225   7.927   8.079  0.2311 -0.0217 -0.1947
  355loPI   C4B 5680  17.224   7.738   7.716  0.2754  0.0077  0.1119
  356loPI    C1 5681  14.182   4.196  10.024 -0.1007  0.1182 -0.2532
  356loPI    C2 5682  14.068   4.534   9.843 -0.0306  0.3007  0.0358
  356loPI    C3 5683  14.017   4.492  10.237  0.2545  0.1018  0.0544
  356loPI   PO4 5684  14.451   4.132   9.870  0.0090  0.1622 -0.1718
  356loPI   GL1 5685  14.438   4.179   9.454 -0.1042  0.0305  0.1117
  356loPI   GL2 5686  14.177   4.292   9.433  0.3571  0.0811 -0.1514
  356loPI   C1A 5687  14.198   3.929   9.110 -0.0678 -0.2237  0.0576
  356loPI   C2A 5688  14.374   3.939   8.782 -0.0956 -0.0191 -0.2213
  356loPI   C3A 5689  14.358   3.867   8.362 -0.0725  0.0118  0.0572
  356loPI   C4A 5690  14.595   4.014   8.022  0.0822 -0.2522  0.0218
  356loPI   C5A 5691  14.667   3.870   7.536 -0.2147 -0.1357 -0.4388
  356loPI   C6A 5692  14.554   3.870   7.027  0.0947  0.0408 -0.1219
  356loPI   C1B 5693  13.989   4.410   8.988  0.1140 -0.0098  0.1666
  356loPI   C2B 5694  14.117   4.847   8.757 -0.1565 -0.0257  0.0837
  356loPI   C3B 5695  14.133   4.782   8.322 -0.0150 -0.1656  0.0984
  356loPI   C4B 5696  14.291   4.714   7.864  0.1362 -0.1586  0.0607
  357loPI    C1 5697   2.648  16.500  10.805 -0.1144  0.1589 -0.0055
  357loPI    C2 5698   2.653  16.298  11.151  0.0501  0.0003 -0.0990
  357loPI    C3 5699   2.310  16.451  11.013 -0.0414 -0.0555  0.0649
  357loPI   PO4 5700   2.770  16.331  10.582 -0.0702  0.1506  0.3028
  357loPI   GL1 5701   2.697  16.248  10.116  0.1784  0.2653  0.6636
  357loPI   GL2 5702   2.476  16.426   9.990 -0.2048  0.0644  0.0756
  357loPI   C1A 5703   2.603  15.982   9.750  0.0592  0.2395  0.1086
  357loPI   C2A 5704   2.727  15.958   9.259  0.0830 -0.0036 -0.2666
  357loPI   C3A 5705   2.910  16.030   8.848  0.1865 -0.0604  0.1016
  357loPI   C4A 5706   2.707  16.019   8.433 -0.5460 -0.2453  0.3237
  357loPI   C5A 5707   2.710  16.016   7.984  0.2950 -0.1140 -0.0941
  357loPI   C6A 5708   2.560  16.134   7.554  0.1993  0.1171 -0.1384
  357loPI   C1B 5709   2.577  16.425   9.519 -0.1491 -0.2003 -0.1194
  357loPI   C2B 5710   2.682  16.481   9.102  0.0763  0.0118  0.1491
  357loPI   C3B 5711   2.774  16.505   8.607 -0.1942  0.3298 -0.1566
  357loPI   C4B 5712   2.752  16.514   8.124 -0.2026  0.1947 -0.0832
  358loPI    C1 5713  14.617  14.275  10.111  0.0217  0.0130 -0.1225
  358loPI    C2 5714  14.828  13.936  10.120  0.0681  0.0444 -0.0233
  358loPI    C3 5715  14.943  14.249  10.341 -0.0335  0.0901 -0.0350
  358loPI   PO4 5716  14.461  14.292  10.013  0.0231 -0.0905 -0.1308
  358loPI   GL1 5717  14.481  14.192   9.499 -0.0811 -0.1054 -0.1357
  358loPI   GL2 5718  14.672  14.147   9.254 -0.1253 -0.1351 -0.2002
  358loPI   C1A 5719  14.034  14.166   9.315 -0.4490 -0.1337  0.0971
  358loPI   C2A 5720  13.936  13.878   9.023  0.3687  0.0678  0.2446
  358loPI   C3A 5721  13.623  13.643   8.929 -0.1113 -0.1088 -0.4414
  358loPI   C4A 5722  13.270  13.400   8.690 -0.2034 -0.1792 -0.1583
  358loPI   C5A 5723  13.119  13.319   8.300 -0.0651 -0.2261  0.2669
  358loPI   C6A 5724  12.739  13.149   8.028 -0.0482  0.0315  0.3139
  358loPI   C1B 5725  14.905  14.364   9.058  0.1509  0.0904  0.1318
  358loPI   C2B 5726  15.035  14.373   8.586  0.0680 -0.1441  0.3654
  358loPI   C3B 5727  14.902  14.340   8.091  0.0605 -0.2253  0.0628
  358loPI   C4B 5728  15.003  14.399   7.648 -0.3267  0.4099  0.1074
  359loPI    C1 5729  12.376   9.365  10.391 -0.0361 -0.1223  0.1388
  359loPI    C2 5730  12.013   9.412  10.553 -0.0575 -0.2489  0.1290
  359loPI    C3 5731  12.333   9.370  10.789 -0.0776 -0.3509  0.1384
  359loPI   PO4 5732  12.351   9.562  10.237  0.0549  0.2940  0.1486
  359loPI   GL1 5733  12.222   9.668   9.777 -0.1957  0.1555  0.0075
  359loPI   GL2 5734  12.392   9.948   9.632  0.1774 -0.2956  0.1228
  359loPI   C1A 5735  12.103   9.416   9.371  0.1748 -0.2987 -0.1738
  359loPI   C2A 5736  11.941   9.368   8.837  0.0840 -0.0409 -0.0680
  359loPI   C3A 5737  12.034   9.510   8.369  0.1442  0.2815  0.1573
  359loPI   C4A 5738  12.197   9.480   8.065 -0.0047 -0.2678  0.3647
  359loPI   C5A 5739  12.439   9.414   7.696 -0.1857  0.2023  0.0412
  359loPI   C6A 5740  12.846   9.579   7.560 -0.0382 -0.0653  0.1958
  359loPI   C1B 5741  12.336   9.841   9.256 -0.2490  0.1189 -0.2426
  359loPI   C2B 5742  12.404   9.863   8.827  0.3554 -0.0911  0.1384
  359loPI   C3B 5743  12.560   9.876   8.409  0.0608  0.0367  0.0439
  359loPI   C4B 5744  12.648   9.825   8.038  0.0179  0.1187  0.1294
  360loPI    C1 5745   6.248   0.153  10.146 -0.4637  0.2666 -0.1496
  360loPI    C2 5746   6.026   0.130  10.478 -0.0898 -0.1752  0.0831
  360loPI    C3 5747   6.074  -0.193  10.247  0.1602 -0.0373 -0.0625
  360loPI   PO4 5748   6.190   0.260   9.977  0.1383 -0.2886 -0.1098
  360loPI   GL1 5749   6.345   0.225   9.638 -0.2524  0.3133 -0.0407
  360loPI   GL2 5750   6.375   0.487   9.582 -0.1175  0.1135  0.0498
  360loPI   C1A 5751   6.165   0.412   9.161  0.0132  0.2038  0.1582
  360loPI   C2A 5752   6.019   0.502   8.735  0.0004 -0.5137 -0.0208
  360loPI   C3A 5753   5.831   0.533   8.350  0.0780  0.0248 -0.1764
  360loPI   C4A 5754   5.857   0.656   8.018 -0.0126 -0.2185  0.1126
  360loPI   C5A 5755   5.571   0.679   7.713  0.0585 -0.1035  0.1257
  360loPI   C6A 5756   5.052   0.735   7.691  0.2939 -0.0770 -0.0066
  360loPI   C1B 5757   6.681   0.331   9.331 -0.0991 -0.3508  0.2342
  360loPI   C2B 5758   6.956   0.099   9.135  0.3519  0.1315  0.0539
  360loPI   C3B 5759   7.093   0.163   8.753 -0.3270 -0.1833 -0.0477
  360loPI   C4B 5760   7.123   0.231   8.334  0.0525 -0.2457 -0.1484
  361loPI    C1 5761  16.157   4.244   9.918  0.1025  0.2754  0.0370
  361loPI    C2 5762  16.344   4.439  10.213 -0.1066  0.2498  0.1883
  361loPI    C3 5763  15.944   4.433  10.198 -0.0983  0.3369 -0.1543
  361loPI   PO4 5764  16.401   4.111   9.742 -0.2572  0.0111  0.0833
  361loPI   GL1 5765  16.606   4.183   9.314 -0.3503  0.1575 -0.0791
  361loPI   GL2 5766  16.632   3.931   9.322  0.5021  0.0974  0.0680
  361loPI   C1A 5767  16.862   4.251   8.919 -0.0925  0.0757 -0.3268
  361loPI   C2A 5768  17.130   4.354   8.508 -0.2574 -0.2815  0.0407
  361loPI   C3A 5769  17.236   4.018   8.171  0.0598  0.0545 -0.0793
  361loPI   C4A 5770  17.552   3.775   8.005 -0.1303  0.0807  0.0824
  361loPI   C5A 5771  17.835   3.708   7.722 -0.0192  0.1654 -0.0928
  361loPI   C6A 5772  17.785   3.634   7.376  0.1037  0.3482  0.2237
  361loPI   C1B 5773  16.509   3.865   8.842  0.0564  0.0536 -0.1112
  361loPI   C2B 5774  16.181   3.804   8.505  0.0178  0.1693 -0.1924
  361loPI   C3B 5775  16.121   3.870   8.010  0.2251 -0.0844 -0.0690
  361loPI   C4B 5776  16.201   3.767   7.594 -0.0269 -0.0510 -0.0796
  362loPI    C1 5777  13.705   2.132   9.987 -0.1123 -0.2069 -0.1360
  362loPI    C2 5778  13.473   1.998  10.283 -0.0174 -0.1974 -0.0566
  362loPI    C3 5779  13.865   2.046  10.343 -0.0476  0.1080 -0.0858
  362loPI   PO4 5780  13.640   1.944   9.817  0.0685  0.0553 -0.2421
  362loPI   GL1 5781  13.322   2.097   9.636  0.2085  0.3979 -0.1102
  362loPI   GL2 5782  13.543   2.339   9.555 -0.1122  0.1315  0.0147
  362loPI   C1A 5783  13.248   1.958   9.128 -0.1013 -0.0246 -0.3960
  362loPI   C2A 5784  13.222   1.804   8.730 -0.1134  0.0468 -0.1806
  362loPI   C3A 5785  13.121   1.648   8.337 -0.2149  0.0673  0.0150
  362loPI   C4A 5786  13.221   1.661   7.938  0.0910  0.0126 -0.0056
  362loPI   C5A 5787  13.433   1.696   7.537 -0.2144  0.0134  0.3421
  362loPI   C6A 5788  13.663   1.697   7.213  0.0478  0.2584  0.1527
  362loPI   C1B 5789  13.627   2.372   9.121  0.2997 -0.0617  0.2014
  362loPI   C2B 5790  13.629   2.104   8.808  0.1605 -0.0493  0.4462
  362loPI   C3B 5791  13.576   1.900   8.349 -0.0293 -0.0809 -0.0568
  362loPI   C4B 5792  13.824   1.650   8.074 -0.1462  0.0552 -0.1022
  363loPI    C1 5793   8.428   9.306  10.269 -0.2715  0.0887  0.0628
  363loPI    C2 5794   8.675   9.028  10.417 -0.1450  0.1109 -0.1032
  363loPI    C3 5795   8.286   9.021  10.511 -0.0382  0.2297  0.3729
  363loPI   PO4 5796   8.487   9.233   9.976 -0.1809 -0.1913  0.1117
  363loPI   GL1 5797   8.333   9.025   9.618 -0.0902  0.7339  0.0411
  363loPI   GL2 5798   8.149   8.817   9.559 -0.2456  0.1409 -0.0278
  363loPI   C1A 5799   8.502   8.936   9.236  0.2501 -0.0011  0.2585
  363loPI   C2A 5800   8.563   9.057   8.903  0.0332  0.3936 -0.1071
  363loPI   C3A 5801   8.649   9.265   8.584  0.1325 -0.0764 -0.0287
  363loPI   C4A 5802   8.627   9.462   8.197 -0.2873  0.0266 -0.0155
  363loPI   C5A 5803   8.614   9.479   7.814  0.3589 -0.1465  0.1039
  363loPI   C6A 5804   8.758   9.416   7.396  0.0225 -0.0406 -0.0850
  363loPI   C1B 5805   7.991   8.782   9.220  0.1083  0.0185  0.0524
  363loPI   C2B 5806   8.120   8.807   8.818  0.2816 -0.2729 -0.2462
  363loPI   C3B 5807   8.331   8.917   8.410  0.0229 -0.0151 -0.0977
  363loPI   C4B 5808   8.437   9.057   8.039 -0.0969 -0.2069  0.3810
  364loPI    C1 5809  16.103   9.403  10.010 -0.2173  0.0398  0.0142
  364loPI    C2 5810  16.238   9.130  10.269  0.0677 -0.1067 -0.2804
  364loPI    C3 5811  16.378   9.505  10.282 -0.2465  0.0045  0.0570
  364loPI   PO4 5812  16.153   9.322   9.741 -0.2593  0.1673  0.0437
  364loPI   GL1 5813  16.276   9.300   9.320  0.0247  0.0158 -0.3714
  364loPI   GL2 5814  16.725   9.245   9.409  0.0792  0.1004 -0.0142
  364loPI   C1A 5815  16.143   9.438   8.931 -0.2107 -0.0150 -0.2354
  364loPI   C2A 5816  15.893   9.391   8.473  0.1604  0.1191  0.0751
  364loPI   C3A 5817  15.806   9.185   8.088  0.2659  0.1983  0.0083
  364loPI   C4A 5818  15.490   8.884   7.981 -0.3081  0.0193  0.0422
  364loPI   C5A 5819  15.178   8.517   7.947  0.0331  0.0681 -0.2537
  364loPI   C6A 5820  14.999   8.368   7.553 -0.3190  0.0670  0.2075
  364loPI   C1B 5821  16.643   9.346   8.976 -0.2890  0.2081  0.0127
  364loPI   C2B 5822  16.744   9.322   8.617  0.1407 -0.0053 -0.4181
  364loPI   C3B 5823  16.704   9.450   8.271  0.1216 -0.0146  0.2893
  364loPI   C4B 5824  16.234   9.500   8.009 -0.0155 -0.0353 -0.0309
  365loPI    C1 5825   6.168  14.909  10.591  0.0261 -0.1751  0.0364
  365loPI    C2 5826   6.071  14.580  10.798 -0.0183 -0.1189  0.1052
  365loPI    C3 5827   5.987  14.942  10.946 -0.2338 -0.0812 -0.1019
  365loPI   PO4 5828   6.160  14.804  10.293  0.4872 -0.1971 -0.0419
  365loPI   GL1 5829   6.248  14.850   9.851  0.2197  0.1488 -0.0736
  365loPI   GL2 5830   5.972  15.018   9.796  0.1815  0.0909 -0.1057
  365loPI   C1A 5831   6.450  14.794   9.480  0.0429 -0.2861 -0.0312
  365loPI   C2A 5832   6.454  14.892   9.057  0.2962  0.1492  0.0147
  365loPI   C3A 5833   6.429  14.964   8.598  0.0343 -0.0924 -0.0577
  365loPI   C4A 5834   6.359  14.896   8.222  0.0458 -0.2052  0.0368
  365loPI   C5A 5835   6.472  14.636   8.025  0.2174  0.4158 -0.0517
  365loPI   C6A 5836   6.384  14.492   7.649 -0.1910  0.1085 -0.2929
  365loPI   C1B 5837   6.003  15.081   9.432 -0.0418 -0.0052 -0.0822
  365loPI   C2B 5838   5.991  15.034   8.947 -0.0349 -0.3648 -0.0594
  365loPI   C3B 5839   5.964  15.083   8.495  0.1526 -0.1164  0.1007
  365loPI   C4B 5840   5.882  15.134   8.108 -0.2008 -0.2514 -0.1522
  366loPI    C1 5841  19.082   3.562   9.761  0.0851  0.1495 -0.2815
  366loPI    C2 5842  19.439   3.699   9.641  0.3422 -0.2576 -0.0028
  366loPI    C3 5843  19.351   3.683  10.031 -0.1412  0.2118 -0.0809
  366loPI   PO4 5844  18.947   3.509   9.584  0.0801 -0.0748  0.2336
  366loPI   GL1 5845  18.869   3.387   9.221  0.3950 -0.1207  0.0616
  366loPI   GL2 5846  18.672   3.711   9.258 -0.3658  0.0057  0.0379
  366loPI   C1A 5847  18.732   3.391   8.776 -0.2246 -0.6711 -0.3560
  366loPI   C2A 5848  18.789   3.482   8.364 -0.1116 -0.1403  0.0432
  366loPI   C3A 5849  18.686   3.233   7.954 -0.2543 -0.2152  0.2652
  366loPI   C4A 5850  18.610   3.158   7.597 -0.3408 -0.0625  0.0243
  366loPI   C5A 5851  18.337   2.884   7.422  0.1876  0.1983 -0.0209
  366loPI   C6A 5852  18.257   2.427   7.170 -0.2758  0.1261  0.0195
  366loPI   C1B 5853  18.741   3.962   8.769  0.0822 -0.1647  0.2169
  366loPI   C2B 5854  18.605   4.178   8.347 -0.4023  0.1052  0.1061
  366loPI   C3B 5855  18.429   4.034   7.939  0.2139  0.2731 -0.0138
  366loPI   C4B 5856  18.635   4.175   7.518 -0.0619  0.2730 -0.1413
  367loPI    C1 5857  16.243   7.521   9.870 -0.0219 -0.1935 -0.0777
  367loPI    C2 5858  16.206   7.357  10.233 -0.0340 -0.2787 -0.1172
  367loPI    C3 5859  15.993   7.682  10.138  0.0493 -0.1925 -0.0116
  367loPI   PO4 5860  16.279   7.292   9.739 -0.4737 -0.4340  0.2831
  367loPI   GL1 5861  16.481   7.390   9.375 -0.2193  0.3271  0.3268
  367loPI   GL2 5862  16.391   7.121   9.164  0.1438 -0.0750  0.1753
  367loPI   C1A 5863  16.537   7.626   9.045  0.0375 -0.0293 -0.2220
  367loPI   C2A 5864  16.546   7.439   8.661 -0.0718 -0.4072 -0.0495
  367loPI   C3A 5865  16.421   7.465   8.291  0.0032  0.0395  0.0640
  367loPI   C4A 5866  16.208   7.644   7.928  0.2252  0.3142  0.1953
  367loPI   C5A 5867  16.116   8.160   7.782  0.1452  0.0999  0.0982
  367loPI   C6A 5868  15.962   8.342   7.356 -0.0743 -0.0151 -0.0126
  367loPI   C1B 5869  16.345   6.952   8.745  0.0420 -0.1179  0.0198
  367loPI   C2B 5870  16.251   6.911   8.268  0.0613  0.0823  0.2798
  367loPI   C3B 5871  16.226   6.816   7.860 -0.2247  0.1620  0.2948
  367loPI   C4B 5872  16.045   6.786   7.561  0.0710  0.2401  0.3041
  368loPI    C1 5873   3.219  16.652  10.603  0.0278  0.2664  0.0732
  368loPI    C2 5874   3.335  16.338  10.821  0.0309 -0.0078 -0.3143
  368loPI    C3 5875   3.125  16.632  10.991  0.1075 -0.1717  0.0751
  368loPI   PO4 5876   3.151  16.587  10.323  0.0622  0.1106 -0.0572
  368loPI   GL1 5877   3.287  16.566   9.949  0.1134  0.3895  0.0229
  368loPI   GL2 5878   3.574  16.591   9.930 -0.1754 -0.0140  0.1039
  368loPI   C1A 5879   3.526  16.251   9.588  0.1622  0.0589  0.0996
  368loPI   C2A 5880   3.668  16.092   9.148  0.2090  0.0265 -0.0254
  368loPI   C3A 5881   3.593  16.081   8.732 -0.2443  0.2223 -0.0886
  368loPI   C4A 5882   3.637  16.088   8.312 -0.0458 -0.0883  0.0942
  368loPI   C5A 5883   3.421  16.300   7.914 -0.1549  0.1092 -0.0763
  368loPI   C6A 5884   3.163  16.593   7.813 -0.0374 -0.1184  0.4290
  368loPI   C1B 5885   3.793  16.791   9.597 -0.0707  0.0730 -0.4600
  368loPI   C2B 5886   3.991  16.927   9.281 -0.0443 -0.1978 -0.1619
  368loPI   C3B 5887   4.031  16.897   8.799  0.1233 -0.0646  0.0809
  368loPI   C4B 5888   4.001  16.989   8.331  0.0658  0.0085 -0.0915
  369loPI    C1 5889   5.075   2.963   9.789  0.1064  0.1829  0.2216
  369loPI    C2 5890   5.473   2.931   9.763  0.0759  0.0180 -0.0943
  369loPI    C3 5891   5.298   2.969  10.121  0.3803  0.1843  0.0406
  369loPI   PO4 5892   5.036   2.744   9.642 -0.2354  0.0011 -0.0145
  369loPI   GL1 5893   5.262   2.680   9.295 -0.3500  0.2212  0.0494
  369loPI   GL2 5894   5.565   2.866   9.240 -0.3526 -0.0339 -0.0279
  369loPI   C1A 5895   5.102   2.927   8.961 -0.0297  0.0632 -0.2135
  369loPI   C2A 5896   5.051   2.931   8.560  0.0036  0.2143 -0.3577
  369loPI   C3A 5897   4.852   2.820   8.255  0.0032  0.1302  0.0163
  369loPI   C4A 5898   4.696   2.559   7.957 -0.1860  0.1807  0.0580
  369loPI   C5A 5899   4.479   2.226   7.698 -0.2944  0.0993  0.1385
  369loPI   C6A 5900   4.379   1.843   7.499 -0.0167 -0.1652  0.1107
  369loPI   C1B 5901   5.417   2.622   8.752 -0.0254  0.1373  0.3153
  369loPI   C2B 5902   5.512   2.785   8.428 -0.1028 -0.2373  0.0114
  369loPI   C3B 5903   5.416   2.654   7.989  0.2170 -0.2191  0.2636
  369loPI   C4B 5904   5.568   2.377   7.554  0.2714 -0.2228 -0.0187
  370loPI    C1 5905   4.451  19.114  10.301 -0.1948  0.0256  0.4480
  370loPI    C2 5906   4.740  19.057  10.571 -0.0305  0.1282  0.2964
  370loPI    C3 5907   4.683  19.420  10.413  0.0374  0.0185  0.0119
  370loPI   PO4 5908   4.511  18.877  10.183  0.3042 -0.1722 -0.1804
  370loPI   GL1 5909   4.738  18.898   9.665 -0.0977 -0.2232  0.0940
  370loPI   GL2 5910   5.025  18.944   9.600 -0.2580  0.1786  0.3580
  370loPI   C1A 5911   4.758  18.622   9.329  0.1165  0.1935  0.1341
  370loPI   C2A 5912   4.763  18.190   9.119  0.2013 -0.3846  0.2598
  370loPI   C3A 5913   4.867  18.086   8.690 -0.3295  0.1330 -0.1809
  370loPI   C4A 5914   4.815  18.082   8.334 -0.0750 -0.0446  0.0406
  370loPI   C5A 5915   4.637  18.112   7.916  0.4079  0.1548  0.1537
  370loPI   C6A 5916   4.436  18.197   7.473  0.4648  0.0957 -0.0605
  370loPI   C1B 5917   5.137  18.915   9.139  0.0653 -0.1313  0.0033
  370loPI   C2B 5918   5.191  19.013   8.705  0.1340 -0.0828  0.1043
  370loPI   C3B 5919   5.179  18.849   8.308  0.0538  0.1365 -0.0708
  370loPI   C4B 5920   5.285  18.936   7.940  0.0644 -0.1535 -0.0012
  371loPI    C1 5921  10.115  15.823  10.348  0.2107 -0.0241  0.0216
  371loPI    C2 5922  10.167  15.915  10.734  0.1831  0.1237 -0.0094
  371loPI    C3 5923  10.025  15.556  10.632  0.1470  0.1008  0.1203
  371loPI   PO4 5924  10.274  15.915  10.157  0.0543 -0.0475 -0.1059
  371loPI   GL1 5925  10.277  15.718   9.796 -0.2764  0.1320 -0.2866
  371loPI   GL2 5926  10.673  15.833   9.859 -0.0875 -0.2001  0.0338
  371loPI   C1A 5927  10.302  15.754   9.423  0.0404 -0.0522  0.1224
  371loPI   C2A 5928  10.314  15.796   9.016 -0.1492  0.1846 -0.0085
  371loPI   C3A 5929  10.403  15.806   8.635 -0.3325  0.0181  0.0582
  371loPI   C4A 5930  10.325  15.900   8.230  0.0469  0.0069 -0.1353
  371loPI   C5A 5931  10.249  16.070   7.903  0.4262 -0.1182  0.1490
  371loPI   C6A 5932  10.239  16.345   7.702  0.1256  0.2951  0.0389
  371loPI   C1B 5933  10.653  16.108   9.444  0.2023  0.0336 -0.0693
  371loPI   C2B 5934  10.703  16.093   9.043  0.1431  0.1664  0.0515
  371loPI   C3B 5935  10.898  16.172   8.599  0.0254  0.0669  0.2064
  371loPI   C4B 5936  10.835  16.261   8.142 -0.1494  0.0316  0.1178
  372loPI    C1 5937  13.450  13.328   9.800  0.0121 -0.0709  0.1062
  372loPI    C2 5938  13.288  13.016   9.609 -0.4175  0.2404 -0.0564
  372loPI    C3 5939  13.179  13.099   9.985 -0.0815  0.0283  0.0932
  372loPI   PO4 5940  13.423  13.517   9.548  0.0826 -0.0215 -0.2938
  372loPI   GL1 5941  13.529  13.796   9.361 -0.2212 -0.0553 -0.0082
  372loPI   GL2 5942  13.526  14.166   9.353  0.3364 -0.0921  0.3135
  372loPI   C1A 5943  13.109  13.795   9.093  0.2756  0.2867 -0.0622
  372loPI   C2A 5944  13.048  13.858   8.621 -0.0344 -0.0382 -0.2076
  372loPI   C3A 5945  13.233  13.885   8.272  0.0062  0.1600 -0.0840
  372loPI   C4A 5946  13.329  13.904   7.819  0.3138 -0.1091  0.0036
  372loPI   C5A 5947  13.658  13.954   7.612  0.2929 -0.2995 -0.0787
  372loPI   C6A 5948  13.962  13.668   7.563 -0.2198  0.0896 -0.1201
  372loPI   C1B 5949  13.422  14.097   8.893 -0.3911 -0.0666 -0.1911
  372loPI   C2B 5950  13.753  13.846   8.436  0.0886  0.0745  0.2205
  372loPI   C3B 5951  14.208  13.779   8.436 -0.0097  0.4481  0.1643
  372loPI   C4B 5952  14.654  13.935   8.389 -0.2076  0.0760  0.1037
  373loPI    C1 5953  11.760   2.716  10.393 -0.3839 -0.0433  0.0937
  373loPI    C2 5954  11.620   2.398  10.195 -0.0616 -0.1476  0.0277
  373loPI    C3 5955  11.759   2.356  10.567  0.1316 -0.1168 -0.0401
  373loPI   PO4 5956  11.889   2.879  10.136  0.1061 -0.1751  0.0003
  373loPI   GL1 5957  11.894   2.792   9.681  0.2459  0.0803  0.1573
  373loPI   GL2 5958  11.956   2.532   9.852 -0.0640 -0.1043  0.3953
  373loPI   C1A 5959  12.049   2.746   9.198 -0.2326 -0.2634 -0.1176
  373loPI   C2A 5960  12.256   2.671   8.787 -0.2091  0.2598 -0.1866
  373loPI   C3A 5961  12.442   2.517   8.464  0.3381  0.1475 -0.3019
  373loPI   C4A 5962  12.585   2.228   8.191 -0.0379  0.0430 -0.2965
  373loPI   C5A 5963  12.805   2.174   7.953 -0.0339 -0.3566  0.1205
  373loPI   C6A 5964  13.278   2.158   7.724 -0.0548 -0.1430  0.1816
  373loPI   C1B 5965  11.877   2.328   9.457  0.1555  0.1725  0.1047
  373loPI   C2B 5966  11.723   2.327   9.029  0.2717 -0.1584 -0.4280
  373loPI   C3B 5967  11.753   2.516   8.584  0.1763 -0.3216 -0.0625
  373loPI   C4B 5968  12.014   2.335   8.245 -0.2863 -0.1637 -0.0119
  374loPI    C1 5969   8.523   5.839  10.066  0.0571  0.2077  0.4435
  374loPI    C2 5970   8.710   5.504  10.177  0.0408  0.0784  0.0943
  374loPI    C3 5971   8.313   5.505  10.129  0.0577  0.1067 -0.0486
  374loPI   PO4 5972   8.692   5.945   9.845  0.1375  0.1035  0.1501
  374loPI   GL1 5973   8.667   5.891   9.420  0.1241 -0.0418 -0.1805
  374loPI   GL2 5974   8.964   5.848   9.413 -0.3456 -0.0877  0.1947
  374loPI   C1A 5975   8.642   5.587   9.068  0.0414  0.5760 -0.0172
  374loPI   C2A 5976   8.310   5.547   8.793  0.0565  0.0649  0.0084
  374loPI   C3A 5977   8.017   5.514   8.401 -0.1013 -0.0556  0.0305
  374loPI   C4A 5978   8.133   5.519   7.940  0.2786  0.4182 -0.2408
  374loPI   C5A 5979   7.990   5.765   7.618 -0.3222  0.0497 -0.0083
  374loPI   C6A 5980   7.756   6.057   7.471 -0.3356 -0.0259 -0.0797
  374loPI   C1B 5981   8.974   5.899   9.001 -0.2087  0.1248 -0.1021
  374loPI   C2B 5982   9.004   5.998   8.595 -0.0743  0.1390  0.1031
  374loPI   C3B 5983   9.048   6.298   8.230  0.2313  0.0575 -0.1002
  374loPI   C4B 5984   9.284   6.285   7.753  0.0991 -0.0590  0.3304
  375loPI    C1 5985  15.158   7.406   9.947 -0.3698 -0.1575  0.0314
  375loPI    C2 5986  15.190   7.066   9.737 -0.0237 -0.1327  0.0382
  375loPI    C3 5987  15.262   7.066  10.130  0.1504 -0.0199  0.0076
  375loPI   PO4 5988  15.208   7.636   9.676  0.0652  0.1433 -0.2018
  375loPI   GL1 5989  15.485   7.699   9.292  0.0585  0.0192  0.1529
  375loPI   GL2 5990  15.441   7.390   9.315  0.1612 -0.0788 -0.0846
  375loPI   C1A 5991  15.705   7.817   8.904  0.0127 -0.2162 -0.3642
  375loPI   C2A 5992  15.634   7.955   8.400 -0.0729 -0.1699 -0.1612
  375loPI   C3A 5993  15.717   7.875   8.010 -0.3400 -0.1706  0.1435
  375loPI   C4A 5994  15.884   7.754   7.552  0.2363 -0.0063  0.1912
  375loPI   C5A 5995  16.068   7.958   7.127  0.1338 -0.0423  0.1258
  375loPI   C6A 5996  15.886   8.366   6.832  0.1103  0.2985  0.1237
  375loPI   C1B 5997  15.664   7.339   8.885  0.1898  0.2040 -0.0070
  375loPI   C2B 5998  15.918   7.283   8.459 -0.0808  0.0919  0.3555
  375loPI   C3B 5999  16.019   7.258   8.066  0.1060 -0.2061 -0.0737
  375loPI   C4B 6000  15.949   7.256   7.694 -0.0156 -0.1388 -0.1493
  376loPI    C1 6001   0.323   0.909   9.592  0.1147 -0.2884 -0.2224
  376loPI    C2 6002   0.019   0.675   9.478 -0.1493 -0.0360 -0.0520
  376loPI    C3 6003   0.056   0.781   9.862  0.1141 -0.0034 -0.0843
  376loPI   PO4 6004   0.530   0.733   9.461  0.1927 -0.3264 -0.1474
  376loPI   GL1 6005   0.863   0.612   9.242  0.3323 -0.1322  0.0821
  376loPI   GL2 6006   1.198   0.718   9.363 -0.2851 -0.3633 -0.0601
  376loPI   C1A 6007   0.805   0.840   8.901 -0.2747  0.1082  0.1718
  376loPI   C2A 6008   1.081   1.093   8.507 -0.1691 -0.0458  0.0099
  376loPI   C3A 6009   1.017   1.380   8.143  0.2446  0.0456 -0.2463
  376loPI   C4A 6010   0.954   1.754   7.921 -0.1610  0.1408  0.0773
  376loPI   C5A 6011   0.800   1.691   7.594 -0.2207  0.3796  0.1343
  376loPI   C6A 6012   0.565   1.738   7.283 -0.0703 -0.1363  0.1449
  376loPI   C1B 6013   1.309   0.802   8.930  0.1888 -0.2045  0.0013
  376loPI   C2B 6014   1.386   0.558   8.533 -0.3691 -0.0700  0.0667
  376loPI   C3B 6015   1.319   0.531   8.060  0.0009  0.1388  0.0535
  376loPI   C4B 6016   1.402   0.521   7.714  0.0758 -0.0185  0.1394
  377loPI    C1 6017   4.187   9.177  10.247 -0.0894 -0.2096  0.0786
  377loPI    C2 6018   3.995   8.994   9.948 -0.0530 -0.3635  0.1487
  377loPI    C3 6019   4.391   8.953   9.986 -0.0080 -0.0717  0.0224
  377loPI   PO4 6020   4.070   9.443  10.245  0.0793  0.1906 -0.0974
  377loPI   GL1 6021   3.870   9.774   9.949  0.1004  0.4082 -0.0822
  377loPI   GL2 6022   3.800   9.512   9.819  0.0776  0.1097 -0.0941
  377loPI   C1A 6023   3.729  10.064   9.620 -0.0683  0.1884  0.1187
  377loPI   C2A 6024   3.811  10.076   9.127 -0.1519 -0.0984 -0.3102
  377loPI   C3A 6025   3.655   9.995   8.646  0.0371 -0.1174  0.3034
  377loPI   C4A 6026   3.388   9.955   8.308 -0.1438 -0.0703 -0.2664
  377loPI   C5A 6027   3.141   9.541   8.134 -0.0810 -0.1838  0.0202
  377loPI   C6A 6028   2.878   9.730   7.873 -0.1005 -0.2203 -0.3745
  377loPI   C1B 6029   3.778   9.072   9.563 -0.1836  0.0918  0.2134
  377loPI   C2B 6030   3.974   8.837   9.182  0.0215 -0.0940 -0.2241
  377loPI   C3B 6031   4.037   8.797   8.781  0.0348 -0.0651  0.0597
  377loPI   C4B 6032   4.080   8.939   8.444 -0.0129 -0.1238 -0.0459
  378loPI    C1 6033  17.264  15.853  10.023  0.1139  0.0110 -0.1500
  378loPI    C2 6034  16.996  16.108   9.869 -0.0179  0.0555  0.1458
  378loPI    C3 6035  16.947  15.966  10.240  0.2649 -0.0927  0.1292
  378loPI   PO4 6036  17.252  15.651   9.773  0.1678  0.3364 -0.0357
  378loPI   GL1 6037  17.252  15.672   9.430 -0.0987 -0.1088  0.0674
  378loPI   GL2 6038  17.339  15.243   9.229  0.1746 -0.4635 -0.2523
  378loPI   C1A 6039  17.475  15.895   9.122  0.0915  0.0709 -0.0190
  378loPI   C2A 6040  17.604  15.905   8.657  0.0943  0.3671 -0.1116
  378loPI   C3A 6041  17.583  15.867   8.262  0.0118 -0.2329  0.0242
  378loPI   C4A 6042  17.341  15.866   7.850  0.1446 -0.1358  0.0541
  378loPI   C5A 6043  17.216  16.087   7.504  0.1489 -0.1004  0.2780
  378loPI   C6A 6044  17.143  16.341   7.146  0.0571 -0.2541  0.0728
  378loPI   C1B 6045  17.294  15.507   8.821  0.0411  0.2395 -0.1206
  378loPI   C2B 6046  17.120  15.652   8.397 -0.4535  0.1504  0.0982
  378loPI   C3B 6047  17.036  15.535   8.067 -0.0304 -0.0784 -0.0397
  378loPI   C4B 6048  16.799  15.797   7.731 -0.1280  0.2902  0.0491
  379loPI    C1 6049   7.205   2.184  10.401 -0.1834 -0.2464 -0.0787
  379loPI    C2 6050   7.117   1.901  10.669 -0.0335  0.0467  0.2902
  379loPI    C3 6051   7.482   2.064  10.664 -0.0528  0.0865 -0.0594
  379loPI   PO4 6052   7.140   2.031  10.066  0.0460  0.1933  0.0519
  379loPI   GL1 6053   7.179   2.121   9.737  0.1200 -0.0800  0.0978
  379loPI   GL2 6054   7.147   1.902   9.413 -0.2378 -0.1877  0.1925
  379loPI   C1A 6055   7.157   2.400   9.340  0.2915  0.1343  0.1100
  379loPI   C2A 6056   7.351   2.300   8.919 -0.1238 -0.1143 -0.0510
  379loPI   C3A 6057   7.637   2.221   8.631  0.2573  0.0383 -0.2566
  379loPI   C4A 6058   7.768   2.079   8.195 -0.0704 -0.0965 -0.1192
  379loPI   C5A 6059   7.886   1.887   7.926  0.1473 -0.0018  0.1927
  379loPI   C6A 6060   7.954   1.700   7.514  0.5046  0.0365 -0.0289
  379loPI   C1B 6061   7.054   1.828   9.048 -0.0017 -0.0813 -0.0013
  379loPI   C2B 6062   7.000   2.004   8.641  0.0814 -0.0375  0.2872
  379loPI   C3B 6063   7.074   1.720   8.282 -0.1232  0.0224 -0.1290
  379loPI   C4B 6064   6.814   1.595   7.999  0.1652  0.4331  0.0455
  380loPI    C1 6065  10.058  12.882  10.403  0.1417 -0.0431 -0.2139
  380loPI    C2 6066  10.350  12.833  10.672  0.0162  0.2374 -0.0215
  380loPI    C3 6067  10.018  12.611  10.694  0.0687  0.1572 -0.0349
  380loPI   PO4 6068  10.196  12.923  10.189 -0.0079  0.0871  0.0006
  380loPI   GL1 6069  10.016  12.971   9.767  0.1461 -0.2571  0.0126
  380loPI   GL2 6070  10.024  12.739   9.508 -0.4875  0.1584  0.2265
  380loPI   C1A 6071   9.615  13.036   9.443 -0.2475  0.0059  0.0781
  380loPI   C2A 6072   9.531  12.893   9.109  0.0169  0.3664 -0.1287
  380loPI   C3A 6073   9.755  12.655   8.928  0.2639  0.1830 -0.3287
  380loPI   C4A 6074   9.930  12.716   8.511 -0.1329  0.0186  0.2425
  380loPI   C5A 6075   9.869  12.843   8.084 -0.1184  0.1208  0.2021
  380loPI   C6A 6076   9.850  12.893   7.684  0.2794  0.0253 -0.0648
  380loPI   C1B 6077  10.233  12.766   9.177  0.0772 -0.0210 -0.0204
  380loPI   C2B 6078  10.368  12.859   8.790 -0.0358  0.0775  0.1519
  380loPI   C3B 6079  10.424  12.752   8.316  0.0471 -0.1923  0.1942
  380loPI   C4B 6080  10.291  12.630   7.904 -0.1221 -0.1239  0.1428
  381loPI    C1 6081   0.407   6.721   9.733  0.1673 -0.0943  0.0791
  381loPI    C2 6082   0.523   6.424   9.973  0.0307 -0.1112  0.1253
  381loPI    C3 6083   0.137   6.525   9.953  0.0882  0.1238  0.1790
  381loPI   PO4 6084   0.498   6.629   9.475 -0.0345 -0.0074  0.0105
  381loPI   GL1 6085   0.374   6.445   9.145 -0.0169  0.1833  0.0052
  381loPI   GL2 6086   0.521   6.069   9.141  0.1438 -0.1128 -0.2907
  381loPI   C1A 6087   0.460   6.555   8.704  0.2253  0.0344  0.0616
  381loPI   C2A 6088   0.619   6.387   8.417 -0.3074 -0.0266 -0.1654
  381loPI   C3A 6089   0.630   6.451   8.017 -0.1107 -0.1470  0.2680
  381loPI   C4A 6090   0.806   6.339   7.618  0.1503  0.0457 -0.2054
  381loPI   C5A 6091   0.587   6.101   7.391  0.2236  0.1632  0.2093
  381loPI   C6A 6092   0.407   5.947   6.957  0.2140 -0.2258  0.0780
  381loPI   C1B 6093   0.309   6.055   8.815  0.1233  0.3011  0.4605
  381loPI   C2B 6094   0.203   6.122   8.391  0.0459  0.2148 -0.2466
  381loPI   C3B 6095   0.143   6.004   7.920 -0.0767 -0.3416 -0.1108
  381loPI   C4B 6096  -0.207   5.856   7.647 -0.1365  0.0552  0.0789
  382loPI    C1 6097  12.358  16.254  10.580  0.2161 -0.0917  0.0635
  382loPI    C2 6098  12.094  16.523  10.711  0.1264 -0.1303 -0.0362
  382loPI    C3 6099  12.247  16.254  10.964  0.0330 -0.1390  0.0117
  382loPI   PO4 6100  12.195  16.055  10.352  0.0428 -0.1248 -0.0569
  382loPI   GL1 6101  12.272  15.800  10.051  0.0143  0.1241 -0.0797
  382loPI   GL2 6102  12.133  15.561   9.977 -0.1280  0.2088 -0.0932
  382loPI   C1A 6103  12.586  15.883   9.644 -0.0350  0.4443 -0.0020
  382loPI   C2A 6104  12.582  16.035   9.233 -0.2882  0.1828 -0.0204
  382loPI   C3A 6105  12.569  16.380   8.805  0.0858 -0.0725  0.1366
  382loPI   C4A 6106  12.527  16.289   8.403  0.4265  0.0226  0.0585
  382loPI   C5A 6107  12.206  16.032   8.235 -0.1256  0.4147 -0.2528
  382loPI   C6A 6108  12.190  15.661   8.003  0.0868  0.0013 -0.0635
  382loPI   C1B 6109  12.167  15.237   9.556 -0.2509 -0.0162 -0.1815
  382loPI   C2B 6110  12.440  14.899   9.382 -0.3515 -0.1888  0.1876
  382loPI   C3B 6111  12.836  15.001   9.516 -0.3291  0.1503 -0.0274
  382loPI   C4B 6112  13.138  15.164   9.206 -0.1904 -0.0912  0.1003
  383loPI    C1 6113  10.702   6.523  10.409  0.1969 -0.1710 -0.0232
  383loPI    C2 6114  10.456   6.255  10.576  0.0499 -0.0308 -0.0125
  383loPI    C3 6115  10.370   6.645  10.596  0.1947  0.0085 -0.1428
  383loPI   PO4 6116  10.818   6.442  10.141  0.1948 -0.0139  0.3160
  383loPI   GL1 6117  10.967   6.137   9.827 -0.2287  0.4934 -0.0450
  383loPI   GL2 6118  11.012   5.828   9.755 -0.0845  0.0251  0.2575
  383loPI   C1A 6119  11.165   6.287   9.446  0.1555  0.2583  0.0595
  383loPI   C2A 6120  11.274   6.430   8.978  0.1394 -0.0470 -0.0441
  383loPI   C3A 6121  11.260   6.511   8.553  0.1076  0.1018  0.0148
  383loPI   C4A 6122  11.244   6.446   8.188  0.1489  0.1509  0.0288
  383loPI   C5A 6123  11.019   6.554   7.815  0.3249  0.0690  0.1299
  383loPI   C6A 6124  10.615   6.761   7.680 -0.0806  0.0737  0.0998
  383loPI   C1B 6125  11.045   5.832   9.351  0.1579 -0.1007  0.1626
  383loPI   C2B 6126  11.047   5.959   8.978 -0.2166  0.1245 -0.0879
  383loPI   C3B 6127  10.958   5.964   8.592  0.0905  0.0189  0.1521
  383loPI   C4B 6128  10.780   6.230   8.241  0.1174  0.0367  0.0305
  384loPI    C1 6129  16.615   6.535  10.046  0.0930 -0.0790 -0.1845
  384loPI    C2 6130  16.942   6.764  10.020  0.1237 -0.0774  0.1605
  384loPI    C3 6131  16.616   6.901  10.207 -0.0374 -0.1235 -0.0809
  384loPI   PO4 6132  16.510   6.471   9.785 -0.2389 -0.1882 -0.2601
  384loPI   GL1 6133  16.438   6.481   9.347  0.1122 -0.0483 -0.2035
  384loPI   GL2 6134  16.174   6.655   9.349 -0.3542  0.2698 -0.5110
  384loPI   C1A 6135  16.642   6.553   8.911 -0.1104  0.2663  0.4362
  384loPI   C2A 6136  16.526   6.453   8.450 -0.1142  0.4418 -0.0562
  384loPI   C3A 6137  16.670   6.563   7.986 -0.0091 -0.1170  0.1826
  384loPI   C4A 6138  16.556   6.531   7.618 -0.0581  0.1749  0.0340
  384loPI   C5A 6139  16.288   6.370   7.318 -0.0593  0.0655 -0.0326
  384loPI   C6A 6140  15.862   6.375   7.307  0.0399  0.2499  0.0282
  384loPI   C1B 6141  16.114   6.378   9.037  0.0977  0.3637  0.2693
  384loPI   C2B 6142  16.079   6.486   8.600  0.4584  0.0192 -0.0252
  384loPI   C3B 6143  16.066   6.420   8.103 -0.1986 -0.0363 -0.0370
  384loPI   C4B 6144  16.080   6.246   7.741 -0.0793  0.0247  0.2256
  385loPI    C1 6145   2.205   9.344  10.613  0.1022  0.2540 -0.1838
  385loPI    C2 6146   2.053   9.661  10.804  0.2049  0.0301  0.2825
  385loPI    C3 6147   2.085   9.310  10.992  0.1256 -0.2538 -0.2157
  385loPI   PO4 6148   2.049   9.324  10.354  0.2941 -0.3794 -0.0023
  385loPI   GL1 6149   2.011   9.151   9.929  0.1772  0.1481  0.0659
  385loPI   GL2 6150   2.332   9.068   9.953  0.1411  0.1126 -0.3257
  385loPI   C1A 6151   1.922   9.178   9.433  0.0245 -0.0466 -0.1982
  385loPI   C2A 6152   1.924   9.116   8.989 -0.1678  0.0398 -0.3147
  385loPI   C3A 6153   1.991   9.037   8.574  0.4127  0.1131  0.0123
  385loPI   C4A 6154   2.187   9.071   8.135 -0.0963  0.4445  0.1818
  385loPI   C5A 6155   2.007   8.877   7.733 -0.0604 -0.2859 -0.0167
  385loPI   C6A 6156   1.932   9.068   7.354 -0.1142  0.3468  0.2450
  385loPI   C1B 6157   2.068   8.769   9.651  0.1513 -0.1056  0.2402
  385loPI   C2B 6158   2.012   8.699   9.226  0.2820 -0.1375 -0.3180
  385loPI   C3B 6159   1.924   8.555   8.791 -0.2563  0.0476  0.1261
  385loPI   C4B 6160   1.770   8.567   8.319  0.0463 -0.0211  0.0726
  386loPI    C1 6161   8.175   8.085   9.961 -0.2164  0.0753 -0.0047
  386loPI    C2 6162   8.359   8.083  10.316 -0.0845  0.1811 -0.0713
  386loPI    C3 6163   8.482   7.836  10.026 -0.0182  0.2833 -0.1306
  386loPI   PO4 6164   8.139   8.333   9.797  0.2237 -0.0032 -0.1394
  386loPI   GL1 6165   8.053   8.327   9.438 -0.0015  0.0940 -0.0473
  386loPI   GL2 6166   7.927   8.083   9.425  0.0301  0.2357 -0.2108
  386loPI   C1A 6167   8.021   8.322   8.914  0.0519  0.1055  0.3313
  386loPI   C2A 6168   7.794   8.385   8.427  0.0361 -0.0732 -0.1545
  386loPI   C3A 6169   7.679   8.397   8.003 -0.0488 -0.2104  0.2099
  386loPI   C4A 6170   7.670   8.626   7.684 -0.2491  0.0014 -0.1774
  386loPI   C5A 6171   7.446   8.720   7.406  0.0297 -0.1670 -0.2172
  386loPI   C6A 6172   7.280   8.695   6.981  0.1689 -0.0880 -0.0655
  386loPI   C1B 6173   7.751   7.959   9.086 -0.2806 -0.1178  0.2639
  386loPI   C2B 6174   7.500   8.014   8.718  0.2640 -0.1683 -0.2704
  386loPI   C3B 6175   7.299   8.177   8.409  0.1911  0.1805  0.0905
  386loPI   C4B 6176   7.198   8.217   7.989  0.1563  0.0986 -0.0031
  387loPI    C1 6177  14.937   6.639  10.196 -0.0029  0.2291 -0.0582
  387loPI    C2 6178  14.763   6.420  10.483 -0.1582  0.1603 -0.2029
  387loPI    C3 6179  14.793   6.817  10.524 -0.0163  0.1310 -0.0103
  387loPI   PO4 6180  14.821   6.697   9.979 -0.1170 -0.3544 -0.0835
  387loPI   GL1 6181  14.812   6.799   9.565 -0.2894 -0.2154  0.3361
  387loPI   GL2 6182  15.091   6.619   9.447 -0.0475 -0.4371 -0.2210
  387loPI   C1A 6183  14.689   6.721   9.148 -0.1280 -0.2162 -0.3108
  387loPI   C2A 6184  14.871   6.730   8.843  0.1349 -0.1414  0.1153
  387loPI   C3A 6185  15.129   6.652   8.522 -0.0601 -0.2036  0.0414
  387loPI   C4A 6186  15.251   6.817   8.153 -0.1936 -0.0823  0.2272
  387loPI   C5A 6187  15.078   7.199   7.932  0.3192 -0.0972 -0.0588
  387loPI   C6A 6188  15.385   7.490   7.584  0.0908  0.0991  0.1891
  387loPI   C1B 6189  15.186   6.962   9.201  0.0488 -0.0211 -0.2318
  387loPI   C2B 6190  15.179   7.193   8.824 -0.3351  0.0074 -0.0606
  387loPI   C3B 6191  15.345   7.303   8.434 -0.1072  0.1215  0.0674
  387loPI   C4B 6192  15.503   7.397   8.077 -0.0426  0.1733 -0.4072
  388loPI    C1 6193   6.643   4.819  10.321 -0.3229 -0.0991 -0.0430
  388loPI    C2 6194   6.838   4.488  10.209  0.0230  0.0988 -0.0400
  388loPI    C3 6195   6.582   4.475  10.517  0.0638 -0.1560 -0.0146
  388loPI   PO4 6196   6.720   4.955   9.970  0.0265  0.3864  0.0785
  388loPI   GL1 6197   6.512   5.182   9.451  0.0135 -0.0463 -0.5417
  388loPI   GL2 6198   6.891   5.094   9.552  0.0281 -0.0004  0.2162
  388loPI   C1A 6199   6.523   5.275   9.031  0.1949 -0.0761 -0.0101
  388loPI   C2A 6200   6.487   5.183   8.687 -0.0595  0.3693  0.1722
  388loPI   C3A 6201   6.610   5.174   8.283 -0.0435 -0.0746 -0.2365
  388loPI   C4A 6202   6.648   5.148   7.916 -0.2063  0.1032 -0.2883
  388loPI   C5A 6203   6.755   5.464   7.685 -0.0673 -0.0167  0.0047
  388loPI   C6A 6204   7.036   5.527   7.290 -0.0718  0.1470  0.0996
  388loPI   C1B 6205   6.964   5.048   9.038  0.3953  0.1263 -0.4120
  388loPI   C2B 6206   6.932   4.920   8.590  0.4294 -0.2036 -0.1616
  388loPI   C3B 6207   7.087   4.780   8.295 -0.0509  0.0369  0.2989
  388loPI   C4B 6208   7.229   4.688   7.852  0.3916 -0.2546 -0.0524
  389loPI    C1 6209  16.735  18.757   9.930  0.0654 -0.0663 -0.0607
  389loPI    C2 6210  17.118  18.772   9.817  0.0691  0.1178 -0.0263
  389loPI    C3 6211  17.013  18.893  10.183  0.0402 -0.3594  0.1291
  389loPI   PO4 6212  16.571  18.837   9.734  0.0387  0.1857  0.1393
  389loPI   GL1 6213  16.462  18.700   9.320  0.0909 -0.3068  0.0588
  389loPI   GL2 6214  16.134  18.722   9.382  0.1303 -0.0727  0.3055
  389loPI   C1A 6215  16.342  18.584   8.924 -0.0952  0.4907 -0.1685
  389loPI   C2A 6216  16.239  18.334   8.508  0.0086 -0.0434 -0.1593
  389loPI   C3A 6217  16.031  18.060   8.201 -0.1805 -0.2695 -0.0234
  389loPI   C4A 6218  15.599  18.035   8.012 -0.1416  0.1880  0.0140
  389loPI   C5A 6219  15.174  18.013   7.931 -0.0213 -0.4711  0.2052
  389loPI   C6A 6220  14.864  17.872   7.647 -0.0140  0.0989 -0.0578
  389loPI   C1B 6221  15.834  18.635   9.048  0.0555  0.3249 -0.3546
  389loPI   C2B 6222  15.763  18.496   8.645  0.0931  0.3100 -0.1071
  389loPI   C3B 6223  15.811  18.479   8.239 -0.0711 -0.4275  0.0553
  389loPI   C4B 6224  15.431  18.488   8.027  0.1944 -0.0538  0.0048
  390loPI    C1 6225  13.797   1.313  10.021  0.0348 -0.1784 -0.0930
  390loPI    C2 6226  13.631   1.497  10.335 -0.2165 -0.1716 -0.2271
  390loPI    C3 6227  14.002   1.352  10.361 -0.1128  0.1196 -0.0344
  390loPI   PO4 6228  13.737   1.449   9.746 -0.1598 -0.1570  0.0354
  390loPI   GL1 6229  13.694   1.753   9.348  0.2432  0.1731 -0.1429
  390loPI   GL2 6230  13.922   1.955   9.391 -0.0792 -0.1614 -0.0203
  390loPI   C1A 6231  13.598   1.588   9.013 -0.2756 -0.2288  0.3279
  390loPI   C2A 6232  13.795   1.588   8.641  0.0193 -0.0445  0.0059
  390loPI   C3A 6233  14.179   1.426   8.457 -0.1148 -0.0532 -0.0312
  390loPI   C4A 6234  14.270   1.080   8.104 -0.0420  0.2974 -0.0377
  390loPI   C5A 6235  14.437   0.710   7.879  0.0305 -0.0812  0.1649
  390loPI   C6A 6236  14.749   0.848   7.661 -0.0425 -0.0778  0.0587
  390loPI   C1B 6237  14.039   1.910   8.972 -0.3032 -0.0833  0.1555
  390loPI   C2B 6238  14.071   1.981   8.541 -0.1727 -0.1092  0.1454
  390loPI   C3B 6239  14.117   2.077   8.204 -0.1923 -0.0037 -0.0999
  390loPI   C4B 6240  14.318   2.162   7.829  0.0975 -0.1558 -0.0170
  391loPI    C1 6241   1.056   4.324   9.682  0.2031 -0.1030  0.1476
  391loPI    C2 6242   0.960   4.189  10.046 -0.0295  0.0139  0.1315
  391loPI    C3 6243   1.190   4.514  10.008  0.0572 -0.0421  0.1729
  391loPI   PO4 6244   1.154   4.112   9.506  0.0041  0.1022  0.3680
  391loPI   GL1 6245   1.412   3.983   9.197  0.0923  0.1321 -0.1671
  391loPI   GL2 6246   1.705   4.038   9.288 -0.2108 -0.3630 -0.0377
  391loPI   C1A 6247   1.381   3.909   8.802 -0.1136 -0.0885  0.0296
  391loPI   C2A 6248   1.448   3.900   8.302 -0.1046 -0.0140 -0.1995
  391loPI   C3A 6249   1.752   3.958   8.083 -0.0454  0.1510  0.0975
  391loPI   C4A 6250   1.679   4.025   7.623  0.2248  0.2846 -0.0086
  391loPI   C5A 6251   1.397   4.084   7.329 -0.2938 -0.1789 -0.2040
  391loPI   C6A 6252   1.199   3.806   7.087  0.4432  0.2727  0.1381
  391loPI   C1B 6253   1.838   3.851   8.870 -0.0002  0.4188 -0.0721
  391loPI   C2B 6254   2.022   4.081   8.544  0.3293  0.0450 -0.1665
  391loPI   C3B 6255   2.274   4.403   8.371  0.0146 -0.1077  0.0299
  391loPI   C4B 6256   2.430   4.485   8.016 -0.1769 -0.0955  0.0219
  392loPI    C1 6257   5.367  12.205  10.449  0.5371  0.0824 -0.1418
  392loPI    C2 6258   5.645  12.351  10.697  0.3400 -0.1824  0.2477
  392loPI    C3 6259   5.331  12.154  10.844  0.0985 -0.1507 -0.2062
  392loPI   PO4 6260   5.388  12.353  10.213 -0.2323 -0.0379 -0.0500
  392loPI   GL1 6261   5.391  12.556   9.911  0.0279 -0.4577  0.1552
  392loPI   GL2 6262   5.270  12.208   9.801 -0.2922  0.1993 -0.0287
  392loPI   C1A 6263   5.537  12.847   9.597  0.1475 -0.0523 -0.0307
  392loPI   C2A 6264   5.317  12.905   9.357  0.1703 -0.0012  0.3332
  392loPI   C3A 6265   5.266  12.896   8.968  0.1747 -0.4886 -0.1820
  392loPI   C4A 6266   5.187  12.917   8.527 -0.2033 -0.1040 -0.3799
  392loPI   C5A 6267   5.278  12.774   8.154 -0.2195 -0.0606 -0.0818
  392loPI   C6A 6268   5.142  12.355   8.137  0.2025 -0.1778 -0.0387
  392loPI   C1B 6269   5.036  12.540   9.563  0.0108  0.1549  0.0436
  392loPI   C2B 6270   4.977  12.533   9.092  0.0358  0.0834 -0.0038
  392loPI   C3B 6271   4.876  12.625   8.691  0.2183  0.3418 -0.0841
  392loPI   C4B 6272   4.723  12.617   8.344  0.2301 -0.0058  0.1433
  393loPI    C1 6273  16.903   2.068  10.114  0.0296 -0.1006 -0.2615
  393loPI    C2 6274  17.290   2.162  10.072  0.0415 -0.0425 -0.0345
  393loPI    C3 6275  17.027   2.443  10.182 -0.0417 -0.1144 -0.0483
  393loPI   PO4 6276  16.935   1.849   9.907 -0.1690 -0.0503  0.1911
  393loPI   GL1 6277  16.635   1.593   9.538 -0.0231 -0.3139  0.3129
  393loPI   GL2 6278  16.659   1.876   9.426  0.0286 -0.2423  0.0581
  393loPI   C1A 6279  16.893   1.365   9.183  0.4366 -0.0717  0.1437
  393loPI   C2A 6280  16.894   1.406   8.871  0.2685  0.2205 -0.4076
  393loPI   C3A 6281  16.844   1.575   8.451  0.1907 -0.0038  0.0702
  393loPI   C4A 6282  16.844   1.819   8.172 -0.0928  0.2123 -0.0686
  393loPI   C5A 6283  16.572   2.170   8.018  0.0730  0.0747 -0.2141
  393loPI   C6A 6284  16.362   2.509   7.908 -0.3267 -0.2164 -0.0354
  393loPI   C1B 6285  16.868   1.915   8.987 -0.1685 -0.0421  0.2153
  393loPI   C2B 6286  16.795   2.111   8.662 -0.1726 -0.0502 -0.1134
  393loPI   C3B 6287  17.070   2.242   8.229 -0.1759 -0.4753 -0.2540
  393loPI   C4B 6288  17.100   2.147   7.852  0.1829  0.1250 -0.0082
  394loPI    C1 6289   5.853  17.210  10.281  0.0688  0.0857 -0.3407
  394loPI    C2 6290   5.862  17.519  10.027 -0.1429  0.1799 -0.2367
  394loPI    C3 6291   6.019  17.556  10.393 -0.0640  0.1254 -0.2646
  394loPI   PO4 6292   5.613  17.098  10.197 -0.0200 -0.1806  0.1570
  394loPI   GL1 6293   5.575  16.766   9.809 -0.2300  0.2816 -0.1490
  394loPI   GL2 6294   5.363  16.826   9.782  0.1619  0.4620  0.2490
  394loPI   C1A 6295   5.833  16.584   9.580 -0.0632  0.0918  0.0055
  394loPI   C2A 6296   5.831  16.597   9.138 -0.4089 -0.1893  0.1550
  394loPI   C3A 6297   5.893  16.593   8.713  0.2520  0.0760  0.2240
  394loPI   C4A 6298   5.828  16.672   8.262 -0.0437 -0.4022 -0.3305
  394loPI   C5A 6299   5.884  16.606   7.861 -0.1097  0.0963 -0.0386
  394loPI   C6A 6300   5.631  16.806   7.464 -0.3229 -0.1952 -0.2885
  394loPI   C1B 6301   5.319  16.834   9.281  0.0623 -0.2326 -0.3082
  394loPI   C2B 6302   5.483  16.884   8.855 -0.1188  0.1117  0.2207
  394loPI   C3B 6303   5.259  16.825   8.399  0.0562 -0.2825  0.0523
  394loPI   C4B 6304   5.351  16.798   7.950  0.1544  0.1968  0.1117
  395loPI    C1 6305   7.153  17.365  10.553 -0.1246 -0.0483  0.0125
  395loPI    C2 6306   7.279  17.014  10.698  0.0030  0.0421  0.1221
  395loPI    C3 6307   6.893  17.114  10.724 -0.0464 -0.1198  0.0273
  395loPI   PO4 6308   7.257  17.408  10.303 -0.0205 -0.0773 -0.0481
  395loPI   GL1 6309   7.249  17.336   9.960 -0.0136 -0.0074  0.0857
  395loPI   GL2 6310   7.038  17.501   9.880  0.2020  0.0003  0.1635
  395loPI   C1A 6311   7.222  17.070   9.591  0.0352 -0.0166 -0.1547
  395loPI   C2A 6312   7.120  17.050   9.218 -0.0206 -0.1279  0.3013
  395loPI   C3A 6313   7.164  17.002   8.817 -0.2657  0.0565  0.0182
  395loPI   C4A 6314   7.158  17.010   8.416 -0.0124 -0.1116  0.0707
  395loPI   C5A 6315   7.298  17.193   8.038 -0.2020 -0.0023 -0.0732
  395loPI   C6A 6316   7.106  17.145   7.595  0.2053  0.1037 -0.3625
  395loPI   C1B 6317   7.065  17.512   9.474 -0.0127 -0.0387  0.1652
  395loPI   C2B 6318   7.083  17.515   9.023  0.0044 -0.1896  0.1975
  395loPI   C3B 6319   7.096  17.522   8.560  0.1441  0.0680  0.1494
  395loPI   C4B 6320   7.180  17.627   8.115  0.0241  0.2521 -0.0148
  396loPI    C1 6321  16.588   8.293   9.991  0.2664  0.0711 -0.1756
  396loPI    C2 6322  16.886   8.068  10.132  0.0334 -0.1405 -0.0124
  396loPI    C3 6323  16.700   8.327  10.373  0.1450  0.0600 -0.1386
  396loPI   PO4 6324  16.603   8.338   9.695 -0.0069  0.2862  0.1191
  396loPI   GL1 6325  16.716   8.380   9.320 -0.0573 -0.0947 -0.1654
  396loPI   GL2 6326  16.787   8.035   9.172  0.1690 -0.0832  0.3239
  396loPI   C1A 6327  17.078   8.388   9.018 -0.1235  0.4746 -0.0019
  396loPI   C2A 6328  17.436   8.231   8.712  0.0377 -0.0594  0.1377
  396loPI   C3A 6329  17.559   8.204   8.279 -0.1526 -0.2261 -0.0984
  396loPI   C4A 6330  17.791   8.079   7.859 -0.4377  0.2087  0.1293
  396loPI   C5A 6331  18.218   8.052   7.697 -0.3583  0.1624  0.0535
  396loPI   C6A 6332  18.621   7.883   7.917 -0.0085  0.3581 -0.2312
  396loPI   C1B 6333  16.963   7.999   8.721 -0.2288  0.1047 -0.1879
  396loPI   C2B 6334  16.947   8.314   8.438  0.2334  0.3116  0.1511
  396loPI   C3B 6335  17.123   8.463   8.049  0.3350  0.0533 -0.0707
  396loPI   C4B 6336  17.018   8.578   7.633  0.2091  0.0145  0.0851
  397loPI    C1 6337  12.983   7.526   9.940  0.1348  0.4310  0.0830
  397loPI    C2 6338  12.847   7.340  10.267  0.0101  0.1263 -0.1380
  397loPI    C3 6339  12.607   7.585  10.063 -0.1350 -0.2114 -0.3820
  397loPI   PO4 6340  13.051   7.382   9.774  0.0725  0.2108  0.0844
  397loPI   GL1 6341  13.277   7.267   9.421  0.1165 -0.0423 -0.0759
  397loPI   GL2 6342  12.935   7.230   9.291  0.0274  0.3560  0.1012
  397loPI   C1A 6343  13.394   7.459   8.985  0.2888 -0.3040 -0.0033
  397loPI   C2A 6344  13.257   7.347   8.543 -0.1596 -0.1141 -0.1017
  397loPI   C3A 6345  13.496   7.086   8.248  0.0925  0.1732 -0.1395
  397loPI   C4A 6346  13.724   6.803   8.050 -0.1946 -0.0130 -0.3715
  397loPI   C5A 6347  13.903   6.575   7.676 -0.1540  0.1628 -0.2230
  397loPI   C6A 6348  13.771   6.391   7.309 -0.2169 -0.1480  0.0324
  397loPI   C1B 6349  13.102   6.969   8.925 -0.2350  0.1387 -0.3635
  397loPI   C2B 6350  13.141   6.880   8.609 -0.2271 -0.1390 -0.0985
  397loPI   C3B 6351  13.089   6.793   8.172  0.0770 -0.0576  0.1895
  397loPI   C4B 6352  12.887   6.641   7.864  0.0856 -0.2260  0.1292
  398loPI    C1 6353   7.053   0.626  10.305  0.1080 -0.0518  0.0238
  398loPI    C2 6354   6.773   0.788  10.541  0.1142  0.0365 -0.0290
  398loPI    C3 6355   6.940   0.438  10.639  0.1449  0.0918  0.1181
  398loPI   PO4 6356   6.998   0.783  10.025 -0.2130  0.3906 -0.4041
  398loPI   GL1 6357   6.857   0.711   9.556 -0.0418 -0.0478  0.4038
  398loPI   GL2 6358   6.921   0.899   9.404  0.0298  0.1485  0.2930
  398loPI   C1A 6359   7.267   0.521   9.232  0.0471  0.0913  0.1295
  398loPI   C2A 6360   7.552   0.389   8.868  0.0153 -0.0010 -0.1615
  398loPI   C3A 6361   7.830   0.187   8.545 -0.1166  0.0552 -0.1370
  398loPI   C4A 6362   8.094   0.111   8.260 -0.0215  0.1512 -0.0585
  398loPI   C5A 6363   8.504   0.186   8.101  0.2014  0.0328 -0.1477
  398loPI   C6A 6364   8.744   0.142   7.808 -0.0484 -0.1243  0.0404
  398loPI   C1B 6365   6.815   0.709   9.046  0.0649 -0.1547  0.1908
  398loPI   C2B 6366   7.138   0.675   8.770 -0.0561  0.1037 -0.2025
  398loPI   C3B 6367   7.213   0.791   8.358  0.2204 -0.0762  0.1140
  398loPI   C4B 6368   7.519   0.977   8.081 -0.1607 -0.0806  0.1154
  399loPI    C1 6369   8.232   1.902   9.828  0.1001  0.2286 -0.0757
  399loPI    C2 6370   8.448   1.837  10.158 -0.2320  0.2683  0.1541
  399loPI    C3 6371   8.632   1.901   9.809  0.1216 -0.1220  0.2597
  399loPI   PO4 6372   8.066   2.106   9.928  0.0105 -0.0081  0.0543
  399loPI   GL1 6373   7.922   2.368   9.630 -0.0310 -0.1138 -0.1670
  399loPI   GL2 6374   7.682   2.192   9.552  0.4690 -0.0747 -0.1941
  399loPI   C1A 6375   8.256   2.210   9.301 -0.2933  0.4165 -0.0062
  399loPI   C2A 6376   8.215   1.924   9.024  0.0181 -0.2065  0.1968
  399loPI   C3A 6377   8.417   1.859   8.672 -0.0772  0.0955  0.0556
  399loPI   C4A 6378   8.489   1.806   8.228 -0.1782 -0.4285  0.1879
  399loPI   C5A 6379   8.385   1.574   7.906  0.3555 -0.0135  0.2033
  399loPI   C6A 6380   8.185   1.304   7.578  0.3112 -0.0280 -0.1862
  399loPI   C1B 6381   7.796   2.304   9.124 -0.1328  0.0184 -0.2230
  399loPI   C2B 6382   8.092   2.355   8.777 -0.3747 -0.2479  0.0709
  399loPI   C3B 6383   8.258   2.268   8.379  0.1023  0.0252  0.4198
  399loPI   C4B 6384   8.121   2.309   7.955  0.1991  0.0514 -0.2438
  400loPI    C1 6385  10.742  18.751  10.591 -0.0081  0.0607 -0.1239
  400loPI    C2 6386  10.657  18.480  10.873  0.2346 -0.0443 -0.1497
  400loPI    C3 6387  10.489  18.842  10.888 -0.2517 -0.2588 -0.2277
  400loPI   PO4 6388  10.775  18.646  10.246  0.3077  0.0611  0.0220
  400loPI   GL1 6389  10.594  18.523   9.840  0.1925 -0.2160  0.0253
  400loPI   GL2 6390  10.451  18.213  10.074  0.0345 -0.1119  0.3046
  400loPI   C1A 6391  10.577  18.568   9.386 -0.0536  0.0633 -0.1949
  400loPI   C2A 6392  10.665  18.696   9.025 -0.1063 -0.0661  0.2496
  400loPI   C3A 6393  10.759  18.771   8.621  0.0574  0.1115 -0.0021
  400loPI   C4A 6394  10.887  18.579   8.213 -0.1349 -0.2510  0.2791
  400loPI   C5A 6395  10.546  18.777   7.917 -0.2554 -0.0141  0.1817
  400loPI   C6A 6396  10.173  18.986   7.943  0.0994 -0.0366  0.1435
  400loPI   C1B 6397  10.502  18.073   9.636  0.2709 -0.0291  0.0483
  400loPI   C2B 6398  10.098  17.894   9.382  0.1969 -0.2505 -0.0854
  400loPI   C3B 6399  10.024  17.782   8.993  0.0592 -0.0469  0.1468
  400loPI   C4B 6400  10.085  17.619   8.579 -0.1625  0.2300  0.1441
  401loPI    C1 6401  18.293  16.679  10.019 -0.0616  0.1997  0.1306
  401loPI    C2 6402  18.066  16.985   9.897 -0.0178  0.1893  0.0217
  401loPI    C3 6403  17.897  16.670  10.077 -0.0915  0.1753 -0.0720
  401loPI   PO4 6404  18.540  16.564   9.865  0.0415  0.0129 -0.1879
  401loPI   GL1 6405  18.633  16.418   9.438 -0.1035  0.3138 -0.2575
  401loPI   GL2 6406  18.430  16.161   9.456 -0.0305 -0.1019  0.4200
  401loPI   C1A 6407  18.788  16.432   9.053  0.0171  0.2822 -0.2585
  401loPI   C2A 6408  18.679  16.614   8.629 -0.0918 -0.2373 -0.1633
  401loPI   C3A 6409  18.676  16.547   8.081 -0.0903 -0.3103  0.0557
  401loPI   C4A 6410  18.456  16.400   7.689 -0.4706 -0.3878 -0.1249
  401loPI   C5A 6411  18.132  16.159   7.549 -0.1713  0.0361  0.1599
  401loPI   C6A 6412  17.712  16.016   7.517  0.1356 -0.1772  0.3138
  401loPI   C1B 6413  18.419  16.101   9.038 -0.0299  0.1194  0.2765
  401loPI   C2B 6414  18.465  16.176   8.632 -0.1438  0.0488  0.1249
  401loPI   C3B 6415  18.373  16.110   8.251 -0.3073 -0.2326  0.1327
  401loPI   C4B 6416  18.525  15.859   7.921 -0.0544 -0.0474  0.0342
  402loPI    C1 6417   9.405  10.748   9.736  0.1547 -0.0686 -0.0352
  402loPI    C2 6418   9.354  10.686  10.128 -0.1302 -0.0149 -0.0612
  402loPI    C3 6419   9.492  11.038   9.998 -0.1161 -0.0031 -0.0148
  402loPI   PO4 6420   9.225  10.603   9.593  0.1747  0.0106  0.1507
  402loPI   GL1 6421   9.250  10.323   9.248  0.0019 -0.1894  0.0948
  402loPI   GL2 6422   9.127  10.161   9.073  0.1229  0.0169  0.0532
  402loPI   C1A 6423   9.202  10.585   8.863 -0.2808  0.1203  0.0864
  402loPI   C2A 6424   9.306  10.619   8.456  0.3179 -0.1593  0.0406
  402loPI   C3A 6425   9.564  10.813   8.178  0.0807  0.0706  0.0350
  402loPI   C4A 6426   9.544  10.891   7.767  0.1064  0.3359  0.0319
  402loPI   C5A 6427   9.359  10.717   7.431  0.0480  0.3782 -0.1718
  402loPI   C6A 6428   9.368  10.243   7.284 -0.2595  0.0247  0.0602
  402loPI   C1B 6429   9.089  10.209   8.637 -0.0176  0.1618 -0.1412
  402loPI   C2B 6430   9.262  10.114   8.274  0.0178 -0.0356  0.1232
  402loPI   C3B 6431   9.569   9.874   8.032  0.1348 -0.0795  0.0046
  402loPI   C4B 6432   9.609   9.870   7.529 -0.1035 -0.0212 -0.1362
  403loPI    C1 6433   4.872  12.346  10.490  0.1088  0.3421 -0.1394
  403loPI    C2 6434   5.103  12.579  10.720  0.1160  0.1538  0.0473
  403loPI    C3 6435   4.807  12.365  10.884 -0.0208  0.1863 -0.1520
  403loPI   PO4 6436   4.829  12.410  10.195 -0.1740  0.0307  0.0717
  403loPI   GL1 6437   4.687  12.448   9.861 -0.1123  0.0300 -0.2403
  403loPI   GL2 6438   4.736  12.067   9.734 -0.0186  0.0433 -0.0701
  403loPI   C1A 6439   4.545  12.752   9.523 -0.1919  0.0228  0.0847
  403loPI   C2A 6440   4.419  12.826   9.067  0.3188  0.0363 -0.2691
  403loPI   C3A 6441   4.385  12.807   8.709 -0.4075 -0.1030 -0.1082
  403loPI   C4A 6442   4.280  12.778   8.281  0.4890  0.0386 -0.0836
  403loPI   C5A 6443   4.049  12.473   7.918 -0.2227 -0.0318 -0.0444
  403loPI   C6A 6444   4.185  12.055   7.750 -0.2841  0.0259 -0.3195
  403loPI   C1B 6445   4.605  12.219   9.418 -0.1482  0.1781 -0.0930
  403loPI   C2B 6446   4.529  12.378   9.009 -0.0073  0.2265 -0.0956
  403loPI   C3B 6447   4.445  12.191   8.620  0.0467 -0.2143  0.0635
  403loPI   C4B 6448   4.487  12.225   8.143  0.2173 -0.2453  0.0918
  404loPI    C1 6449   3.615  10.680  10.607  0.0598 -0.2113  0.0454
  404loPI    C2 6450   3.957  10.519  10.478  0.1146 -0.0217 -0.0484
  404loPI    C3 6451   3.964  10.845  10.709  0.0012 -0.0940  0.0577
  404loPI   PO4 6452   3.426  10.738  10.357 -0.1275 -0.2528  0.1121
  404loPI   GL1 6453   3.433  10.922   9.983 -0.2550 -0.1888  0.3839
  404loPI   GL2 6454   3.467  10.504   9.899  0.0284  0.1560  0.2364
  404loPI   C1A 6455   3.754  11.086   9.746 -0.1837  0.2319 -0.1040
  404loPI   C2A 6456   3.693  11.117   9.347 -0.0867  0.2231  0.0813
  404loPI   C3A 6457   3.564  11.212   8.921 -0.2496 -0.3894  0.3157
  404loPI   C4A 6458   3.594  11.205   8.449  0.1301 -0.0139  0.1663
  404loPI   C5A 6459   3.522  11.280   8.054 -0.1204  0.2254 -0.0649
  404loPI   C6A 6460   3.745  11.311   7.682  0.1285  0.0266  0.0421
  404loPI   C1B 6461   3.748  10.589   9.538  0.1444  0.0897  0.1749
  404loPI   C2B 6462   3.712  10.528   9.049  0.2188  0.4075  0.0149
  404loPI   C3B 6463   3.722  10.680   8.616 -0.1365 -0.2614 -0.1109
  404loPI   C4B 6464   3.625  10.788   8.090 -0.4312 -0.4232  0.0165
  405loPI    C1 6465  17.438   3.753   9.833  0.0494 -0.0261  0.0746
  405loPI    C2 6466  17.226   3.933  10.119  0.1181 -0.0629  0.1492
  405loPI    C3 6467  17.131   3.562  10.003 -0.1645  0.1016 -0.1619
  405loPI   PO4 6468  17.401   3.842   9.582  0.1761 -0.2079 -0.0456
  405loPI   GL1 6469  17.087   3.698   9.235  0.1504  0.0740 -0.0083
  405loPI   GL2 6470  17.494   3.866   9.110  0.0818  0.1829 -0.1764
  405loPI   C1A 6471  17.270   3.393   8.915  0.3737  0.2919 -0.0874
  405loPI   C2A 6472  17.291   3.471   8.476 -0.1902 -0.0001 -0.0477
  405loPI   C3A 6473  17.372   3.245   8.030  0.2792 -0.5802  0.0592
  405loPI   C4A 6474  17.513   3.319   7.625  0.1305 -0.1260 -0.0157
  405loPI   C5A 6475  17.416   2.972   7.336 -0.2157 -0.1190 -0.1311
  405loPI   C6A 6476  17.085   2.803   7.029  0.0594  0.0080 -0.1100
  405loPI   C1B 6477  17.214   3.916   8.741  0.0421  0.0208  0.4121
  405loPI   C2B 6478  16.903   3.813   8.543  0.0330 -0.2540 -0.3563
  405loPI   C3B 6479  16.946   3.624   8.106  0.7067  0.2641  0.3728
  405loPI   C4B 6480  17.070   3.690   7.802 -0.0660 -0.1381  0.3216
  406loPI    C1 6481  11.937  14.515  10.399  0.0343 -0.3037  0.0569
  406loPI    C2 6482  11.772  14.726  10.696  0.2647  0.0532 -0.0614
  406loPI    C3 6483  12.110  14.522  10.759  0.0472 -0.2808  0.0504
  406loPI   PO4 6484  11.924  14.730  10.126 -0.0871 -0.0397 -0.0164
  406loPI   GL1 6485  11.769  14.555   9.692  0.2643  0.0281 -0.1075
  406loPI   GL2 6486  11.648  14.340   9.584 -0.0732 -0.2485 -0.0277
  406loPI   C1A 6487  11.832  14.723   9.322 -0.0397 -0.3722 -0.1913
  406loPI   C2A 6488  11.873  14.664   8.883 -0.3377  0.1788 -0.3940
  406loPI   C3A 6489  11.782  14.581   8.480 -0.1272  0.0160 -0.2752
  406loPI   C4A 6490  11.771  14.806   8.106 -0.2012 -0.1894 -0.0230
  406loPI   C5A 6491  11.655  15.162   7.809  0.4663 -0.2076 -0.1419
  406loPI   C6A 6492  11.645  15.601   7.595 -0.1988 -0.1209 -0.0327
  406loPI   C1B 6493  11.434  14.408   9.155 -0.1119 -0.0812  0.2004
  406loPI   C2B 6494  11.312  14.441   8.723  0.0506  0.3852  0.3398
  406loPI   C3B 6495  11.316  14.520   8.288  0.1983 -0.5542  0.3458
  406loPI   C4B 6496  11.167  14.474   7.897  0.1655  0.2651  0.1169
  407loPI    C1 6497  11.189  18.923  10.545  0.0648 -0.0108 -0.0235
  407loPI    C2 6498  11.564  19.046  10.484  0.0966  0.0539  0.2851
  407loPI    C3 6499  11.460  18.888  10.837 -0.1457 -0.0455  0.1715
  407loPI   PO4 6500  11.069  19.081  10.445 -0.1947 -0.0444  0.0866
  407loPI   GL1 6501  10.792  19.102   9.991 -0.2675  0.0081 -0.2370
  407loPI   GL2 6502  11.013  19.244   9.998 -0.1490 -0.1135 -0.0246
  407loPI   C1A 6503  10.577  19.113   9.550  0.2601 -0.2020  0.0596
  407loPI   C2A 6504  10.602  19.147   9.284 -0.0560 -0.1986 -0.0079
  407loPI   C3A 6505  10.825  19.193   8.794  0.0135  0.1248 -0.1631
  407loPI   C4A 6506  10.845  19.211   8.325  0.2772 -0.1727 -0.2272
  407loPI   C5A 6507  11.194  19.230   7.993 -0.0144 -0.2453 -0.0142
  407loPI   C6A 6508  11.410  19.703   7.825  0.0079  0.1771  0.0888
  407loPI   C1B 6509  11.080  19.305   9.578  0.0321  0.0064 -0.2048
  407loPI   C2B 6510  11.131  19.365   9.185  0.0222 -0.0452  0.2122
  407loPI   C3B 6511  11.270  19.303   8.684  0.2908  0.2960  0.1088
  407loPI   C4B 6512  11.433  19.517   8.312  0.0083 -0.2169 -0.0288
  408loPI    C1 6513   3.802  17.882  10.533 -0.1973 -0.0951  0.3775
  408loPI    C2 6514   3.924  17.957  10.906 -0.0762 -0.0105  0.3217
  408loPI    C3 6515   3.601  18.143  10.761 -0.1526 -0.0806  0.4005
  408loPI   PO4 6516   3.945  17.882  10.284  0.1675 -0.0394 -0.0204
  408loPI   GL1 6517   4.319  17.872  10.055 -0.0700 -0.3021 -0.0384
  408loPI   GL2 6518   4.138  17.614   9.924  0.2050 -0.0741 -0.0954
  408loPI   C1A 6519   4.392  18.101   9.588 -0.0289 -0.1884 -0.1393
  408loPI   C2A 6520   4.378  17.868   9.167  0.4367  0.0140 -0.0258
  408loPI   C3A 6521   4.452  17.804   8.699  0.1104  0.1620 -0.0884
  408loPI   C4A 6522   4.411  17.796   8.230  0.4782  0.1471  0.0083
  408loPI   C5A 6523   4.224  17.809   7.889  0.1415 -0.0132  0.1142
  408loPI   C6A 6524   4.402  17.672   7.500  0.1081  0.1405  0.1173
  408loPI   C1B 6525   3.970  17.559   9.534 -0.0277  0.1091  0.0244
  408loPI   C2B 6526   3.937  17.418   9.115 -0.1795  0.0872 -0.3784
  408loPI   C3B 6527   3.986  17.403   8.644 -0.2714  0.1257 -0.0414
  408loPI   C4B 6528   3.998  17.542   8.261  0.0817 -0.3173 -0.2712
  409loPI    C1 6529   2.807   7.318  10.166  0.3218 -0.0720 -0.3679
  409loPI    C2 6530   2.927   7.164  10.515 -0.3622  0.0717 -0.0539
  409loPI    C3 6531   3.082   7.509  10.386 -0.0695 -0.0065  0.0800
  409loPI   PO4 6532   2.819   7.128  10.002  0.3191 -0.2565  0.2457
  409loPI   GL1 6533   2.905   7.120   9.531 -0.1250  0.1387 -0.3821
  409loPI   GL2 6534   2.522   7.175   9.366  0.2674  0.1514 -0.2404
  409loPI   C1A 6535   3.004   7.041   9.148  0.0997 -0.0150 -0.2341
  409loPI   C2A 6536   3.289   7.068   8.723 -0.0024  0.1271 -0.1561
  409loPI   C3A 6537   3.611   7.049   8.355 -0.0162 -0.3278 -0.2168
  409loPI   C4A 6538   3.761   6.783   7.950  0.0929 -0.0440 -0.1199
  409loPI   C5A 6539   3.617   6.430   7.901  0.2309 -0.0130 -0.2798
  409loPI   C6A 6540   3.424   6.070   7.899 -0.0704  0.2889  0.1080
  409loPI   C1B 6541   2.579   7.409   8.929  0.1352  0.2088 -0.0427
  409loPI   C2B 6542   2.830   7.397   8.584 -0.2200 -0.0750  0.2991
  409loPI   C3B 6543   2.734   7.409   8.173  0.1454  0.3880  0.0592
  409loPI   C4B 6544   2.396   7.069   7.987  0.2704  0.1919  0.0106
  410loPI    C1 6545  15.719  13.389   9.998 -0.0682  0.0519  0.0515
  410loPI    C2 6546  15.628  13.036   9.834  0.0844  0.0684 -0.0710
  410loPI    C3 6547  15.966  13.078  10.045 -0.0073  0.1027  0.0709
  410loPI   PO4 6548  15.693  13.548   9.742  0.1317 -0.1611 -0.0586
  410loPI   GL1 6549  15.630  13.721   9.345  0.1245 -0.0354  0.0123
  410loPI   GL2 6550  15.726  14.038   9.227  0.0651  0.0036  0.1242
  410loPI   C1A 6551  15.717  13.475   8.954 -0.0298  0.1657 -0.3535
  410loPI   C2A 6552  15.664  13.305   8.527  0.1032  0.0672 -0.0547
  410loPI   C3A 6553  15.533  13.080   8.168  0.0737 -0.1137 -0.0042
  410loPI   C4A 6554  15.346  13.055   7.717  0.2257 -0.1504  0.2047
  410loPI   C5A 6555  15.146  12.906   7.282 -0.2054  0.2085  0.0348
  410loPI   C6A 6556  14.786  12.893   6.964  0.0606 -0.1220 -0.1762
  410loPI   C1B 6557  15.824  14.118   8.810 -0.0795  0.0143 -0.2709
  410loPI   C2B 6558  15.744  13.880   8.463  0.0162 -0.0134 -0.0601
  410loPI   C3B 6559  15.720  13.825   7.982  0.1808 -0.1856  0.0626
  410loPI   C4B 6560  15.646  13.508   7.672 -0.0333  0.1635 -0.1749
  411loPI    C1 6561  18.417   0.970   9.804 -0.1351  0.1503 -0.1094
  411loPI    C2 6562  18.762   1.024   9.999 -0.2815 -0.1459  0.2454
  411loPI    C3 6563  18.701   0.689   9.789 -0.3121 -0.0432  0.0883
  411loPI   PO4 6564  18.398   1.126   9.646 -0.1866 -0.1966 -0.4420
  411loPI   GL1 6565  18.239   1.216   9.278  0.2240  0.0706  0.0367
  411loPI   GL2 6566  18.139   0.913   9.249 -0.1476  0.0046 -0.1388
  411loPI   C1A 6567  18.240   1.329   8.814 -0.3351 -0.0708  0.0697
  411loPI   C2A 6568  18.220   1.557   8.368 -0.3271  0.3050  0.1187
  411loPI   C3A 6569  18.089   1.529   7.917 -0.3167 -0.0714 -0.5289
  411loPI   C4A 6570  17.714   1.424   7.705  0.2127  0.2328  0.1941
  411loPI   C5A 6571  17.404   1.149   7.695  0.0076 -0.2356  0.2447
  411loPI   C6A 6572  17.182   0.839   7.964  0.0763  0.1519  0.2782
  411loPI   C1B 6573  18.199   0.716   8.875  0.1878  0.0074  0.2169
  411loPI   C2B 6574  18.329   0.528   8.469  0.0873 -0.2469  0.0113
  411loPI   C3B 6575  18.542   0.173   8.382 -0.3646 -0.2143  0.1558
  411loPI   C4B 6576  18.900   0.090   8.017  0.3277  0.1128 -0.0436
  412loPI    C1 6577   9.261   0.319  10.579  0.0779 -0.0142  0.1131
  412loPI    C2 6578   9.466   0.311  10.922  0.0622 -0.2597  0.1178
  412loPI    C3 6579   9.086   0.437  10.919  0.1546  0.0260  0.1388
  412loPI   PO4 6580   9.485   0.139  10.440 -0.1659 -0.1709 -0.4316
  412loPI   GL1 6581   9.442   0.090   9.977 -0.1446 -0.0667 -0.1863
  412loPI   GL2 6582   9.131   0.070  10.050  0.0208 -0.0765 -0.2334
  412loPI   C1A 6583   9.462   0.152   9.491  0.2525 -0.1082 -0.0855
  412loPI   C2A 6584   9.581   0.059   9.083  0.1968  0.0811  0.4086
  412loPI   C3A 6585   9.297  -0.109   8.770 -0.0891 -0.1629  0.0957
  412loPI   C4A 6586   9.429  -0.312   8.358  0.3397  0.0678  0.2081
  412loPI   C5A 6587   9.573  -0.177   7.914  0.0765  0.2222  0.0051
  412loPI   C6A 6588   9.659  -0.019   7.547  0.2269 -0.3936  0.2765
  412loPI   C1B 6589   8.956   0.279   9.606  0.0325  0.3052  0.1550
  412loPI   C2B 6590   8.970   0.126   9.105  0.3281 -0.1777 -0.1944
  412loPI   C3B 6591   8.798  -0.092   8.745  0.0712  0.0810  0.1203
  412loPI   C4B 6592   8.951  -0.384   8.440  0.0680 -0.1471 -0.1257
  413loPI    C1 6593  16.161  15.630  10.252 -0.1588  0.1189  0.1055
  413loPI    C2 6594  16.220  15.841  10.587  0.1250 -0.0137  0.1427
  413loPI    C3 6595  16.532  15.683  10.393 -0.0711 -0.2802  0.0376
  413loPI   PO4 6596  15.994  15.762  10.080  0.1334 -0.2322  0.0455
  413loPI   GL1 6597  15.970  15.964   9.744 -0.0965 -0.0546  0.1456
  413loPI   GL2 6598  16.206  15.831   9.595  0.0606  0.1327  0.0779
  413loPI   C1A 6599  15.846  15.992   9.278 -0.1004  0.0680  0.0911
  413loPI   C2A 6600  15.750  16.068   8.842 -0.2002  0.1923 -0.0748
  413loPI   C3A 6601  15.715  16.111   8.406 -0.2361 -0.1280 -0.0085
  413loPI   C4A 6602  15.909  16.158   8.005 -0.0193  0.2034  0.0094
  413loPI   C5A 6603  16.129  15.967   7.666  0.0546 -0.0578  0.0744
  413loPI   C6A 6604  16.380  15.699   7.521  0.2693 -0.0836 -0.0630
  413loPI   C1B 6605  16.345  15.745   9.160  0.1067  0.0118 -0.0126
  413loPI   C2B 6606  16.460  15.396   8.984 -0.1208  0.0602 -0.0831
  413loPI   C3B 6607  16.742  15.306   8.727  0.0855  0.0599 -0.0512
  413loPI   C4B 6608  16.734  15.063   8.320  0.0999 -0.2878 -0.1544
  414loPI    C1 6609  12.024   4.880  10.115 -0.1306 -0.1495 -0.2924
  414loPI    C2 6610  12.218   5.230  10.118 -0.2483 -0.0842 -0.1046
  414loPI    C3 6611  12.401   4.899  10.249 -0.2303 -0.0410 -0.0199
  414loPI   PO4 6612  11.955   4.828   9.903  0.0953  0.0950  0.4579
  414loPI   GL1 6613  12.001   4.906   9.470  0.0092 -0.1134  0.1508
  414loPI   GL2 6614  12.111   5.192   9.537 -0.0735  0.1787  0.1859
  414loPI   C1A 6615  11.976   4.728   9.067  0.1768  0.2721 -0.1209
  414loPI   C2A 6616  11.992   4.726   8.602 -0.0677 -0.1947 -0.0782
  414loPI   C3A 6617  11.889   4.650   8.203  0.0157  0.1525  0.1968
  414loPI   C4A 6618  12.115   4.695   7.874  0.0631  0.0961 -0.0795
  414loPI   C5A 6619  12.210   4.677   7.461 -0.0131  0.1241  0.1743
  414loPI   C6A 6620  12.124   4.494   7.127  0.0252  0.1539 -0.2347
  414loPI   C1B 6621  12.209   5.173   9.095 -0.2427 -0.3830  0.6219
  414loPI   C2B 6622  12.336   5.110   8.683 -0.2002  0.2688  0.0207
  414loPI   C3B 6623  12.246   5.114   8.231  0.0174 -0.1280  0.0386
  414loPI   C4B 6624  12.078   5.173   7.834  0.1700 -0.0431  0.3229
  415loPI    C1 6625  10.725   0.386  10.383 -0.1926 -0.1739  0.0040
  415loPI    C2 6626  10.924   0.417  10.729 -0.1342  0.0282 -0.0462
  415loPI    C3 6627  10.535   0.323  10.730 -0.1079 -0.0818  0.0675
  415loPI   PO4 6628  10.904   0.562  10.213 -0.1221  0.3405 -0.2639
  415loPI   GL1 6629  11.052   0.656   9.775  0.0905 -0.1604  0.2199
  415loPI   GL2 6630  11.315   0.547   9.863  0.0443  0.1304 -0.1825
  415loPI   C1A 6631  11.164   0.765   9.323  0.1945 -0.1992  0.2373
  415loPI   C2A 6632  11.225   0.661   8.845  0.1792  0.0108 -0.0733
  415loPI   C3A 6633  11.268   0.911   8.464  0.0890 -0.1154  0.1644
  415loPI   C4A 6634  11.058   1.040   8.033 -0.0882 -0.0750 -0.0580
  415loPI   C5A 6635  10.927   0.973   7.649 -0.3568  0.5637  0.2623
  415loPI   C6A 6636  10.649   1.098   7.315 -0.1710 -0.2993 -0.0027
  415loPI   C1B 6637  11.489   0.417   9.491 -0.0029 -0.1865  0.3950
  415loPI   C2B 6638  11.606   0.284   9.057 -0.1037  0.2219 -0.1481
  415loPI   C3B 6639  11.725   0.071   8.702 -0.0733 -0.1136  0.1314
  415loPI   C4B 6640  11.692  -0.056   8.353 -0.1990  0.2963 -0.0588
  416loPI    C1 6641   6.429   6.915   9.804  0.1404  0.1182  0.0753
  416loPI    C2 6642   6.354   7.232  10.037 -0.0954  0.0348  0.1150
  416loPI    C3 6643   6.499   6.895  10.197  0.0470  0.0840  0.0904
  416loPI   PO4 6644   6.526   7.016   9.635 -0.0484 -0.0132  0.0263
  416loPI   GL1 6645   6.564   6.833   9.268  0.2828 -0.0043  0.1484
  416loPI   GL2 6646   6.431   6.505   9.246  0.2075  0.0502 -0.1831
  416loPI   C1A 6647   6.761   6.948   8.844  0.2921 -0.2437  0.1829
  416loPI   C2A 6648   6.802   6.822   8.377 -0.0920  0.0745  0.0508
  416loPI   C3A 6649   6.626   6.829   8.037 -0.1736 -0.1926  0.0353
  416loPI   C4A 6650   6.752   6.925   7.665  0.2800  0.1038  0.2235
  416loPI   C5A 6651   6.822   6.774   7.362 -0.0350 -0.1621  0.1887
  416loPI   C6A 6652   6.932   6.443   7.137  0.0167 -0.0571 -0.0878
  416loPI   C1B 6653   6.623   6.474   8.843  0.1387  0.1011 -0.3023
  416loPI   C2B 6654   6.711   6.339   8.594  0.0971 -0.2432 -0.0650
  416loPI   C3B 6655   6.816   6.256   8.173 -0.0730  0.0807 -0.0672
  416loPI   C4B 6656   6.961   6.333   7.753 -0.0388  0.4172  0.1672
  417loPI    C1 6657  14.271   7.364  10.442 -0.1287  0.1025  0.0194
  417loPI    C2 6658  14.139   7.372  10.820  0.0062  0.1141  0.0669
  417loPI    C3 6659  14.404   7.644  10.695  0.0021  0.0781 -0.0215
  417loPI   PO4 6660  14.269   7.086  10.312  0.1155  0.1975  0.0158
  417loPI   GL1 6661  14.257   6.753   9.883  0.0708 -0.0414 -0.3483
  417loPI   GL2 6662  14.381   6.573   9.675 -0.3873 -0.0645 -0.1708
  417loPI   C1A 6663  14.116   6.904   9.502 -0.2088 -0.0731  0.3580
  417loPI   C2A 6664  14.215   6.792   9.162 -0.1063  0.1175  0.1945
  417loPI   C3A 6665  14.365   6.879   8.775  0.2541  0.4195  0.0081
  417loPI   C4A 6666  14.540   6.550   8.417 -0.2684 -0.0776 -0.3230
  417loPI   C5A 6667  14.730   6.259   8.122  0.1026 -0.3111 -0.0428
  417loPI   C6A 6668  15.109   6.189   7.863  0.0436 -0.1230 -0.0764
  417loPI   C1B 6669  14.426   6.337   9.266 -0.1901 -0.0511  0.0772
  417loPI   C2B 6670  14.514   6.281   8.853  0.0875 -0.0233 -0.1579
  417loPI   C3B 6671  14.854   6.231   8.653  0.2569 -0.1289 -0.0550
  417loPI   C4B 6672  15.209   6.161   8.409  0.1322 -0.2964 -0.2187
  418loPI    C1 6673   4.710   1.995   9.882  0.3009  0.1782 -0.2426
  418loPI    C2 6674   4.935   1.728  10.078 -0.0499 -0.0846 -0.1863
  418loPI    C3 6675   4.963   2.117  10.167  0.4157 -0.1044 -0.2194
  418loPI   PO4 6676   4.729   1.900   9.633  0.2028  0.0692  0.0374
  418loPI   GL1 6677   4.624   1.973   9.185  0.1141  0.0822  0.2652
  418loPI   GL2 6678   5.007   2.068   9.127  0.2042 -0.0261 -0.0426
  418loPI   C1A 6679   4.802   1.985   8.718 -0.0362 -0.2686 -0.0197
  418loPI   C2A 6680   4.793   2.094   8.190 -0.0262 -0.1633 -0.0037
  418loPI   C3A 6681   4.796   1.899   7.780  0.2404  0.1972  0.0731
  418loPI   C4A 6682   4.782   1.512   7.561 -0.3554  0.1510  0.0398
  418loPI   C5A 6683   4.947   1.101   7.299  0.0849  0.0911 -0.1037
  418loPI   C6A 6684   4.697   0.838   7.241 -0.1518  0.1178 -0.1747
  418loPI   C1B 6685   5.282   2.129   8.829 -0.1606 -0.1065 -0.0042
  418loPI   C2B 6686   5.275   1.865   8.434  0.0623  0.4470 -0.1822
  418loPI   C3B 6687   5.163   1.651   8.097 -0.0175 -0.4102 -0.2211
  418loPI   C4B 6688   4.974   1.345   8.032 -0.0761  0.3033  0.1730
  419loPI    C1 6689  11.215   7.829  10.263 -0.0119 -0.1821 -0.0669
  419loPI    C2 6690  11.547   7.662  10.412  0.1155 -0.0132 -0.1577
  419loPI    C3 6691  11.356   7.948  10.618  0.1520  0.0458 -0.2054
  419loPI   PO4 6692  11.217   7.769  10.039 -0.0194 -0.3323  0.0387
  419loPI   GL1 6693  11.531   7.540   9.754 -0.0635  0.2217 -0.1196
  419loPI   GL2 6694  11.332   7.733   9.582 -0.2350  0.0166 -0.2927
  419loPI   C1A 6695  11.699   7.567   9.360 -0.4323  0.2353 -0.1172
  419loPI   C2A 6696  11.755   7.567   8.938 -0.0181  0.1836  0.1673
  419loPI   C3A 6697  11.829   7.608   8.484 -0.2806 -0.0041  0.0172
  419loPI   C4A 6698  11.722   7.681   8.111 -0.0284  0.0069 -0.0363
  419loPI   C5A 6699  11.354   7.908   8.074 -0.0547  0.0350 -0.2218
  419loPI   C6A 6700  11.184   8.133   8.287  0.1260 -0.0902 -0.3124
  419loPI   C1B 6701  10.982   7.790   9.318 -0.0890 -0.0044  0.1488
  419loPI   C2B 6702  10.828   7.491   8.937  0.1290  0.2876 -0.1228
  419loPI   C3B 6703  10.742   7.288   8.508 -0.0079  0.0330  0.2586
  419loPI   C4B 6704  10.681   7.513   8.061 -0.1990 -0.0688 -0.1415
  420loPI    C1 6705   1.555  13.909  10.203  0.0585 -0.1591 -0.2141
  420loPI    C2 6706   1.292  13.714  10.431 -0.1754  0.3891  0.0029
  420loPI    C3 6707   1.646  13.821  10.583 -0.0266  0.1011 -0.1317
  420loPI   PO4 6708   1.469  13.707   9.940 -0.2131 -0.3030 -0.3077
  420loPI   GL1 6709   1.485  13.442   9.625  0.1389 -0.0963 -0.2646
  420loPI   GL2 6710   1.331  13.189   9.687 -0.4395 -0.5123 -0.1074
  420loPI   C1A 6711   1.646  13.584   9.205  0.2615 -0.2477 -0.0683
  420loPI   C2A 6712   1.628  13.660   8.842 -0.0689  0.1286  0.0607
  420loPI   C3A 6713   1.559  13.588   8.548 -0.1209  0.2221  0.1546
  420loPI   C4A 6714   1.628  13.718   8.108 -0.0690  0.3035  0.0548
  420loPI   C5A 6715   1.672  13.711   7.728 -0.2444 -0.0593 -0.2691
  420loPI   C6A 6716   1.960  13.546   7.433  0.1597  0.1185 -0.1434
  420loPI   C1B 6717   1.555  13.045   9.251  0.0545  0.1773  0.0816
  420loPI   C2B 6718   1.666  13.136   8.719 -0.4017  0.1775 -0.2492
  420loPI   C3B 6719   1.661  13.158   8.275 -0.0932  0.0520 -0.1907
  420loPI   C4B 6720   1.713  13.250   7.906 -0.2644  0.1546  0.0583
  421loPI    C1 6721   6.664  14.952  10.633  0.0200 -0.0915  0.0489
  421loPI    C2 6722   7.062  14.968  10.588  0.0148  0.3444  0.1140
  421loPI    C3 6723   6.895  15.071  10.937 -0.1631  0.2668  0.0534
  421loPI   PO4 6724   6.635  15.016  10.348  0.2323 -0.0506  0.0484
  421loPI   GL1 6725   6.623  15.092   9.994 -0.0799  0.1625  0.0997
  421loPI   GL2 6726   6.796  14.976   9.753  0.1110  0.3861 -0.3303
  421loPI   C1A 6727   6.448  15.271   9.670 -0.0480  0.1107 -0.0289
  421loPI   C2A 6728   6.372  15.366   9.276  0.0906 -0.2324  0.0811
  421loPI   C3A 6729   6.427  15.398   8.831 -0.0870 -0.0120  0.2083
  421loPI   C4A 6730   6.369  15.392   8.422  0.1085  0.0178 -0.4940
  421loPI   C5A 6731   6.424  15.342   8.012 -0.2057 -0.1733  0.1093
  421loPI   C6A 6732   6.237  15.489   7.592  0.1754 -0.0518 -0.0369
  421loPI   C1B 6733   6.930  15.110   9.400 -0.0188  0.0570 -0.0786
  421loPI   C2B 6734   6.797  15.214   9.035 -0.1463  0.1556  0.3261
  421loPI   C3B 6735   6.827  15.220   8.554 -0.2492 -0.2667 -0.0446
  421loPI   C4B 6736   6.859  15.083   8.177 -0.3546 -0.0388  0.0010
  422loPI    C1 6737   3.878   7.129  10.034  0.0385  0.0715 -0.2276
  422loPI    C2 6738   3.708   6.850  10.263 -0.2448  0.2555 -0.2089
  422loPI    C3 6739   4.104   6.906  10.277 -0.2164  0.0258 -0.0293
  422loPI   PO4 6740   3.739   7.182   9.826 -0.1344  0.2528  0.2130
  422loPI   GL1 6741   3.740   7.467   9.513 -0.2469 -0.0748  0.1655
  422loPI   GL2 6742   3.434   7.444   9.316  0.1333  0.2533 -0.1172
  422loPI   C1A 6743   3.999   7.407   9.189  0.0821 -0.3559 -0.2588
  422loPI   C2A 6744   4.195   7.387   8.833  0.3112  0.0128 -0.0813
  422loPI   C3A 6745   4.449   7.334   8.502  0.1220  0.0089 -0.1214
  422loPI   C4A 6746   4.625   7.671   8.311 -0.1935 -0.0800  0.0623
  422loPI   C5A 6747   4.703   7.762   7.878 -0.0252 -0.2500  0.0136
  422loPI   C6A 6748   4.945   7.905   7.524 -0.2673 -0.3274  0.0904
  422loPI   C1B 6749   3.638   7.413   8.827  0.1190 -0.0151 -0.0001
  422loPI   C2B 6750   3.867   7.500   8.397  0.0307  0.0403 -0.2708
  422loPI   C3B 6751   3.646   7.394   7.976 -0.0945 -0.2801  0.0654
  422loPI   C4B 6752   3.441   7.042   7.727 -0.0801  0.2031  0.1256
  423loPI    C1 6753  11.734   1.397  10.273 -0.1567  0.1785  0.1081
  423loPI    C2 6754  11.832   1.222  10.619 -0.0277  0.0100 -0.0119
  423loPI    C3 6755  12.075   1.495  10.457 -0.1360  0.1619  0.0786
  423loPI   PO4 6756  11.581   1.234  10.151  0.0268  0.0385  0.2423
  423loPI   GL1 6757  11.716   1.180   9.729  0.1539 -0.1079  0.0042
  423loPI   GL2 6758  11.624   0.908   9.512  0.0616 -0.3770 -0.0414
  423loPI   C1A 6759  11.786   1.521   9.368 -0.2093  0.3987  0.2789
  423loPI   C2A 6760  11.898   1.476   8.956  0.1617 -0.2626 -0.1203
  423loPI   C3A 6761  11.951   1.559   8.528  0.1477  0.1415  0.2399
  423loPI   C4A 6762  11.717   1.668   8.142  0.1097 -0.2428 -0.2579
  423loPI   C5A 6763  11.441   2.020   7.920  0.2794  0.0367 -0.2067
  423loPI   C6A 6764  11.219   2.311   7.794 -0.0703 -0.1566  0.0886
  423loPI   C1B 6765  11.746   0.778   9.091  0.2292  0.2948 -0.1775
  423loPI   C2B 6766  11.708   0.604   8.690 -0.3789  0.1434  0.1535
  423loPI   C3B 6767  11.804   0.710   8.378 -0.2434  0.0083 -0.2321
  423loPI   C4B 6768  12.057   0.806   7.990 -0.0799 -0.0986  0.3210
  424loPI    C1 6769  15.294  15.121  10.209 -0.0288 -0.2028  0.1809
  424loPI    C2 6770  15.160  15.249  10.564 -0.2146  0.1281 -0.0040
  424loPI    C3 6771  15.147  14.860  10.474  0.0317  0.0131  0.4322
  424loPI   PO4 6772  15.494  15.148  10.196 -0.0024 -0.0316 -0.1626
  424loPI   GL1 6773  15.566  15.188   9.734 -0.2832  0.0303  0.0435
  424loPI   GL2 6774  15.815  15.436   9.568  0.0996 -0.1697 -0.1353
  424loPI   C1A 6775  15.602  15.078   9.229 -0.0340 -0.0087  0.2311
  424loPI   C2A 6776  15.514  15.177   8.869 -0.0713 -0.1094 -0.1341
  424loPI   C3A 6777  15.639  15.401   8.512  0.4209  0.1286 -0.0481
  424loPI   C4A 6778  15.734  15.605   8.119 -0.0667  0.0808 -0.2064
  424loPI   C5A 6779  16.058  15.464   7.805 -0.0655 -0.3022 -0.0362
  424loPI   C6A 6780  16.479  15.388   7.950  0.1844 -0.2121 -0.4152
  424loPI   C1B 6781  16.080  15.233   9.279  0.1735 -0.0296 -0.0596
  424loPI   C2B 6782  15.998  15.171   8.844 -0.2766  0.0401 -0.0849
  424loPI   C3B 6783  16.279  14.917   8.552 -0.0904 -0.1350 -0.0226
  424loPI   C4B 6784  16.221  14.658   8.229 -0.0805  0.0009  0.2403
  425loPI    C1 6785   4.197   1.261  10.157 -0.2497  0.3002  0.0944
  425loPI    C2 6786   4.168   0.869  10.229  0.0126  0.2838  0.1221
  425loPI    C3 6787   3.910   1.124  10.399 -0.1448  0.1265  0.1222
  425loPI   PO4 6788   4.275   1.226   9.820  0.2146 -0.1519  0.1979
  425loPI   GL1 6789   4.552   0.924   9.637  0.3736  0.1496  0.1403
  425loPI   GL2 6790   4.939   0.932   9.729  0.7070 -0.0063 -0.1879
  425loPI   C1A 6791   4.403   0.930   9.242  0.2150 -0.1357  0.0462
  425loPI   C2A 6792   4.029   0.978   8.962 -0.1678  0.1255 -0.1070
  425loPI   C3A 6793   4.001   1.121   8.575  0.0929 -0.2809  0.0414
  425loPI   C4A 6794   4.106   1.349   8.299 -0.0194  0.0962  0.0840
  425loPI   C5A 6795   4.297   1.416   7.797 -0.4094 -0.2431 -0.0123
  425loPI   C6A 6796   4.329   1.160   7.398 -0.0563  0.0919 -0.1168
  425loPI   C1B 6797   4.919   0.850   9.372  0.2168 -0.2602 -0.0172
  425loPI   C2B 6798   4.783   0.643   8.946  0.1448  0.4591  0.1389
  425loPI   C3B 6799   4.538   0.541   8.492 -0.0712 -0.0913  0.0928
  425loPI   C4B 6800   4.610   0.515   8.022 -0.3304  0.0929 -0.1311
  426loPI    C1 6801  12.751   5.754  10.219 -0.2962  0.0367 -0.0050
  426loPI    C2 6802  12.948   6.064  10.377  0.1607 -0.1669 -0.1603
  426loPI    C3 6803  12.871   5.741  10.600  0.0288 -0.1005 -0.1089
  426loPI   PO4 6804  12.562   5.849  10.017 -0.4578  0.1659  0.1012
  426loPI   GL1 6805  12.550   5.990   9.594  0.0652 -0.2311 -0.0289
  426loPI   GL2 6806  12.675   6.293   9.383 -0.4821  0.2782 -0.1237
  426loPI   C1A 6807  12.465   5.760   9.118 -0.2152 -0.1249  0.2359
  426loPI   C2A 6808  12.391   5.535   8.805 -0.1115 -0.1642  0.4678
  426loPI   C3A 6809  12.524   5.568   8.373 -0.6711 -0.1411 -0.2271
  426loPI   C4A 6810  12.432   5.507   7.943  0.0114 -0.0555 -0.2234
  426loPI   C5A 6811  12.667   5.708   7.587 -0.0285  0.0623 -0.0525
  426loPI   C6A 6812  12.518   6.079   7.321  0.0692  0.1696  0.0329
  426loPI   C1B 6813  12.602   6.306   8.949  0.1411  0.1296 -0.1051
  426loPI   C2B 6814  12.491   6.013   8.671 -0.0035  0.0743  0.0115
  426loPI   C3B 6815  12.467   6.023   8.297  0.0417  0.4507  0.1222
  426loPI   C4B 6816  12.419   6.140   7.959 -0.1274  0.1232 -0.0726
  427loPI    C1 6817   7.314   1.548   9.972  0.0806 -0.0683 -0.0776
  427loPI    C2 6818   7.030   1.536  10.254 -0.0271 -0.1806 -0.1891
  427loPI    C3 6819   7.407   1.628  10.352 -0.1143  0.0356 -0.0506
  427loPI   PO4 6820   7.318   1.635   9.767  0.0179  0.2073 -0.0811
  427loPI   GL1 6821   7.233   1.405   9.439  0.2628 -0.1795 -0.3264
  427loPI   GL2 6822   7.569   1.303   9.470 -0.1876 -0.0591 -0.0868
  427loPI   C1A 6823   7.394   0.986   9.168  0.1041 -0.0212  0.0515
  427loPI   C2A 6824   7.643   0.880   8.857  0.1440  0.0085 -0.1114
  427loPI   C3A 6825   7.736   0.693   8.466 -0.0601 -0.0157  0.0786
  427loPI   C4A 6826   7.560   0.390   8.267 -0.0233 -0.0607 -0.3791
  427loPI   C5A 6827   7.457   0.500   7.812 -0.6057 -0.0992 -0.0776
  427loPI   C6A 6828   7.114   0.412   7.466  0.0889 -0.0098 -0.1876
  427loPI   C1B 6829   7.638   1.390   9.078 -0.1016  0.1736 -0.1637
  427loPI   C2B 6830   7.925   1.561   8.774  0.3466  0.0524 -0.0504
  427loPI   C3B 6831   8.037   1.643   8.300 -0.1315 -0.0254 -0.1400
  427loPI   C4B 6832   7.910   1.373   7.959 -0.2326 -0.3616  0.1234
  428loPI    C1 6833  17.884   0.863   9.727 -0.1491 -0.1457  0.0470
  428loPI    C2 6834  17.737   0.731  10.075 -0.0059 -0.1092  0.1219
  428loPI    C3 6835  17.979   1.050  10.068  0.1685 -0.2423  0.0147
  428loPI   PO4 6836  17.662   0.769   9.501 -0.0025 -0.2727  0.1299
  428loPI   GL1 6837  17.440   0.571   9.309 -0.0513  0.3121  0.1698
  428loPI   GL2 6838  17.479   0.279   9.348 -0.2562  0.0022  0.2268
  428loPI   C1A 6839  17.445   0.509   8.816 -0.1249  0.2634 -0.2562
  428loPI   C2A 6840  17.780   0.523   8.596 -0.0576 -0.0134  0.3233
  428loPI   C3A 6841  17.821   0.660   8.218 -0.3695  0.0087  0.0029
  428loPI   C4A 6842  17.929   0.532   7.812  0.1737  0.0288  0.0683
  428loPI   C5A 6843  18.262   0.692   7.665  0.0738  0.1036  0.1815
  428loPI   C6A 6844  18.710   0.748   7.562 -0.0569  0.1321 -0.2130
  428loPI   C1B 6845  17.660   0.021   8.983  0.1376  0.2069  0.0708
  428loPI   C2B 6846  17.496   0.010   8.575  0.0471  0.1297 -0.0089
  428loPI   C3B 6847  17.148   0.029   8.312 -0.1726  0.1125  0.3774
  428loPI   C4B 6848  16.988   0.295   8.029  0.2546  0.2237  0.0377
  429loPI    C1 6849  18.068   8.774  10.105 -0.0896 -0.0444  0.1008
  429loPI    C2 6850  18.380   8.641   9.893 -0.2280 -0.1279 -0.0534
  429loPI    C3 6851  18.251   8.434  10.211  0.0210  0.0318  0.1559
  429loPI   PO4 6852  18.063   9.030   9.923  0.2296  0.2851 -0.2042
  429loPI   GL1 6853  18.172   9.149   9.459  0.1422 -0.0220  0.0159
  429loPI   GL2 6854  18.458   9.126   9.673  0.0814 -0.4362 -0.0493
  429loPI   C1A 6855  17.798   9.050   9.102  0.1827 -0.2619  0.1082
  429loPI   C2A 6856  17.788   9.046   8.618  0.0026  0.0468 -0.0553
  429loPI   C3A 6857  17.901   9.182   8.202  0.0346  0.3578 -0.0072
  429loPI   C4A 6858  17.843   9.098   7.777 -0.0603  0.0716 -0.2120
  429loPI   C5A 6859  17.647   8.825   7.427 -0.0260  0.0517 -0.1683
  429loPI   C6A 6860  17.743   8.525   7.234  0.1023  0.1217  0.1711
  429loPI   C1B 6861  18.584   8.823   9.346 -0.0054 -0.0762 -0.0048
  429loPI   C2B 6862  18.704   8.761   8.870 -0.2287  0.0903  0.2588
  429loPI   C3B 6863  18.719   9.075   8.624 -0.0054  0.1392 -0.3170
  429loPI   C4B 6864  18.738   9.278   8.251 -0.0226 -0.0188 -0.1904
  430loPI    C1 6865   3.180   0.214   9.894 -0.2119  0.1985 -0.2924
  430loPI    C2 6866   3.160   0.525  10.145 -0.1975 -0.1809  0.1930
  430loPI    C3 6867   2.835   0.303  10.076 -0.0890 -0.3589  0.2464
  430loPI   PO4 6868   3.209   0.276   9.650  0.1696 -0.1405 -0.1409
  430loPI   GL1 6869   3.294   0.426   9.305 -0.0837 -0.0428  0.0428
  430loPI   GL2 6870   3.170   0.764   9.190  0.1346 -0.2711  0.0294
  430loPI   C1A 6871   3.536   0.176   8.973 -0.2313  0.0168 -0.5219
  430loPI   C2A 6872   3.759   0.117   8.632  0.1616  0.0893 -0.1138
  430loPI   C3A 6873   3.692   0.441   8.273  0.2269 -0.0503 -0.0070
  430loPI   C4A 6874   3.695   0.661   7.833  0.3224  0.1877 -0.0253
  430loPI   C5A 6875   3.239   0.800   7.575 -0.3775  0.2372 -0.1489
  430loPI   C6A 6876   2.889   0.802   7.281  0.0779  0.1300  0.2526
  430loPI   C1B 6877   3.523   0.791   8.967  0.0548 -0.3433 -0.0183
  430loPI   C2B 6878   3.575   0.848   8.544 -0.1138  0.1288 -0.0872
  430loPI   C3B 6879   3.290   0.783   8.128 -0.0127 -0.2266 -0.0987
  430loPI   C4B 6880   2.940   0.567   7.836  0.0802  0.2946  0.0668
  431loPI    C1 6881   6.451   5.894  10.000 -0.1976 -0.2147  0.1968
  431loPI    C2 6882   6.573   5.937  10.379  0.2311  0.0254  0.0394
  431loPI    C3 6883   6.192   6.010  10.282  0.0864 -0.1618  0.4423
  431loPI   PO4 6884   6.602   5.956   9.855 -0.0301  0.1022  0.1869
  431loPI   GL1 6885   6.505   5.923   9.439 -0.1480  0.0638  0.2778
  431loPI   GL2 6886   6.450   5.637   9.317 -0.0977  0.0357 -0.0625
  431loPI   C1A 6887   6.189   6.070   9.172  0.1640 -0.0303  0.2761
  431loPI   C2A 6888   6.178   6.033   8.617 -0.2671 -0.1042  0.5216
  431loPI   C3A 6889   6.378   6.143   8.153  0.0074 -0.2522  0.0371
  431loPI   C4A 6890   6.440   6.407   7.901 -0.0102 -0.1716 -0.0176
  431loPI   C5A 6891   6.492   6.550   7.569 -0.0044  0.0042 -0.0140
  431loPI   C6A 6892   6.263   6.880   7.259 -0.0786 -0.0903  0.1183
  431loPI   C1B 6893   6.201   5.670   8.933  0.4107 -0.0911  0.0814
  431loPI   C2B 6894   6.116   5.526   8.528 -0.0792  0.2573 -0.1778
  431loPI   C3B 6895   6.239   5.580   8.058 -0.1431 -0.0058  0.1298
  431loPI   C4B 6896   6.413   5.801   7.728  0.0920  0.0374 -0.3899
  432loPI    C1 6897  15.480   9.019   9.842  0.2804 -0.0337  0.0010
  432loPI    C2 6898  15.248   9.201  10.112  0.2991  0.0688 -0.0516
  432loPI    C3 6899  15.295   8.804  10.124 -0.1322  0.0059 -0.2310
  432loPI   PO4 6900  15.626   9.306   9.777  0.1806  0.2058 -0.1240
  432loPI   GL1 6901  15.494   9.426   9.354 -0.0591  0.0032 -0.0315
  432loPI   GL2 6902  15.767   9.395   9.300 -0.1559 -0.4147  0.0832
  432loPI   C1A 6903  15.132   9.292   9.056  0.1127  0.0353 -0.6353
  432loPI   C2A 6904  14.928   9.254   8.697 -0.0326 -0.2481  0.0259
  432loPI   C3A 6905  14.846   9.335   8.266  0.0290 -0.0908  0.1219
  432loPI   C4A 6906  14.848   8.989   7.982 -0.0735 -0.0775 -0.0153
  432loPI   C5A 6907  14.707   8.614   7.888 -0.3565 -0.0589 -0.2533
  432loPI   C6A 6908  14.577   8.647   7.430  0.0617 -0.0992  0.3302
  432loPI   C1B 6909  15.601   9.410   8.877 -0.2708  0.0066  0.2855
  432loPI   C2B 6910  15.393   9.516   8.495  0.1478 -0.0293 -0.0061
  432loPI   C3B 6911  15.334   9.422   8.045  0.0889 -0.1517 -0.0690
  432loPI   C4B 6912  14.892   9.515   7.726  0.3308  0.1591  0.1048
  433loPI    C1 6913   5.525  15.540  10.773 -0.0087  0.1950  0.1141
  433loPI    C2 6914   5.903  15.411  10.749 -0.0923 -0.0356  0.0005
  433loPI    C3 6915   5.822  15.761  10.924  0.2081  0.1753 -0.2691
  433loPI   PO4 6916   5.400  15.454  10.515 -0.0346 -0.0496  0.0480
  433loPI   GL1 6917   5.263  15.587  10.135  0.2818  0.2205  0.0406
  433loPI   GL2 6918   5.516  15.501  10.021 -0.0843 -0.0585 -0.0368
  433loPI   C1A 6919   5.081  15.471   9.741 -0.1902  0.0323 -0.2644
  433loPI   C2A 6920   5.174  15.563   9.428  0.3734  0.0784 -0.0479
  433loPI   C3A 6921   5.117  15.486   8.963  0.0890 -0.1875 -0.0510
  433loPI   C4A 6922   5.077  15.504   8.525  0.2238 -0.0588  0.2138
  433loPI   C5A 6923   5.067  15.381   8.123  0.0704  0.4111 -0.1399
  433loPI   C6A 6924   5.403  15.207   7.830  0.1626  0.1565  0.1320
  433loPI   C1B 6925   5.499  15.238   9.637 -0.0096 -0.2206  0.0548
  433loPI   C2B 6926   5.597  15.271   9.195  0.0434  0.0249 -0.2975
  433loPI   C3B 6927   5.570  15.259   8.786 -0.4246  0.1107 -0.0426
  433loPI   C4B 6928   5.525  15.331   8.370 -0.0136 -0.1335 -0.0482
  434loPI    C1 6929  10.306  11.935   9.897 -0.0290  0.4033 -0.1010
  434loPI    C2 6930  10.132  11.621   9.721  0.3546  0.1484 -0.0377
  434loPI    C3 6931   9.973  11.986   9.682 -0.0161 -0.0287 -0.2319
  434loPI   PO4 6932  10.620  11.818   9.776  0.0010  0.2921  0.0234
  434loPI   GL1 6933  10.908  12.005   9.600  0.0869 -0.1908 -0.0569
  434loPI   GL2 6934  10.890  12.298   9.707  0.0565  0.1249  0.3487
  434loPI   C1A 6935  10.908  11.956   9.087  0.1474  0.0702  0.1610
  434loPI   C2A 6936  10.863  11.882   8.720  0.0727 -0.0823  0.0840
  434loPI   C3A 6937  10.861  11.871   8.260  0.3406 -0.0083 -0.0361
  434loPI   C4A 6938  10.895  11.897   7.721  0.0517 -0.0014 -0.1397
  434loPI   C5A 6939  10.724  11.895   7.268  0.0272  0.2248 -0.1959
  434loPI   C6A 6940  10.797  11.790   6.844 -0.0156 -0.2587 -0.1482
  434loPI   C1B 6941  10.712  12.381   9.269  0.3161 -0.1774  0.0239
  434loPI   C2B 6942  10.578  12.405   8.773  0.0350  0.0543  0.1877
  434loPI   C3B 6943  10.738  12.323   8.421  0.0648  0.4177 -0.0179
  434loPI   C4B 6944  10.709  12.283   8.006  0.3287  0.0414  0.1485
  435loPI    C1 6945   8.171   7.084  10.132  0.0043 -0.1530  0.0046
  435loPI    C2 6946   7.920   6.997  10.431 -0.0108  0.0626  0.0561
  435loPI    C3 6947   7.778   7.139  10.085  0.0316  0.0960  0.0522
  435loPI   PO4 6948   8.400   6.860  10.082  0.2712 -0.1789 -0.1418
  435loPI   GL1 6949   8.366   6.669   9.769 -0.3865  0.2255  0.1793
  435loPI   GL2 6950   8.485   6.367   9.552 -0.0723 -0.1909  0.0266
  435loPI   C1A 6951   8.518   6.779   9.341 -0.1818  0.0988 -0.2688
  435loPI   C2A 6952   8.564   6.778   8.978 -0.2223  0.1666 -0.1985
  435loPI   C3A 6953   8.636   7.016   8.598  0.1557  0.1931  0.1188
  435loPI   C4A 6954   8.707   7.119   8.144  0.0467  0.0338  0.1646
  435loPI   C5A 6955   8.634   6.927   7.749  0.5747  0.3002 -0.0503
  435loPI   C6A 6956   8.571   6.579   7.488  0.0021  0.1009 -0.0623
  435loPI   C1B 6957   8.449   6.291   9.220  0.4200 -0.2548 -0.0458
  435loPI   C2B 6958   8.434   6.009   8.892  0.1940 -0.1221 -0.2354
  435loPI   C3B 6959   8.565   5.973   8.462  0.1370 -0.1575 -0.2927
  435loPI   C4B 6960   8.393   5.953   8.088  0.0081 -0.3185  0.1705
  436loPI    C1 6961  17.193  12.155  10.088 -0.1024 -0.0755  0.0994
  436loPI    C2 6962  16.985  12.442  10.273 -0.0868 -0.0046  0.0079
  436loPI    C3 6963  17.381  12.419  10.322 -0.0756  0.0461 -0.0575
  436loPI   PO4 6964  17.093  12.161   9.860  0.0736  0.0039 -0.0145
  436loPI   GL1 6965  17.151  12.158   9.419  0.2421 -0.0520  0.1902
  436loPI   GL2 6966  17.167  11.824   9.454  0.0204 -0.1402 -0.0232
  436loPI   C1A 6967  17.007  12.131   9.016  0.2123 -0.1304  0.2699
  436loPI   C2A 6968  16.802  12.386   8.645 -0.3729 -0.0628 -0.1471
  436loPI   C3A 6969  16.808  12.549   8.207 -0.1377 -0.1151 -0.1710
  436loPI   C4A 6970  16.705  12.806   7.826  0.1623  0.3561  0.1665
  436loPI   C5A 6971  16.359  13.055   7.582  0.0608  0.3286  0.0662
  436loPI   C6A 6972  16.047  13.368   7.334  0.1963  0.1266  0.1176
  436loPI   C1B 6973  17.127  11.664   9.116  0.1690  0.1623 -0.2503
  436loPI   C2B 6974  17.174  11.702   8.657  0.0353 -0.0934 -0.0267
  436loPI   C3B 6975  17.140  12.046   8.444  0.1295 -0.1613 -0.1372
  436loPI   C4B 6976  17.168  12.179   8.018  0.0341  0.0738  0.3187
  437loPI    C1 6977   7.398   2.677  10.534 -0.0152  0.0353 -0.0506
  437loPI    C2 6978   7.371   2.892  10.871  0.1103 -0.0958  0.0449
  437loPI    C3 6979   7.039   2.759  10.691  0.0477 -0.1335  0.1872
  437loPI   PO4 6980   7.626   2.830  10.320  0.0513 -0.1677 -0.4022
  437loPI   GL1 6981   7.638   2.921   9.807 -0.2947  0.1909 -0.0973
  437loPI   GL2 6982   7.317   3.001   9.616  0.0757 -0.3324 -0.2629
  437loPI   C1A 6983   7.589   2.685   9.448 -0.1324  0.1477 -0.1957
  437loPI   C2A 6984   7.587   2.743   8.963 -0.2811  0.1464 -0.0465
  437loPI   C3A 6985   7.455   2.744   8.522 -0.0080  0.1056 -0.0995
  437loPI   C4A 6986   7.239   2.750   8.181  0.0225  0.5431 -0.0348
  437loPI   C5A 6987   7.049   2.956   7.911 -0.3346 -0.0782 -0.0067
  437loPI   C6A 6988   6.961   3.339   7.689  0.0582  0.0106  0.3021
  437loPI   C1B 6989   7.258   3.071   9.168 -0.1427  0.1155 -0.0863
  437loPI   C2B 6990   7.279   3.121   8.779  0.1880  0.0737 -0.0702
  437loPI   C3B 6991   6.947   3.111   8.475  0.0876  0.1063  0.0513
  437loPI   C4B 6992   6.720   3.275   8.153 -0.0735  0.0594 -0.3163
  438loPI    C1 6993   3.058  14.023  10.546 -0.0423 -0.0905 -0.1790
  438loPI    C2 6994   2.915  14.396  10.564  0.2088  0.0098 -0.2089
  438loPI    C3 6995   3.164  14.264  10.848  0.2068 -0.0988 -0.2573
  438loPI   PO4 6996   3.098  14.006  10.251 -0.0916 -0.0043  0.1701
  438loPI   GL1 6997   2.861  14.123   9.875 -0.0372  0.0551 -0.1325
  438loPI   GL2 6998   2.996  14.434  10.052 -0.1663  0.3781  0.2003
  438loPI   C1A 6999   2.943  14.041   9.425 -0.1125 -0.1403 -0.0956
  438loPI   C2A 7000   2.953  13.941   8.894  0.1701  0.0966 -0.2121
  438loPI   C3A 7001   2.981  14.039   8.456  0.0942 -0.1757 -0.0934
  438loPI   C4A 7002   2.983  14.027   8.010 -0.0343  0.0677  0.4004
  438loPI   C5A 7003   2.670  14.108   7.713 -0.2583  0.0335  0.0171
  438loPI   C6A 7004   2.543  14.249   7.245  0.1689 -0.2116  0.1005
  438loPI   C1B 7005   3.374  14.353   9.708  0.3058 -0.1642 -0.2597
  438loPI   C2B 7006   3.369  14.264   9.214 -0.1229 -0.1533 -0.2806
  438loPI   C3B 7007   3.441  14.265   8.773 -0.1615  0.1520 -0.0383
  438loPI   C4B 7008   3.486  14.364   8.350  0.0310 -0.0938  0.0464
  439loPI    C1 7009   1.205  11.898  10.476 -0.1686  0.0151  0.2685
  439loPI    C2 7010   1.065  11.525  10.516  0.1545 -0.1338  0.0581
  439loPI    C3 7011   1.022  11.788  10.814 -0.4167 -0.2200  0.0629
  439loPI   PO4 7012   1.138  11.953  10.186  0.0246 -0.1378  0.1928
  439loPI   GL1 7013   1.041  11.944   9.799 -0.1041  0.1103 -0.1264
  439loPI   GL2 7014   1.304  11.708   9.684  0.3182 -0.0077 -0.0365
  439loPI   C1A 7015   0.799  12.031   9.339  0.1528 -0.1012 -0.2219
  439loPI   C2A 7016   0.909  12.070   8.994 -0.2267  0.0932  0.0155
  439loPI   C3A 7017   0.935  12.079   8.611  0.0618 -0.0701 -0.0172
  439loPI   C4A 7018   0.726  11.910   8.249  0.4063  0.0088 -0.0456
  439loPI   C5A 7019   0.732  11.700   7.805 -0.0085  0.0647  0.2090
  439loPI   C6A 7020   0.591  11.300   7.759 -0.0374  0.0896 -0.0419
  439loPI   C1B 7021   1.264  11.841   9.254  0.0610  0.1502  0.1450
  439loPI   C2B 7022   1.321  11.799   8.814  0.0330  0.0400 -0.1856
  439loPI   C3B 7023   1.363  11.766   8.447  0.3212  0.0522  0.2800
  439loPI   C4B 7024   1.173  11.697   8.105  0.2200  0.1445 -0.1506
  440loPI    C1 7025   5.460   1.962  10.017 -0.1920  0.0738  0.0742
  440loPI    C2 7026   5.457   2.166  10.361 -0.1466 -0.0062  0.1226
  440loPI    C3 7027   5.632   1.807  10.344 -0.0631  0.0398 -0.0089
  440loPI   PO4 7028   5.593   2.144   9.808  0.1911 -0.0838  0.0768
  440loPI   GL1 7029   5.522   2.095   9.332  0.0757 -0.1177  0.1567
  440loPI   GL2 7030   5.659   2.334   9.325 -0.2552 -0.0444 -0.0499
  440loPI   C1A 7031   5.334   1.732   9.132 -0.2453  0.0352 -0.0201
  440loPI   C2A 7032   5.081   1.580   8.826 -0.1266 -0.1179 -0.0444
  440loPI   C3A 7033   4.854   1.486   8.471 -0.0295 -0.3662  0.1048
  440loPI   C4A 7034   4.579   1.636   8.208  0.4510 -0.1834 -0.2880
  440loPI   C5A 7035   4.241   1.893   7.963  0.5018  0.0095 -0.2971
  440loPI   C6A 7036   3.850   1.799   7.714  0.0901  0.1187 -0.4666
  440loPI   C1B 7037   5.834   2.334   8.881 -0.1486  0.0126  0.0887
  440loPI   C2B 7038   5.658   2.223   8.478  0.1192 -0.0078 -0.2392
  440loPI   C3B 7039   5.808   2.219   8.122  0.0231  0.1297 -0.1243
  440loPI   C4B 7040   5.967   2.058   7.741 -0.1129  0.0566  0.0139
  441loPI    C1 7041   1.438   2.363   9.933 -0.1064  0.1145  0.1284
  441loPI    C2 7042   1.771   2.430  10.144 -0.1789 -0.2194  0.3582
  441loPI    C3 7043   1.698   2.066   9.996 -0.3090 -0.0791  0.0671
  441loPI   PO4 7044   1.507   2.653   9.722  0.3234  0.0159  0.2686
  441loPI   GL1 7045   1.624   2.869   9.375  0.2334  0.0344 -0.1941
  441loPI   GL2 7046   1.867   2.641   9.297  0.2515 -0.0848  0.1100
  441loPI   C1A 7047   1.504   2.876   8.973  0.1566  0.0063  0.5244
  441loPI   C2A 7048   1.411   2.733   8.585  0.0822 -0.0194  0.3439
  441loPI   C3A 7049   1.422   2.644   8.118 -0.2000  0.0902 -0.0543
  441loPI   C4A 7050   1.436   2.612   7.618 -0.1262  0.0122  0.4829
  441loPI   C5A 7051   1.359   2.421   7.342 -0.1637 -0.2262  0.0649
  441loPI   C6A 7052   1.819   2.324   7.004 -0.1125 -0.0714 -0.0842
  441loPI   C1B 7053   1.798   2.397   8.858 -0.1590 -0.0664 -0.2439
  441loPI   C2B 7054   1.606   2.300   8.477  0.1431  0.2798  0.1744
  441loPI   C3B 7055   1.249   2.223   8.274  0.3196 -0.4190 -0.0856
  441loPI   C4B 7056   0.840   2.166   8.224  0.1763  0.1970 -0.0995
  442loPI    C1 7057   6.915  12.845  10.020 -0.1268  0.2850 -0.1004
  442loPI    C2 7058   6.628  12.938  10.282 -0.0900  0.1106  0.0030
  442loPI    C3 7059   6.940  13.183  10.233 -0.1416  0.1879  0.0569
  442loPI   PO4 7060   6.697  12.733   9.738 -0.0478  0.1838 -0.2156
  442loPI   GL1 7061   6.417  12.776   9.451 -0.2206 -0.2332  0.4525
  442loPI   GL2 7062   6.536  13.057   9.314  0.3908  0.2054 -0.3701
  442loPI   C1A 7063   6.009  12.726   9.295  0.1103  0.0871 -0.0098
  442loPI   C2A 7064   5.779  12.583   8.978  0.4828 -0.1375 -0.0914
  442loPI   C3A 7065   5.896  12.232   8.681  0.3734 -0.0625  0.3545
  442loPI   C4A 7066   5.943  11.989   8.323 -0.2749 -0.1702 -0.1956
  442loPI   C5A 7067   5.769  11.762   8.009 -0.1291 -0.0200 -0.1505
  442loPI   C6A 7068   5.581  11.768   7.613 -0.0265  0.1951  0.1338
  442loPI   C1B 7069   6.491  12.695   8.956 -0.2366 -0.3511 -0.0262
  442loPI   C2B 7070   6.310  12.551   8.592  0.0076 -0.1488  0.1089
  442loPI   C3B 7071   6.081  12.458   8.217  0.0411  0.2578 -0.2096
  442loPI   C4B 7072   5.826  12.606   7.819 -0.0149  0.2415 -0.1284
  443loPI    C1 7073  11.029   6.908  10.461  0.2307 -0.0597  0.2639
  443loPI    C2 7074  10.671   7.084  10.433  0.1914 -0.1909 -0.0987
  443loPI    C3 7075  10.820   6.991  10.792 -0.0058  0.1296  0.0705
  443loPI   PO4 7076  11.116   6.818  10.207  0.1142  0.1309  0.0110
  443loPI   GL1 7077  11.204   6.722   9.808  0.0342 -0.1218  0.2426
  443loPI   GL2 7078  11.149   7.083   9.793  0.0903  0.2809  0.2681
  443loPI   C1A 7079  10.971   6.790   9.405  0.0905 -0.0450 -0.2334
  443loPI   C2A 7080  10.796   6.877   9.002  0.0445 -0.0501  0.0591
  443loPI   C3A 7081  10.409   6.972   8.737  0.4842 -0.1612  0.1520
  443loPI   C4A 7082  10.103   7.181   8.443  0.0442 -0.0435 -0.0004
  443loPI   C5A 7083  10.179   7.322   8.048  0.2961 -0.3666 -0.0204
  443loPI   C6A 7084  10.367   7.233   7.697 -0.1921 -0.0589  0.0815
  443loPI   C1B 7085  11.056   7.304   9.505 -0.0477 -0.0695  0.1402
  443loPI   C2B 7086  11.292   7.350   9.068 -0.2570  0.0471 -0.2220
  443loPI   C3B 7087  11.306   7.492   8.601  0.3772 -0.2404 -0.3187
  443loPI   C4B 7088  11.247   7.396   8.176  0.2230 -0.1831 -0.2151
  444loPI    C1 7089   1.475  12.320  10.478  0.2636 -0.2217 -0.0957
  444loPI    C2 7090   1.850  12.300  10.340  0.3118 -0.1592  0.0244
  444loPI    C3 7091   1.780  12.429  10.712  0.1729 -0.2003  0.0134
  444loPI   PO4 7092   1.364  12.418  10.274  0.1810  0.1187  0.0489
  444loPI   GL1 7093   1.412  12.327   9.832 -0.2153  0.0796 -0.0862
  444loPI   GL2 7094   1.611  12.072   9.969  0.2725  0.1956 -0.3860
  444loPI   C1A 7095   1.213  12.288   9.426 -0.1759  0.0086  0.0149
  444loPI   C2A 7096   1.242  12.422   9.116  0.0018 -0.0436 -0.2227
  444loPI   C3A 7097   1.269  12.392   8.632 -0.0068 -0.0951 -0.3123
  444loPI   C4A 7098   1.141  12.254   8.181  0.0507  0.1271 -0.3549
  444loPI   C5A 7099   0.804  12.309   7.898  0.1629 -0.0238  0.0764
  444loPI   C6A 7100   0.395  12.177   7.670 -0.0370  0.0243 -0.0978
  444loPI   C1B 7101   1.690  12.074   9.496 -0.3136 -0.2648 -0.0601
  444loPI   C2B 7102   1.665  12.167   9.154  0.3564 -0.0151 -0.1489
  444loPI   C3B 7103   1.703  12.195   8.741 -0.1631  0.1133 -0.0927
  444loPI   C4B 7104   1.624  12.228   8.260 -0.0187  0.1784 -0.1005
  445loPI    C1 7105   6.603  17.907  10.175  0.1312  0.0822 -0.0964
  445loPI    C2 7106   6.857  17.720  10.421  0.0012 -0.1298 -0.1205
  445loPI    C3 7107   6.997  17.942  10.119  0.1591 -0.0113  0.0380
  445loPI   PO4 7108   6.435  17.675  10.147  0.2251  0.0169  0.0735
  445loPI   GL1 7109   6.501  17.456   9.756  0.2276 -0.2339  0.1364
  445loPI   GL2 7110   6.247  17.570   9.639  0.2221 -0.1269  0.1604
  445loPI   C1A 7111   6.700  17.192   9.416  0.4318 -0.1059 -0.4057
  445loPI   C2A 7112   6.666  17.242   9.018 -0.2250 -0.1141  0.0508
  445loPI   C3A 7113   6.692  17.220   8.519  0.0011 -0.1703  0.0928
  445loPI   C4A 7114   6.753  17.342   8.149 -0.2842 -0.1348  0.3834
  445loPI   C5A 7115   6.806  17.545   7.784  0.2067 -0.1125  0.0619
  445loPI   C6A 7116   6.898  17.590   7.422  0.2342 -0.1383 -0.1855
  445loPI   C1B 7117   6.181  17.433   9.281  0.0445 -0.0722 -0.0991
  445loPI   C2B 7118   6.225  17.469   8.841 -0.0932  0.1287  0.0270
  445loPI   C3B 7119   6.323  17.565   8.319  0.1534 -0.2067 -0.1547
  445loPI   C4B 7120   6.332  17.488   7.882 -0.0519 -0.1731  0.1123
  446loPI    C1 7121   1.491  15.463  10.424 -0.3368  0.2554  0.0073
  446loPI    C2 7122   1.469  15.861  10.459  0.0563  0.2869 -0.0645
  446loPI    C3 7123   1.579  15.638  10.772  0.0172  0.2507 -0.0764
  446loPI   PO4 7124   1.633  15.392  10.273  0.3407 -0.0138  0.0292
  446loPI   GL1 7125   1.965  15.100  10.040  0.3931 -0.0476 -0.0891
  446loPI   GL2 7126   1.861  14.862   9.982 -0.0304 -0.3161  0.1106
  446loPI   C1A 7127   2.269  15.226   9.860  0.0491 -0.1165 -0.0038
  446loPI   C2A 7128   2.280  15.230   9.425 -0.4513  0.0334  0.0573
  446loPI   C3A 7129   2.074  15.063   9.082  0.4504 -0.2741  0.0498
  446loPI   C4A 7130   1.934  14.952   8.710  0.0216 -0.3963  0.3995
  446loPI   C5A 7131   1.702  14.902   8.251 -0.0464 -0.0682  0.2315
  446loPI   C6A 7132   1.655  15.322   7.933 -0.2091 -0.0246  0.2188
  446loPI   C1B 7133   1.839  15.041   9.582 -0.2374  0.1465 -0.1664
  446loPI   C2B 7134   1.554  15.042   9.197 -0.2224  0.0108  0.0667
  446loPI   C3B 7135   1.383  14.850   8.793  0.2373  0.0647  0.0640
  446loPI   C4B 7136   1.065  14.460   8.696 -0.0160 -0.0567  0.1484
  447loPI    C1 7137  19.111  18.645  10.300 -0.1022  0.2854 -0.0954
  447loPI    C2 7138  18.823  18.610  10.576 -0.0593 -0.0145 -0.0852
  447loPI    C3 7139  19.117  18.876  10.626  0.0763 -0.2264  0.2770
  447loPI   PO4 7140  19.008  18.718  10.068  0.1074  0.0216  0.0317
  447loPI   GL1 7141  18.918  18.532   9.756 -0.3585  0.0397  0.2242
  447loPI   GL2 7142  19.254  18.417   9.835 -0.0530 -0.0557  0.1510
  447loPI   C1A 7143  19.130  18.789   9.415 -0.0596  0.0901  0.0268
  447loPI   C2A 7144  19.359  18.839   9.163 -0.2704 -0.1811  0.1443
  447loPI   C3A 7145  19.255  18.940   8.757 -0.1626  0.3039 -0.0173
  447loPI   C4A 7146  19.362  19.055   8.250  0.0300 -0.2684 -0.1311
  447loPI   C5A 7147  19.398  19.021   7.872 -0.1987  0.3837 -0.0725
  447loPI   C6A 7148  19.752  18.988   7.602 -0.0023  0.3946  0.1514
  447loPI   C1B 7149  19.247  18.318   9.356 -0.1267 -0.1363  0.2161
  447loPI   C2B 7150  19.056  18.457   8.988  0.2424 -0.0731  0.0486
  447loPI   C3B 7151  19.207  18.426   8.554  0.0186 -0.1045  0.0950
  447loPI   C4B 7152  19.543  18.587   8.558  0.1881  0.0750 -0.2939
  448loPI    C1 7153  12.904   2.625  10.301  0.2515 -0.0207  0.2611
  448loPI    C2 7154  12.895   3.002  10.436  0.1636  0.1283 -0.1473
  448loPI    C3 7155  12.769   2.703  10.669 -0.0313  0.3831  0.0796
  448loPI   PO4 7156  12.844   2.670  10.062  0.0832 -0.0442 -0.0375
  448loPI   GL1 7157  12.920   2.444   9.643  0.6066 -0.2533 -0.0278
  448loPI   GL2 7158  12.724   2.680   9.530  0.3846  0.0090 -0.1186
  448loPI   C1A 7159  12.966   2.305   9.350 -0.2438 -0.0224 -0.0687
  448loPI   C2A 7160  13.107   2.399   8.959  0.1932  0.2836  0.0205
  448loPI   C3A 7161  13.388   2.514   8.679  0.0919  0.0755  0.0112
  448loPI   C4A 7162  13.477   2.908   8.464  0.0554  0.1892  0.0248
  448loPI   C5A 7163  13.628   3.117   8.208  0.0099  0.0212  0.4354
  448loPI   C6A 7164  13.767   3.309   7.809 -0.1102 -0.2065  0.1555
  448loPI   C1B 7165  12.791   2.722   9.105 -0.2459 -0.1901 -0.1840
  448loPI   C2B 7166  12.790   2.710   8.693  0.0431 -0.1600 -0.2964
  448loPI   C3B 7167  12.997   2.635   8.348 -0.1297 -0.0057 -0.1510
  448loPI   C4B 7168  13.216   2.634   7.982  0.3245  0.0841  0.0237
  449loPI    C1 7169  14.721   3.544   9.997 -0.1119 -0.1280 -0.1250
  449loPI    C2 7170  14.346   3.684  10.014 -0.0236  0.1137 -0.1273
  449loPI    C3 7171  14.631   3.845  10.245  0.0227 -0.2543  0.0799
  449loPI   PO4 7172  14.771   3.419   9.776  0.0590  0.4978  0.3025
  449loPI   GL1 7173  14.973   3.536   9.385 -0.2443  0.3672 -0.0446
  449loPI   GL2 7174  14.634   3.721   9.303  0.0938 -0.1371  0.0962
  449loPI   C1A 7175  15.263   3.590   8.916  0.0254 -0.3226 -0.0304
  449loPI   C2A 7176  15.153   3.563   8.466  0.0138 -0.0031  0.0031
  449loPI   C3A 7177  14.787   3.534   8.281  0.3081 -0.1553  0.2380
  449loPI   C4A 7178  14.676   3.475   7.854 -0.0645  0.1020  0.0316
  449loPI   C5A 7179  14.801   3.424   7.458  0.2067 -0.1557 -0.0972
  449loPI   C6A 7180  14.717   3.280   7.129 -0.1345 -0.1502  0.2503
  449loPI   C1B 7181  14.620   3.515   8.772  0.0647  0.2301 -0.0425
  449loPI   C2B 7182  14.379   3.283   8.486 -0.2329 -0.1873  0.0404
  449loPI   C3B 7183  14.616   2.998   8.134  0.4790  0.1755  0.1115
  449loPI   C4B 7184  14.804   2.959   7.782  0.2443  0.1006  0.2634
  450loPI    C1 7185  17.616   2.639  10.090 -0.1005 -0.1272 -0.0681
  450loPI    C2 7186  17.841   2.538  10.405  0.0807  0.1651 -0.1003
  450loPI    C3 7187  17.446   2.579  10.447  0.0989  0.1657  0.0800
  450loPI   PO4 7188  17.737   2.707   9.952  0.1141  0.1434  0.0665
  450loPI   GL1 7189  17.811   2.930   9.573 -0.0679  0.0317  0.1607
  450loPI   GL2 7190  17.615   2.749   9.409  0.1072  0.0285 -0.1967
  450loPI   C1A 7191  18.029   2.949   9.249 -0.1398 -0.3434  0.3845
  450loPI   C2A 7192  18.400   3.052   8.851 -0.0975 -0.1070 -0.3819
  450loPI   C3A 7193  18.334   3.215   8.476 -0.3090  0.3381  0.1907
  450loPI   C4A 7194  18.282   2.993   8.095  0.2236  0.1881  0.2534
  450loPI   C5A 7195  18.061   3.233   7.682 -0.1036 -0.0482 -0.1003
  450loPI   C6A 7196  18.237   3.370   7.269 -0.0837 -0.0520  0.3774
  450loPI   C1B 7197  17.760   2.619   8.944 -0.2193 -0.4324 -0.0784
  450loPI   C2B 7198  18.125   2.617   8.782  0.1987  0.0578 -0.0043
  450loPI   C3B 7199  18.467   2.679   8.512 -0.2261 -0.0711  0.0377
  450loPI   C4B 7200  18.766   2.942   8.514 -0.1789 -0.0094  0.0480
  451loPI    C1 7201  15.531   5.335  10.233 -0.2560 -0.0982  0.1353
  451loPI    C2 7202  15.377   5.686  10.346 -0.0462  0.0371  0.0070
  451loPI    C3 7203  15.730   5.566  10.491 -0.1690 -0.1744  0.1370
  451loPI   PO4 7204  15.497   5.385   9.902  0.1854 -0.0370  0.3348
  451loPI   GL1 7205  15.704   5.604   9.558  0.1625 -0.1818  0.0290
  451loPI   GL2 7206  15.804   5.937   9.530 -0.1570  0.1742  0.0945
  451loPI   C1A 7207  15.463   5.584   9.206 -0.1809  0.1157  0.3270
  451loPI   C2A 7208  15.523   5.384   8.820  0.0917  0.0692  0.1539
  451loPI   C3A 7209  15.558   5.414   8.427 -0.1793 -0.1069 -0.0799
  451loPI   C4A 7210  15.293   5.164   8.076 -0.0319  0.1431 -0.0351
  451loPI   C5A 7211  15.196   5.403   7.668 -0.1700  0.3098  0.0418
  451loPI   C6A 7212  15.369   5.822   7.576 -0.1520  0.0131  0.0682
  451loPI   C1B 7213  15.912   5.909   9.110 -0.3322  0.1843  0.0573
  451loPI   C2B 7214  16.001   5.864   8.690 -0.0087  0.0980  0.3238
  451loPI   C3B 7215  16.196   6.028   8.364 -0.4548 -0.0156 -0.1703
  451loPI   C4B 7216  16.461   6.073   8.019  0.1065  0.0301  0.3092
  452loPI    C1 7217   4.486  16.390  10.238  0.1940 -0.2053 -0.1005
  452loPI    C2 7218   4.473  16.437  10.635 -0.1662 -0.0343 -0.1280
  452loPI    C3 7219   4.761  16.615  10.422 -0.0762  0.0193  0.0365
  452loPI   PO4 7220   4.504  16.132  10.216 -0.0592  0.0166  0.0162
  452loPI   GL1 7221   4.576  15.920   9.941  0.4357  0.0716  0.2842
  452loPI   GL2 7222   4.995  15.952   9.874 -0.3315 -0.2861  0.1962
  452loPI   C1A 7223   4.595  15.759   9.635  0.1899 -0.1061 -0.0502
  452loPI   C2A 7224   4.580  15.718   9.209 -0.0536  0.1128 -0.0974
  452loPI   C3A 7225   4.667  15.667   8.765  0.1376  0.4768  0.2078
  452loPI   C4A 7226   4.579  15.581   8.332 -0.1389  0.1606  0.1759
  452loPI   C5A 7227   4.694  15.610   7.822  0.2163  0.3238  0.3482
  452loPI   C6A 7228   4.465  15.544   7.357 -0.1136  0.0350 -0.1601
  452loPI   C1B 7229   5.000  16.045   9.424  0.1154 -0.1047 -0.0680
  452loPI   C2B 7230   5.005  15.972   8.920 -0.1004  0.0057 -0.0992
  452loPI   C3B 7231   5.060  16.032   8.554 -0.1076  0.1543  0.0183
  452loPI   C4B 7232   4.942  15.903   8.152 -0.2466  0.0634  0.2164
  453loPI    C1 7233   6.312  13.406  10.309 -0.1262  0.0017 -0.0608
  453loPI    C2 7234   6.266  13.546  10.681  0.1280  0.0347 -0.0397
  453loPI    C3 7235   6.361  13.162  10.622 -0.2000 -0.0431 -0.0838
  453loPI   PO4 7236   6.186  13.451  10.192  0.0141  0.2456 -0.0482
  453loPI   GL1 7237   5.945  13.419   9.889 -0.2861 -0.1525 -0.0895
  453loPI   GL2 7238   5.836  13.695   9.774 -0.0848 -0.0855 -0.0417
  453loPI   C1A 7239   5.891  13.149   9.469  0.0845  0.0195  0.2126
  453loPI   C2A 7240   5.712  13.146   9.111 -0.0944 -0.1539 -0.3685
  453loPI   C3A 7241   5.615  13.276   8.711  0.3027 -0.1166  0.3505
  453loPI   C4A 7242   5.667  13.103   8.315 -0.0325  0.2473 -0.2385
  453loPI   C5A 7243   5.577  13.110   7.958 -0.0501 -0.0260 -0.0589
  453loPI   C6A 7244   5.285  12.922   7.659  0.0646  0.0522 -0.0468
  453loPI   C1B 7245   5.740  13.704   9.283  0.0591 -0.1112  0.5646
  453loPI   C2B 7246   5.565  13.758   8.796 -0.3684  0.2141  0.0327
  453loPI   C3B 7247   5.598  13.645   8.331 -0.0667 -0.1906  0.0541
  453loPI   C4B 7248   5.567  13.749   8.009  0.1145 -0.1607  0.1437
  454loPI    C1 7249   2.687  14.781  10.365  0.1275 -0.0092  0.2890
  454loPI    C2 7250   2.396  15.048  10.299  0.2104  0.0206  0.0366
  454loPI    C3 7251   2.468  14.919  10.670 -0.0372  0.1125  0.1183
  454loPI   PO4 7252   2.863  14.837  10.231  0.0961  0.0970  0.3815
  454loPI   GL1 7253   3.122  15.112  10.000 -0.1664 -0.4151 -0.1114
  454loPI   GL2 7254   3.407  14.906   9.765  0.0663  0.0034  0.0482
  454loPI   C1A 7255   3.011  15.195   9.532 -0.0380 -0.0246 -0.0104
  454loPI   C2A 7256   2.866  15.017   9.245 -0.0052  0.0826  0.1688
  454loPI   C3A 7257   2.808  14.934   8.783 -0.1007 -0.0228 -0.5380
  454loPI   C4A 7258   2.808  15.024   8.340 -0.1825 -0.0166 -0.2959
  454loPI   C5A 7259   2.732  14.972   7.989 -0.0718 -0.0620  0.1013
  454loPI   C6A 7260   2.706  14.583   7.848  0.1517 -0.4079  0.2168
  454loPI   C1B 7261   3.321  14.783   9.389 -0.0139 -0.0074  0.2583
  454loPI   C2B 7262   3.318  14.727   8.968  0.0535  0.0589  0.2949
  454loPI   C3B 7263   3.253  14.803   8.537  0.0569 -0.2066  0.1961
  454loPI   C4B 7264   3.218  14.784   8.148 -0.0291  0.1749  0.0087
  455loPI    C1 7265   1.868   7.130  10.236  0.3312 -0.0614  0.0836
  455loPI    C2 7266   1.948   6.848  10.508 -0.0834 -0.2666  0.0007
  455loPI    C3 7267   1.583   7.010  10.490  0.0733  0.0816 -0.1333
  455loPI   PO4 7268   1.879   7.014  10.019  0.0877  0.1047 -0.2442
  455loPI   GL1 7269   1.763   7.236   9.603 -0.0289 -0.1182 -0.2031
  455loPI   GL2 7270   1.464   7.260   9.527 -0.0483 -0.0839 -0.2817
  455loPI   C1A 7271   2.048   7.378   9.219  0.1044 -0.1242  0.2677
  455loPI   C2A 7272   2.015   7.443   8.867  0.0948  0.0730  0.0966
  455loPI   C3A 7273   1.788   7.162   8.483  0.0372  0.1291 -0.0864
  455loPI   C4A 7274   1.857   7.039   8.023 -0.1759  0.0008 -0.0857
  455loPI   C5A 7275   1.917   7.126   7.607 -0.1997 -0.0220 -0.2351
  455loPI   C6A 7276   1.939   7.038   7.202  0.1876  0.1564 -0.0470
  455loPI   C1B 7277   1.486   6.971   9.212 -0.0758  0.2258 -0.3093
  455loPI   C2B 7278   1.255   6.780   8.904  0.1952  0.1370 -0.1508
  455loPI   C3B 7279   0.947   6.696   8.563 -0.1930  0.1307  0.0923
  455loPI   C4B 7280   0.862   6.834   8.104 -0.0600 -0.2425 -0.0548
  456loPI    C1 7281   2.733   9.358  10.618  0.0809  0.1794 -0.0330
  456loPI    C2 7282   2.556   9.099  10.867  0.4968 -0.1667 -0.0855
  456loPI    C3 7283   2.600   9.482  10.974  0.1184 -0.1730  0.1077
  456loPI   PO4 7284   2.640   9.279  10.328  0.0132 -0.2875 -0.3937
  456loPI   GL1 7285   2.612   9.567  10.077  0.1432  0.1635  0.1800
  456loPI   GL2 7286   2.814   9.792  10.116  0.1013  0.2547 -0.2030
  456loPI   C1A 7287   2.430   9.370   9.623  0.1234 -0.2240 -0.1132
  456loPI   C2A 7288   2.379   9.343   9.164 -0.1594  0.0392 -0.0897
  456loPI   C3A 7289   2.379   9.308   8.726  0.1962 -0.1010 -0.0079
  456loPI   C4A 7290   2.550   9.407   8.230  0.0491 -0.2618 -0.1526
  456loPI   C5A 7291   2.595   9.294   7.870 -0.0792  0.0871  0.1307
  456loPI   C6A 7292   3.103   9.136   7.758 -0.3284  0.1753  0.2287
  456loPI   C1B 7293   2.840   9.663   9.624  0.1985 -0.0044 -0.1666
  456loPI   C2B 7294   2.952   9.578   9.181  0.2795  0.2567  0.1686
  456loPI   C3B 7295   3.213   9.390   8.927 -0.0240 -0.0945  0.1757
  456loPI   C4B 7296   3.378   9.411   8.540 -0.1889  0.0234  0.0646
  457loPI    C1 7297   5.880   7.051   9.913 -0.0216  0.0276 -0.1458
  457loPI    C2 7298   6.051   6.762  10.131  0.0336  0.1092 -0.0804
  457loPI    C3 7299   5.924   7.098  10.307  0.0369  0.1563 -0.1671
  457loPI   PO4 7300   5.975   7.139   9.736  0.1326  0.0671 -0.0455
  457loPI   GL1 7301   6.116   7.105   9.358  0.1814 -0.1085 -0.0796
  457loPI   GL2 7302   6.054   7.462   9.195  0.1095 -0.0292 -0.2085
  457loPI   C1A 7303   6.251   7.082   8.874 -0.1273 -0.0143 -0.1173
  457loPI   C2A 7304   6.421   7.150   8.444 -0.2618  0.2489  0.0016
  457loPI   C3A 7305   6.363   7.210   8.081  0.2260 -0.0441 -0.1972
  457loPI   C4A 7306   6.342   7.289   7.677 -0.0591  0.0007  0.0706
  457loPI   C5A 7307   6.161   7.511   7.344  0.1328 -0.1707 -0.0361
  457loPI   C6A 7308   5.798   7.872   7.399 -0.0606 -0.0777 -0.3321
  457loPI   C1B 7309   6.273   7.598   8.946 -0.0628  0.1054 -0.0729
  457loPI   C2B 7310   6.632   7.521   8.768  0.0765 -0.3909 -0.3593
  457loPI   C3B 7311   7.001   7.419   8.968 -0.1152 -0.1242  0.0685
  457loPI   C4B 7312   7.244   7.084   9.099  0.0304 -0.0171 -0.2720
  458loPI    C1 7313  14.434   8.505   9.814 -0.0661 -0.1175  0.0852
  458loPI    C2 7314  14.505   8.578  10.200 -0.0206  0.1348  0.0313
  458loPI    C3 7315  14.232   8.306  10.095  0.1272 -0.0986  0.2398
  458loPI   PO4 7316  14.715   8.402   9.609 -0.1678  0.0349 -0.0597
  458loPI   GL1 7317  14.753   8.487   9.178 -0.1081 -0.2137 -0.2261
  458loPI   GL2 7318  14.976   8.384   9.217 -0.1488  0.1369 -0.1421
  458loPI   C1A 7319  14.708   8.802   8.815 -0.1291  0.1233  0.1962
  458loPI   C2A 7320  14.538   8.951   8.441  0.0587  0.0047 -0.1624
  458loPI   C3A 7321  14.292   9.057   8.134  0.0927 -0.1527 -0.0419
  458loPI   C4A 7322  14.390   9.201   7.788 -0.0030  0.2319  0.0340
  458loPI   C5A 7323  14.376   9.461   7.399 -0.0782 -0.3219 -0.1955
  458loPI   C6A 7324  14.624   9.823   7.202  0.0733  0.2086  0.0999
  458loPI   C1B 7325  14.898   8.182   8.833  0.1322  0.1559  0.2226
  458loPI   C2B 7326  14.785   7.840   8.534  0.0119 -0.1132 -0.0498
  458loPI   C3B 7327  14.783   7.588   8.267  0.1224 -0.0602  0.2813
  458loPI   C4B 7328  14.903   7.703   7.859 -0.0397  0.1900 -0.0356
  459loPI    C1 7329  17.009  15.370  10.127  0.1990 -0.1779 -0.1958
  459loPI    C2 7330  16.946  15.259  10.506  0.1120  0.0249 -0.1497
  459loPI    C3 7331  17.288  15.440  10.404  0.1381 -0.0357 -0.1698
  459loPI   PO4 7332  16.825  15.522  10.003  0.1588  0.0511 -0.0602
  459loPI   GL1 7333  16.752  15.761   9.634  0.1729 -0.1381 -0.0128
  459loPI   GL2 7334  16.701  15.979   9.504 -0.0905 -0.2273 -0.1001
  459loPI   C1A 7335  16.872  15.584   9.175 -0.0779 -0.0352 -0.3098
  459loPI   C2A 7336  16.599  15.819   8.706  0.0266 -0.0155 -0.0262
  459loPI   C3A 7337  16.663  16.010   8.284  0.2510 -0.0090  0.1364
  459loPI   C4A 7338  16.539  16.143   7.908  0.1205  0.0080 -0.1410
  459loPI   C5A 7339  16.709  16.491   7.657 -0.1377 -0.3189  0.0870
  459loPI   C6A 7340  16.738  16.702   7.204  0.0462  0.2222  0.0198
  459loPI   C1B 7341  16.987  16.135   9.188 -0.0533  0.0395 -0.0431
  459loPI   C2B 7342  17.157  16.030   8.778  0.2289  0.1126 -0.4583
  459loPI   C3B 7343  17.094  16.163   8.404  0.0256  0.1206 -0.0283
  459loPI   C4B 7344  17.068  16.251   7.965  0.1698  0.0098  0.3204
  460loPI    C1 7345   4.327  15.479  10.479 -0.1183  0.0083  0.0375
  460loPI    C2 7346   4.162  15.194  10.252  0.0961 -0.0150 -0.0931
  460loPI    C3 7347   4.342  15.097  10.596 -0.0428 -0.0057 -0.0168
  460loPI   PO4 7348   4.268  15.664  10.241 -0.0857  0.0015  0.0671
  460loPI   GL1 7349   4.165  15.582   9.814  0.2068 -0.1570 -0.1450
  460loPI   GL2 7350   3.917  15.493   9.921  0.0291 -0.1452  0.0477
  460loPI   C1A 7351   4.214  15.382   9.431  0.0502 -0.0575  0.1104
  460loPI   C2A 7352   4.200  15.394   8.975  0.0339 -0.1268 -0.1649
  460loPI   C3A 7353   4.123  15.396   8.524  0.3123  0.0111  0.1518
  460loPI   C4A 7354   4.234  15.384   8.059  0.1926  0.1993 -0.0849
  460loPI   C5A 7355   4.017  15.398   7.690  0.2188  0.2509  0.1167
  460loPI   C6A 7356   3.755  15.389   7.238  0.1486  0.1989  0.0425
  460loPI   C1B 7357   3.784  15.659   9.417 -0.1892 -0.3246 -0.0655
  460loPI   C2B 7358   3.731  15.576   8.973  0.1733  0.0808 -0.0025
  460loPI   C3B 7359   3.666  15.601   8.489 -0.3849  0.0903 -0.0223
  460loPI   C4B 7360   3.632  15.651   8.080  0.2291  0.3761 -0.1372
  461loPI    C1 7361   7.990   9.848  10.248 -0.3329 -0.0474 -0.0896
  461loPI    C2 7362   8.064  10.182  10.455 -0.0685 -0.0683 -0.1464
  461loPI    C3 7363   7.783   9.927  10.581  0.1750 -0.1440  0.2626
  461loPI   PO4 7364   8.002   9.891   9.927 -0.2045  0.4970  0.1443
  461loPI   GL1 7365   8.378   9.787   9.577  0.0064 -0.0859 -0.0758
  461loPI   GL2 7366   8.228   9.505   9.578 -0.0704  0.1499 -0.0540
  461loPI   C1A 7367   8.294   9.822   9.102  0.0515 -0.0099  0.1116
  461loPI   C2A 7368   8.327   9.808   8.630 -0.0312  0.0148  0.2858
  461loPI   C3A 7369   8.461  10.073   8.451 -0.4827  0.3098 -0.1143
  461loPI   C4A 7370   8.748  10.171   8.287 -0.2460 -0.2962  0.1397
  461loPI   C5A 7371   8.887  10.489   8.117 -0.2236  0.4312 -0.1981
  461loPI   C6A 7372   8.926  10.869   7.874 -0.2415  0.2344  0.4203
  461loPI   C1B 7373   8.188   9.310   9.176 -0.2618  0.0996  0.0970
  461loPI   C2B 7374   8.121   9.320   8.815 -0.0444 -0.1948  0.1951
  461loPI   C3B 7375   8.143   9.414   8.373 -0.1974 -0.0047 -0.0396
  461loPI   C4B 7376   8.273   9.782   8.043 -0.0869 -0.1258  0.0291
  462loPI    C1 7377  18.724   6.504   9.983  0.0194  0.0778 -0.2894
  462loPI    C2 7378  18.933   6.174   9.893 -0.1334 -0.0326 -0.2425
  462loPI    C3 7379  18.896   6.290  10.274  0.2143  0.2362 -0.2853
  462loPI   PO4 7380  18.672   6.682   9.821  0.0748  0.1633 -0.0676
  462loPI   GL1 7381  18.638   6.745   9.444  0.0237  0.0135 -0.2549
  462loPI   GL2 7382  18.798   6.968   9.253 -0.3252  0.0568  0.1466
  462loPI   C1A 7383  18.667   6.514   9.089  0.2588 -0.0441 -0.2504
  462loPI   C2A 7384  18.469   6.344   8.740 -0.0987  0.0030  0.1093
  462loPI   C3A 7385  18.370   6.234   8.369 -0.0376  0.1423  0.0572
  462loPI   C4A 7386  18.284   6.053   8.022  0.1375 -0.1743 -0.1588
  462loPI   C5A 7387  17.875   5.911   7.808  0.2909 -0.1277 -0.0397
  462loPI   C6A 7388  17.507   5.916   7.531 -0.0221 -0.2590 -0.1862
  462loPI   C1B 7389  18.794   7.075   8.793  0.2938  0.1049 -0.0316
  462loPI   C2B 7390  18.811   7.081   8.307 -0.3022  0.1154 -0.0233
  462loPI   C3B 7391  18.904   6.878   7.955  0.0514 -0.2331  0.3027
  462loPI   C4B 7392  18.824   6.778   7.513 -0.2059  0.0237 -0.1578
  463loPI    C1 7393  12.813  13.455   9.881  0.2262 -0.1618  0.0175
  463loPI    C2 7394  13.113  13.636  10.073 -0.0319  0.0486  0.2307
  463loPI    C3 7395  12.832  13.441  10.280 -0.0389 -0.1560  0.0320
  463loPI   PO4 7396  12.916  13.388   9.677  0.0696 -0.1394  0.4050
  463loPI   GL1 7397  13.104  13.264   9.216 -0.0677  0.2660  0.1159
  463loPI   GL2 7398  13.464  13.170   9.137 -0.0331 -0.0943  0.0557
  463loPI   C1A 7399  12.793  13.072   9.084 -0.1046  0.0170 -0.0937
  463loPI   C2A 7400  12.777  13.157   8.680  0.1799  0.1123 -0.0772
  463loPI   C3A 7401  12.689  13.517   8.478  0.0830  0.0060 -0.1538
  463loPI   C4A 7402  12.785  13.665   8.023  0.3146  0.0418 -0.0929
  463loPI   C5A 7403  12.928  13.618   7.649  0.0929  0.0124  0.1232
  463loPI   C6A 7404  12.951  13.330   7.523 -0.1111 -0.3987 -0.1371
  463loPI   C1B 7405  13.745  13.156   8.757 -0.0805 -0.0846  0.0490
  463loPI   C2B 7406  13.879  13.406   8.397  0.0721  0.1503  0.1122
  463loPI   C3B 7407  14.101  13.507   8.018 -0.0518 -0.0414  0.0026
  463loPI   C4B 7408  14.357  13.333   7.660 -0.0879 -0.0759 -0.1236
  464loPI    C1 7409   7.183  10.008   9.737  0.1065  0.2972  0.0352
  464loPI    C2 7410   7.486   9.901   9.975  0.2151  0.0239 -0.2195
  464loPI    C3 7411   7.555  10.132   9.656  0.1005  0.2315 -0.0959
  464loPI   PO4 7412   6.904   9.779   9.742  0.1145 -0.0282 -0.2138
  464loPI   GL1 7413   6.832   9.404   9.519  0.1685 -0.1763 -0.1710
  464loPI   GL2 7414   6.871   9.694   9.205  0.1431  0.0781  0.0880
  464loPI   C1A 7415   7.173   9.316   9.176  0.0040 -0.1606 -0.0615
  464loPI   C2A 7416   7.373   9.313   8.698 -0.0512  0.2582 -0.0238
  464loPI   C3A 7417   7.391   9.329   8.365 -0.2069  0.1631 -0.3747
  464loPI   C4A 7418   7.222   9.587   8.077  0.0391 -0.2747  0.3456
  464loPI   C5A 7419   7.061   9.802   7.627  0.3348 -0.0219 -0.0616
  464loPI   C6A 7420   7.002   9.900   7.231  0.1158 -0.0994  0.1460
  464loPI   C1B 7421   7.153   9.716   8.879  0.1244  0.1576  0.2599
  464loPI   C2B 7422   7.383   9.836   8.492 -0.3649 -0.2866  0.0439
  464loPI   C3B 7423   7.372  10.095   8.131  0.0843  0.0712 -0.0322
  464loPI   C4B 7424   7.354  10.208   7.672  0.0852 -0.0598  0.0956
  465loPI    C1 7425   3.344   6.724   9.876 -0.1822  0.0037 -0.2669
  465loPI    C2 7426   3.280   7.044  10.108 -0.0245 -0.0248 -0.1827
  465loPI    C3 7427   3.076   6.706  10.172  0.0749 -0.0574 -0.0334
  465loPI   PO4 7428   3.371   6.812   9.663 -0.0728  0.0485  0.0704
  465loPI   GL1 7429   3.791   6.969   9.379 -0.0489 -0.2827 -0.0400
  465loPI   GL2 7430   3.502   6.898   9.211 -0.1569  0.0501  0.2969
  465loPI   C1A 7431   3.906   6.885   8.873 -0.0871  0.3360 -0.1119
  465loPI   C2A 7432   4.071   6.985   8.460  0.2682  0.2259 -0.2157
  465loPI   C3A 7433   4.125   7.101   7.966  0.0473 -0.0837  0.0290
  465loPI   C4A 7434   4.309   7.160   7.528  0.1605 -0.2753  0.0313
  465loPI   C5A 7435   4.499   7.533   7.495 -0.1005 -0.2953  0.2975
  465loPI   C6A 7436   4.588   7.768   7.092  0.0429  0.0248  0.0739
  465loPI   C1B 7437   3.230   6.548   8.907  0.0854 -0.1141  0.2382
  465loPI   C2B 7438   2.873   6.433   8.780 -0.1767  0.0460  0.0298
  465loPI   C3B 7439   2.710   6.430   8.402 -0.1402  0.0537  0.1058
  465loPI   C4B 7440   2.435   6.433   8.059 -0.1366 -0.1263  0.0195
  466loPI    C1 7441   9.647   8.137  10.441 -0.2464 -0.0781 -0.2547
  466loPI    C2 7442   9.643   7.820  10.685 -0.2380  0.1223  0.0112
  466loPI    C3 7443   9.556   8.183  10.828 -0.0648  0.2703 -0.2495
  466loPI   PO4 7444   9.618   8.049  10.132 -0.2657  0.1788 -0.0824
  466loPI   GL1 7445   9.544   8.204   9.779 -0.2874 -0.0823 -0.0361
  466loPI   GL2 7446   9.267   7.930   9.667  0.1049  0.0171 -0.1583
  466loPI   C1A 7447   9.535   8.350   9.409  0.1298  0.0435  0.1423
  466loPI   C2A 7448   9.478   8.397   8.954  0.2820 -0.2008  0.0583
  466loPI   C3A 7449   9.276   8.343   8.647  0.0519 -0.1142  0.0281
  466loPI   C4A 7450   9.185   8.354   8.178  0.1544 -0.1038  0.1160
  466loPI   C5A 7451   9.116   8.146   7.799  0.1072  0.1663  0.2910
  466loPI   C6A 7452   9.269   7.724   7.503 -0.0476 -0.1791  0.0556
  466loPI   C1B 7453   9.391   7.931   9.176 -0.3380 -0.0047  0.0684
  466loPI   C2B 7454   9.294   7.815   8.738  0.0033  0.2064  0.0604
  466loPI   C3B 7455   9.160   7.845   8.309 -0.0028  0.0528 -0.2348
  466loPI   C4B 7456   9.014   7.632   7.872 -0.3718  0.0351 -0.3819
  467loPI    C1 7457   7.602   4.703  10.125  0.0789 -0.0770 -0.0677
  467loPI    C2 7458   7.664   4.982  10.405 -0.0570 -0.2211  0.1087
  467loPI    C3 7459   7.564   4.609  10.512 -0.1509 -0.2676 -0.1335
  467loPI   PO4 7460   7.780   4.701   9.961 -0.2576 -0.0344 -0.1886
  467loPI   GL1 7461   7.705   4.724   9.579  0.0000 -0.1536 -0.0262
  467loPI   GL2 7462   8.051   4.744   9.376 -0.1190  0.0716 -0.1360
  467loPI   C1A 7463   7.556   4.621   9.149 -0.0829 -0.4011 -0.2671
  467loPI   C2A 7464   7.627   4.505   8.655 -0.2813 -0.2770  0.1741
  467loPI   C3A 7465   7.661   4.616   8.207  0.0713 -0.1041 -0.2673
  467loPI   C4A 7466   7.715   4.338   7.888  0.1319  0.0269  0.1023
  467loPI   C5A 7467   7.611   3.877   7.669  0.1378  0.2471 -0.0715
  467loPI   C6A 7468   7.633   3.678   7.333  0.0505 -0.0128  0.0513
  467loPI   C1B 7469   8.121   4.571   8.975 -0.0679 -0.2743 -0.1366
  467loPI   C2B 7470   8.110   4.523   8.489  0.0642 -0.0449  0.1810
  467loPI   C3B 7471   8.275   4.455   8.072 -0.2516 -0.1032 -0.2439
  467loPI   C4B 7472   8.334   4.645   7.658 -0.0538  0.0472 -0.2630
  468loPI    C1 7473  12.789   9.790  10.307  0.2038  0.0433 -0.0186
  468loPI    C2 7474  13.144   9.702  10.468  0.2422  0.1404 -0.0492
  468loPI    C3 7475  12.807   9.595  10.656  0.2870 -0.0701 -0.0857
  468loPI   PO4 7476  12.882  10.036  10.071 -0.1328  0.3174 -0.1870
  468loPI   GL1 7477  12.916  10.032   9.721 -0.1396  0.1490 -0.1702
  468loPI   GL2 7478  12.960  10.279   9.541 -0.1958  0.2262 -0.0691
  468loPI   C1A 7479  12.851   9.744   9.370 -0.1029  0.1123  0.0002
  468loPI   C2A 7480  12.808   9.670   9.014  0.2474 -0.2924 -0.0470
  468loPI   C3A 7481  12.933   9.595   8.650 -0.1243 -0.0643 -0.0247
  468loPI   C4A 7482  13.066   9.796   8.289 -0.3977  0.1776 -0.1389
  468loPI   C5A 7483  13.082   9.927   7.806  0.0341 -0.0296 -0.0741
  468loPI   C6A 7484  13.338   9.591   7.572 -0.2340  0.1274 -0.0219
  468loPI   C1B 7485  12.854  10.252   9.083 -0.0303  0.2049  0.1404
  468loPI   C2B 7486  12.704  10.271   8.651  0.1579 -0.1462 -0.0257
  468loPI   C3B 7487  12.527  10.474   8.317  0.0583 -0.3645 -0.1027
  468loPI   C4B 7488  12.476  10.828   8.097 -0.0374  0.0984 -0.2030
  469loPI    C1 7489   9.204  14.338  10.024 -0.3381 -0.0120 -0.0607
  469loPI    C2 7490   9.413  14.301  10.363  0.0864  0.3651 -0.2719
  469loPI    C3 7491   9.084  14.529  10.355 -0.1647  0.0211 -0.0160
  469loPI   PO4 7492   9.387  14.452   9.804 -0.0195 -0.4352  0.2002
  469loPI   GL1 7493   9.549  14.439   9.365 -0.2693 -0.0703  0.1493
  469loPI   GL2 7494   9.625  14.096   9.505 -0.0370 -0.4138  0.5831
  469loPI   C1A 7495   9.486  14.827   9.109 -0.2291 -0.1078 -0.1251
  469loPI   C2A 7496   9.522  15.130   8.771 -0.0580 -0.0748 -0.1602
  469loPI   C3A 7497   9.439  15.306   8.378 -0.3400  0.0789 -0.0149
  469loPI   C4A 7498   9.483  15.350   7.946  0.2534 -0.2322 -0.2006
  469loPI   C5A 7499   9.398  15.567   7.586 -0.1712  0.1706  0.2505
  469loPI   C6A 7500   9.693  15.386   7.251 -0.0163 -0.0618  0.1247
  469loPI   C1B 7501   9.617  14.077   9.013 -0.1951 -0.4941 -0.1083
  469loPI   C2B 7502   9.828  14.193   8.648 -0.1117 -0.0234 -0.3457
  469loPI   C3B 7503   9.731  14.316   8.159  0.1582  0.1755 -0.2670
  469loPI   C4B 7504   9.628  14.504   7.833  0.0535 -0.0045  0.2561
  470loPI    C1 7505  14.861   4.295  10.139  0.0654 -0.0549  0.2139
  470loPI    C2 7506  15.114   4.232  10.443  0.1456 -0.0067  0.1574
  470loPI    C3 7507  14.725   4.291  10.515  0.1613 -0.0152  0.2493
  470loPI   PO4 7508  15.039   4.418   9.950  0.1402 -0.4689 -0.2125
  470loPI   GL1 7509  15.041   4.624   9.555 -0.1031  0.0498 -0.0579
  470loPI   GL2 7510  15.249   4.509   9.350 -0.1484  0.0146  0.0569
  470loPI   C1A 7511  14.775   4.468   9.196  0.0080  0.2488  0.0068
  470loPI   C2A 7512  14.447   4.341   8.962 -0.3230  0.0890 -0.1544
  470loPI   C3A 7513  14.234   4.356   8.546  0.1245  0.3629 -0.1669
  470loPI   C4A 7514  14.241   4.315   8.174  0.0236 -0.0164 -0.2107
  470loPI   C5A 7515  14.155   4.108   7.824  0.3252  0.1083 -0.3184
  470loPI   C6A 7516  13.919   4.295   7.565  0.0412  0.0823  0.2723
  470loPI   C1B 7517  15.267   4.421   8.975  0.4740  0.2257  0.0634
  470loPI   C2B 7518  14.922   4.495   8.753  0.4420  0.0191  0.2113
  470loPI   C3B 7519  14.900   4.364   8.340 -0.2359 -0.2054 -0.2287
  470loPI   C4B 7520  15.094   4.675   7.988  0.0108 -0.2103 -0.0009
  471loPI    C1 7521  18.150  17.459  10.050  0.2531 -0.3559  0.3415
  471loPI    C2 7522  18.387  17.699  10.265  0.1136 -0.0475  0.1580
  471loPI    C3 7523  17.998  17.669  10.355  0.1111 -0.1310  0.1202
  471loPI   PO4 7524  18.110  17.505   9.773  0.2583 -0.1403  0.0059
  471loPI   GL1 7525  18.187  17.513   9.331 -0.1347  0.0043  0.1221
  471loPI   GL2 7526  17.962  17.670   9.175 -0.0151 -0.0621  0.0675
  471loPI   C1A 7527  18.260  17.299   8.971  0.2353  0.1670  0.3724
  471loPI   C2A 7528  18.449  17.134   8.498 -0.0642  0.2910 -0.1984
  471loPI   C3A 7529  18.738  17.346   8.222  0.2845 -0.2662 -0.1145
  471loPI   C4A 7530  18.942  17.603   8.047  0.0824 -0.2143  0.1209
  471loPI   C5A 7531  18.924  17.962   7.794  0.0662 -0.0686  0.5008
  471loPI   C6A 7532  18.629  17.844   7.407 -0.0715  0.0382 -0.1193
  471loPI   C1B 7533  17.832  17.897   8.762  0.3599  0.0595 -0.0257
  471loPI   C2B 7534  17.849  17.775   8.357 -0.3431 -0.1362 -0.1686
  471loPI   C3B 7535  17.902  17.867   7.968 -0.1411  0.1915 -0.2170
  471loPI   C4B 7536  18.086  17.812   7.578 -0.1356  0.1815 -0.3044
  472loPI    C1 7537   4.965   4.094   9.712 -0.2202 -0.1331  0.0927
  472loPI    C2 7538   4.849   3.851  10.008 -0.0882 -0.1784  0.1075
  472loPI    C3 7539   5.224   3.991   9.998 -0.2324  0.2329  0.2415
  472loPI   PO4 7540   4.775   4.223   9.632 -0.1775 -0.0842 -0.1469
  472loPI   GL1 7541   4.539   4.339   9.299 -0.1031 -0.0735 -0.2290
  472loPI   GL2 7542   4.584   4.641   9.382  0.0635 -0.3168  0.1203
  472loPI   C1A 7543   4.376   4.096   8.924 -0.3192  0.1582  0.2756
  472loPI   C2A 7544   4.141   4.239   8.569 -0.2105  0.1615 -0.1433
  472loPI   C3A 7545   4.155   4.346   8.224 -0.1642 -0.0843 -0.2534
  472loPI   C4A 7546   4.558   4.313   7.861  0.0451  0.0851  0.1241
  472loPI   C5A 7547   5.019   4.131   7.738 -0.1184  0.0004 -0.3785
  472loPI   C6A 7548   5.286   3.772   7.578 -0.2051 -0.0672  0.0620
  472loPI   C1B 7549   4.755   4.773   9.026  0.2018  0.0076  0.3283
  472loPI   C2B 7550   4.835   4.691   8.641 -0.1030  0.2785 -0.2381
  472loPI   C3B 7551   4.995   4.761   8.296  0.5394 -0.0580 -0.0060
  472loPI   C4B 7552   4.941   5.055   7.991 -0.0915 -0.1741  0.1927
  473loPI    C1 7553   4.929  14.497  10.593  0.0223 -0.0028  0.1419
  473loPI    C2 7554   5.325  14.470  10.543 -0.0116 -0.1356 -0.0712
  473loPI    C3 7555   5.109  14.141  10.616 -0.0951 -0.0771 -0.0523
  473loPI   PO4 7556   4.888  14.686  10.406  0.2584  0.1903 -0.0678
  473loPI   GL1 7557   4.821  14.698   9.930  0.2374 -0.0445 -0.0151
  473loPI   GL2 7558   4.611  14.542   9.745  0.0939 -0.1432  0.1175
  473loPI   C1A 7559   4.952  14.953   9.717 -0.1305 -0.1588  0.3373
  473loPI   C2A 7560   5.148  15.083   9.283  0.1153  0.0867  0.1263
  473loPI   C3A 7561   5.106  14.993   8.849 -0.0978  0.1870  0.0226
  473loPI   C4A 7562   5.169  14.963   8.416 -0.0343 -0.3154 -0.0368
  473loPI   C5A 7563   5.100  14.794   8.031 -0.4328 -0.1370 -0.0473
  473loPI   C6A 7564   4.795  14.598   7.623  0.2066 -0.0612  0.1924
  473loPI   C1B 7565   4.678  14.703   9.357  0.1113 -0.0386 -0.0561
  473loPI   C2B 7566   4.711  14.709   8.962  0.3023  0.0183  0.0321
  473loPI   C3B 7567   4.685  14.594   8.636  0.3038  0.2189 -0.0160
  473loPI   C4B 7568   4.655  14.643   8.199 -0.0295 -0.1836  0.0414
  474loPI    C1 7569   7.290   5.938   9.770 -0.0212 -0.0596 -0.1090
  474loPI    C2 7570   7.295   5.553   9.661  0.1816 -0.0583 -0.1077
  474loPI    C3 7571   7.522   5.678   9.966  0.0277  0.0412 -0.0325
  474loPI   PO4 7572   7.027   6.045   9.654 -0.2096  0.2574  0.0171
  474loPI   GL1 7573   7.052   5.804   9.282  0.1373 -0.0978  0.3621
  474loPI   GL2 7574   6.981   5.528   9.266 -0.1987  0.2341 -0.0690
  474loPI   C1A 7575   7.130   6.017   8.878  0.1156 -0.0463 -0.1949
  474loPI   C2A 7576   7.170   6.013   8.480 -0.1995  0.1499  0.1150
  474loPI   C3A 7577   7.316   6.141   8.122 -0.3645 -0.0122  0.1457
  474loPI   C4A 7578   7.551   6.296   7.823  0.1208  0.0026  0.1393
  474loPI   C5A 7579   7.741   6.629   7.624  0.0763 -0.0144 -0.0742
  474loPI   C6A 7580   7.648   7.041   7.571  0.0113  0.0628 -0.0104
  474loPI   C1B 7581   6.950   5.465   8.807  0.2070 -0.2102  0.0882
  474loPI   C2B 7582   7.038   5.449   8.476 -0.3577 -0.0521 -0.0450
  474loPI   C3B 7583   7.127   5.319   8.044 -0.1384  0.0427 -0.0521
  474loPI   C4B 7584   7.336   5.301   7.715  0.0544  0.0594 -0.0240
  475loPI    C1 7585   6.729   3.547   9.897  0.1847  0.5545  0.1594
  475loPI    C2 7586   6.617   3.513  10.280  0.0650  0.2288  0.0988
  475loPI    C3 7587   7.002   3.474  10.179  0.0664  0.0771  0.1598
  475loPI   PO4 7588   6.671   3.421   9.761  0.0104 -0.1391  0.1312
  475loPI   GL1 7589   6.801   3.192   9.467 -0.0045  0.1060 -0.0737
  475loPI   GL2 7590   6.864   2.863   9.371 -0.0892  0.0086 -0.1479
  475loPI   C1A 7591   6.780   3.194   8.984  0.1431  0.0765 -0.0232
  475loPI   C2A 7592   6.739   3.481   8.708 -0.2178  0.0189  0.2045
  475loPI   C3A 7593   6.466   3.648   8.453  0.5931  0.2131 -0.0221
  475loPI   C4A 7594   6.116   3.700   8.516  0.0370  0.1015 -0.2520
  475loPI   C5A 7595   5.747   3.616   8.204 -0.0114  0.3655 -0.3016
  475loPI   C6A 7596   5.555   3.495   7.859 -0.1621  0.4036  0.0596
  475loPI   C1B 7597   6.960   2.730   8.939  0.3073 -0.1543  0.0641
  475loPI   C2B 7598   7.005   2.500   8.615  0.1475  0.0821 -0.1077
  475loPI   C3B 7599   7.230   2.223   8.199 -0.4577 -0.1934  0.0288
  475loPI   C4B 7600   7.342   2.029   7.851  0.1376  0.3200 -0.2036
  476loPI    C1 7601  16.837  10.401  10.378  0.1873 -0.0352  0.0047
  476loPI    C2 7602  16.713  10.042  10.256 -0.0835  0.1383 -0.2428
  476loPI    C3 7603  17.013  10.071  10.519 -0.1467 -0.2701 -0.1188
  476loPI   PO4 7604  16.821  10.488  10.085  0.0471 -0.2972 -0.0178
  476loPI   GL1 7605  16.827  10.557   9.644 -0.1239 -0.0654 -0.1336
  476loPI   GL2 7606  16.937  10.326   9.533  0.1574  0.0299  0.1353
  476loPI   C1A 7607  16.700  10.667   9.227  0.0979 -0.0778  0.2178
  476loPI   C2A 7608  16.763  10.732   8.818  0.0155 -0.2318 -0.3813
  476loPI   C3A 7609  16.641  10.949   8.507  0.2083 -0.2690  0.0616
  476loPI   C4A 7610  16.629  11.291   8.094  0.2699  0.1678  0.0042
  476loPI   C5A 7611  16.563  11.297   7.655 -0.1673 -0.1598 -0.1336
  476loPI   C6A 7612  16.276  11.080   7.449  0.0562  0.2540  0.0817
  476loPI   C1B 7613  17.032  10.233   9.108  0.3704 -0.0825  0.0090
  476loPI   C2B 7614  17.050  10.301   8.696 -0.1347 -0.2278 -0.1597
  476loPI   C3B 7615  17.134  10.347   8.353  0.0141 -0.4468  0.0387
  476loPI   C4B 7616  17.089  10.350   7.855 -0.2191 -0.0872  0.3171
  477loPI    C1 7617   0.744  13.464  10.351 -0.0831  0.0773 -0.0253
  477loPI    C2 7618   0.497  13.774  10.402 -0.3523 -0.1232 -0.0886
  477loPI    C3 7619   0.701  13.629  10.714 -0.2970  0.0563 -0.0397
  477loPI   PO4 7620   0.694  13.512   9.973 -0.2539  0.1480  0.0878
  477loPI   GL1 7621   1.016  13.571   9.736  0.1553 -0.1257  0.1068
  477loPI   GL2 7622   1.188  13.856   9.543  0.0769  0.1279 -0.2852
  477loPI   C1A 7623   1.040  13.406   9.238  0.2321  0.2271 -0.0368
  477loPI   C2A 7624   1.127  13.487   8.861  0.0369  0.1331 -0.5054
  477loPI   C3A 7625   1.152  13.408   8.433 -0.0477  0.3250  0.3274
  477loPI   C4A 7626   1.136  13.605   7.941  0.3637  0.0514  0.2638
  477loPI   C5A 7627   0.914  13.904   7.722 -0.0345 -0.1300  0.2873
  477loPI   C6A 7628   0.661  14.070   7.496  0.1081 -0.2585 -0.3094
  477loPI   C1B 7629   1.300  13.945   9.104  0.3422  0.1907  0.0805
  477loPI   C2B 7630   1.132  13.918   8.728 -0.0563 -0.0394  0.3236
  477loPI   C3B 7631   1.164  14.005   8.313  0.3973  0.1455 -0.0791
  477loPI   C4B 7632   1.322  14.118   7.942 -0.1653  0.0295  0.2025
  478loPI    C1 7633   6.109  12.125  10.377  0.0401  0.1521 -0.0345
  478loPI    C2 7634   5.762  11.930  10.348  0.0741  0.0820  0.0254
  478loPI    C3 7635   6.054  11.785  10.580  0.1919  0.0697 -0.1293
  478loPI   PO4 7636   6.177  12.208  10.061 -0.1394  0.3402 -0.3809
  478loPI   GL1 7637   5.761  12.191   9.818 -0.1217  0.1422 -0.0116
  478loPI   GL2 7638   5.834  11.989   9.772  0.0280  0.1347 -0.1099
  478loPI   C1A 7639   5.632  12.389   9.389 -0.1578 -0.2622  0.1804
  478loPI   C2A 7640   5.472  12.197   9.032 -0.0734  0.1561  0.1493
  478loPI   C3A 7641   5.367  12.391   8.666 -0.0968  0.2465 -0.2017
  478loPI   C4A 7642   5.629  12.600   8.437 -0.2207 -0.1608 -0.1576
  478loPI   C5A 7643   5.947  12.940   8.658  0.3233 -0.1506 -0.1118
  478loPI   C6A 7644   6.204  13.110   8.933  0.1272 -0.2549  0.0116
  478loPI   C1B 7645   5.796  11.890   9.308 -0.0790 -0.1326  0.1026
  478loPI   C2B 7646   5.935  11.762   8.891 -0.2395  0.1585 -0.0633
  478loPI   C3B 7647   5.861  11.525   8.431  0.0513  0.0391  0.1124
  478loPI   C4B 7648   5.814  11.249   8.062 -0.1173  0.0302  0.4017
  479loPI    C1 7649   9.935   5.125  10.267  0.0536 -0.0632  0.0775
  479loPI    C2 7650  10.219   4.899  10.436  0.0960 -0.0492  0.0252
  479loPI    C3 7651   9.888   4.991  10.641  0.1579 -0.0122  0.1092
  479loPI   PO4 7652  10.063   5.177  10.027  0.1908  0.1406 -0.3215
  479loPI   GL1 7653  10.027   5.027   9.641 -0.0147  0.2639 -0.1930
  479loPI   GL2 7654  10.368   5.028   9.539  0.0396 -0.0706 -0.3523
  479loPI   C1A 7655   9.987   4.994   9.245  0.1250  0.1979  0.1346
  479loPI   C2A 7656  10.116   4.996   8.881  0.0294  0.2518  0.0603
  479loPI   C3A 7657   9.894   5.100   8.499  0.3140 -0.1504  0.3168
  479loPI   C4A 7658  10.041   5.219   8.145 -0.1136  0.0703 -0.1241
  479loPI   C5A 7659   9.883   5.185   7.690 -0.3218 -0.2252  0.0262
  479loPI   C6A 7660   9.829   5.107   7.245  0.0249  0.0291 -0.1231
  479loPI   C1B 7661  10.602   5.017   9.118  0.1899  0.1662 -0.3216
  479loPI   C2B 7662  10.658   5.055   8.664 -0.0842 -0.1313 -0.0412
  479loPI   C3B 7663  10.809   5.057   8.256 -0.3722 -0.1122 -0.0073
  479loPI   C4B 7664  11.047   5.037   7.825 -0.3176 -0.0131 -0.0119
  480loPI    C1 7665   7.325  11.881  10.167 -0.0297  0.0370  0.3207
  480loPI    C2 7666   7.031  11.621  10.241 -0.1486  0.0916  0.0532
  480loPI    C3 7667   6.960  12.014  10.261 -0.1630  0.1071 -0.2573
  480loPI   PO4 7668   7.411  11.829   9.919 -0.1288 -0.3865  0.0872
  480loPI   GL1 7669   7.607  11.986   9.659  0.0966 -0.0274  0.1247
  480loPI   GL2 7670   7.934  11.982   9.555  0.0735 -0.3486  0.2489
  480loPI   C1A 7671   7.609  11.845   9.163  0.1990  0.1338 -0.3014
  480loPI   C2A 7672   7.526  11.762   8.702 -0.0077 -0.0972  0.1075
  480loPI   C3A 7673   7.456  11.924   8.234 -0.0605 -0.0827 -0.3132
  480loPI   C4A 7674   7.369  12.248   7.986 -0.2897  0.2461  0.0262
  480loPI   C5A 7675   7.413  12.585   7.607 -0.0510  0.1664  0.0661
  480loPI   C6A 7676   7.314  12.679   7.118 -0.1382 -0.0108 -0.3450
  480loPI   C1B 7677   7.827  12.259   9.229 -0.2246  0.0853 -0.1130
  480loPI   C2B 7678   7.740  12.257   8.751  0.3045 -0.1694  0.0014
  480loPI   C3B 7679   7.670  12.391   8.307  0.0809  0.1366  0.0201
  480loPI   C4B 7680   7.501  12.786   8.067  0.1014  0.2754 -0.0197
  481loPI    C1 7681  12.455  18.081  10.364  0.0300  0.0064  0.0196
  481loPI    C2 7682  12.491  18.001  10.754  0.0305  0.0925  0.0376
  481loPI    C3 7683  12.141  17.944  10.570  0.0209  0.0844  0.0581
  481loPI   PO4 7684  12.695  18.112  10.248 -0.0246  0.1179 -0.3799
  481loPI   GL1 7685  12.709  17.881   9.824 -0.1417  0.1090  0.0417
  481loPI   GL2 7686  13.074  17.939   9.978  0.3785  0.1220  0.2220
  481loPI   C1A 7687  12.598  17.775   9.448 -0.0514 -0.2597  0.1063
  481loPI   C2A 7688  12.774  17.992   9.034 -0.1047  0.1116 -0.0620
  481loPI   C3A 7689  13.082  18.109   8.726  0.2712 -0.0427 -0.0131
  481loPI   C4A 7690  13.284  18.093   8.245  0.3611 -0.1865  0.0358
  481loPI   C5A 7691  13.579  18.154   7.857 -0.1078  0.2506 -0.0782
  481loPI   C6A 7692  13.619  18.575   7.803 -0.1156 -0.2783 -0.2123
  481loPI   C1B 7693  13.261  17.927   9.598  0.0164 -0.2752 -0.1768
  481loPI   C2B 7694  13.271  17.877   9.179 -0.0377  0.0010 -0.1676
  481loPI   C3B 7695  13.485  18.218   9.048 -0.0004 -0.0318  0.2153
  481loPI   C4B 7696  13.573  18.259   8.678 -0.2763 -0.2097  0.2050
  482loPI    C1 7697   6.298  13.065   9.865 -0.0011 -0.1505 -0.1661
  482loPI    C2 7698   6.120  12.970  10.210  0.1197 -0.0046 -0.0624
  482loPI    C3 7699   6.147  12.698   9.918 -0.0978 -0.0886 -0.0062
  482loPI   PO4 7700   6.526  13.211   9.886 -0.1391  0.2602  0.0475
  482loPI   GL1 7701   6.360  13.599   9.644  0.1407 -0.3201  0.1329
  482loPI   GL2 7702   6.625  13.534   9.538  0.0075 -0.0413  0.0653
  482loPI   C1A 7703   6.162  13.512   9.184 -0.0703 -0.2354 -0.0891
  482loPI   C2A 7704   6.051  13.555   8.800 -0.2368  0.2445  0.2937
  482loPI   C3A 7705   6.068  13.522   8.370 -0.0734  0.0501  0.0330
  482loPI   C4A 7706   5.988  13.484   8.000  0.0784 -0.3048  0.1511
  482loPI   C5A 7707   6.109  13.166   7.700  0.1574  0.0008 -0.0100
  482loPI   C6A 7708   6.250  12.869   7.407 -0.0555  0.0094 -0.2156
  482loPI   C1B 7709   6.645  13.764   9.281 -0.0299 -0.0637  0.0377
  482loPI   C2B 7710   6.494  13.793   8.907  0.1088  0.0827 -0.1852
  482loPI   C3B 7711   6.548  13.805   8.429 -0.2182 -0.1573 -0.0776
  482loPI   C4B 7712   6.524  13.648   8.061  0.2558 -0.0410  0.0218
  483loPI    C1 7713   7.411  15.018  10.225 -0.1650  0.1498 -0.0500
  483loPI    C2 7714   7.244  15.055   9.863 -0.3116  0.0906  0.0110
  483loPI    C3 7715   7.093  15.255  10.175 -0.1589  0.1754  0.0315
  483loPI   PO4 7716   7.755  15.045  10.213  0.0109 -0.0048  0.2961
  483loPI   GL1 7717   7.743  14.944   9.767 -0.0148  0.1599 -0.1257
  483loPI   GL2 7718   7.801  14.613   9.634 -0.1542  0.0116  0.0294
  483loPI   C1A 7719   7.455  14.898   9.373 -0.1668 -0.1294  0.0474
  483loPI   C2A 7720   7.338  14.896   8.948  0.3042 -0.1457  0.1240
  483loPI   C3A 7721   7.342  14.884   8.444 -0.1071 -0.1790  0.0044
  483loPI   C4A 7722   7.372  14.933   8.026 -0.1259 -0.2076 -0.1365
  483loPI   C5A 7723   7.389  15.028   7.609  0.2134 -0.0423 -0.1227
  483loPI   C6A 7724   7.614  15.201   7.383  0.1804  0.1034  0.0659
  483loPI   C1B 7725   8.212  14.544   9.329  0.0447  0.1522  0.0286
  483loPI   C2B 7726   8.601  14.709   9.009  0.0740  0.0384  0.2914
  483loPI   C3B 7727   8.861  14.721   8.702 -0.0847  0.0411  0.1615
  483loPI   C4B 7728   9.120  14.934   8.443  0.1474 -0.2197  0.0920
  484loPI    C1 7729  17.330  11.628   9.970  0.0613 -0.0099 -0.0826
  484loPI    C2 7730  17.033  11.414   9.810  0.1667 -0.0750 -0.1932
  484loPI    C3 7731  16.993  11.569  10.177  0.0427 -0.1820 -0.1604
  484loPI   PO4 7732  17.427  11.707   9.842 -0.1372 -0.0006  0.1132
  484loPI   GL1 7733  17.597  11.591   9.452 -0.3107 -0.0315 -0.0533
  484loPI   GL2 7734  17.462  11.282   9.265  0.1145  0.0576  0.0228
  484loPI   C1A 7735  17.604  11.769   9.052  0.2647  0.0617  0.0064
  484loPI   C2A 7736  17.755  11.728   8.658 -0.4210  0.0336  0.1064
  484loPI   C3A 7737  17.967  11.592   8.217  0.0963  0.0119  0.0961
  484loPI   C4A 7738  17.855  11.584   7.737 -0.1352 -0.1218 -0.2053
  484loPI   C5A 7739  17.418  11.280   7.610  0.2199  0.2878 -0.1108
  484loPI   C6A 7740  17.344  10.924   7.268 -0.1430  0.1690  0.3456
  484loPI   C1B 7741  17.396  11.217   8.890  0.1145 -0.4492 -0.0126
  484loPI   C2B 7742  17.106  11.210   8.459 -0.2757  0.0886  0.1052
  484loPI   C3B 7743  17.095  11.118   8.053  0.0739  0.1645  0.2992
  484loPI   C4B 7744  17.378  10.746   7.746 -0.1471 -0.1184  0.0001
  485loPI    C1 7745   6.395   1.833  10.222  0.1260 -0.0580 -0.1052
  485loPI    C2 7746   6.745   1.940  10.382 -0.0218  0.0354  0.1628
  485loPI    C3 7747   6.437   2.195  10.387 -0.1743 -0.1474  0.1779
  485loPI   PO4 7748   6.490   1.496  10.176  0.0182 -0.3412 -0.0886
  485loPI   GL1 7749   6.374   1.322   9.706 -0.0909  0.1503  0.1626
  485loPI   GL2 7750   6.396   0.981   9.647 -0.1865 -0.2566 -0.2450
  485loPI   C1A 7751   6.189   1.399   9.305  0.0608  0.2291  0.3388
  485loPI   C2A 7752   6.153   1.312   8.846 -0.1536 -0.1188  0.1449
  485loPI   C3A 7753   6.392   1.350   8.464 -0.0875 -0.1547 -0.1215
  485loPI   C4A 7754   6.266   1.578   8.067  0.2815 -0.1888 -0.0840
  485loPI   C5A 7755   6.405   1.869   7.875  0.0271  0.0811 -0.0687
  485loPI   C6A 7756   6.352   1.999   7.445  0.0028 -0.2070  0.0508
  485loPI   C1B 7757   6.330   0.935   9.294  0.0423 -0.1104  0.2252
  485loPI   C2B 7758   6.338   0.835   8.834 -0.1395  0.1175 -0.0308
  485loPI   C3B 7759   6.279   0.785   8.402  0.1877 -0.1365 -0.1510
  485loPI   C4B 7760   6.448   0.700   8.038 -0.1492 -0.0112 -0.0101
  486loPI    C1 7761  17.421   5.126   9.992  0.1456 -0.1681  0.1088
  486loPI    C2 7762  17.063   4.955  10.041  0.0500  0.0311  0.1150
  486loPI    C3 7763  17.278   5.065  10.360  0.0049  0.1403  0.1083
  486loPI   PO4 7764  17.387   5.286   9.761 -0.0714  0.1046 -0.3487
  486loPI   GL1 7765  17.307   5.337   9.443  0.0436 -0.0665 -0.2589
  486loPI   GL2 7766  17.524   5.494   9.275  0.2656  0.1880 -0.0385
  486loPI   C1A 7767  17.033   5.227   9.094 -0.0366  0.0020 -0.0444
  486loPI   C2A 7768  16.989   5.106   8.712 -0.0929 -0.0856 -0.1074
  486loPI   C3A 7769  16.915   5.191   8.272 -0.1866 -0.0728  0.0114
  486loPI   C4A 7770  17.029   5.052   7.841  0.0382 -0.0099  0.1792
  486loPI   C5A 7771  17.138   5.129   7.392  0.4303  0.2532 -0.2707
  486loPI   C6A 7772  16.954   5.389   7.037 -0.0829  0.1509  0.0259
  486loPI   C1B 7773  17.814   5.263   9.188  0.0033 -0.1105 -0.3125
  486loPI   C2B 7774  18.115   4.997   8.977 -0.0975  0.1629 -0.1074
  486loPI   C3B 7775  18.418   4.907   8.668 -0.2037 -0.0057 -0.2041
  486loPI   C4B 7776  18.780   4.685   8.683 -0.1861 -0.0828 -0.0777
  487loPI    C1 7777   4.895   5.362   9.972 -0.0203  0.0569  0.1030
  487loPI    C2 7778   4.766   5.363  10.351 -0.2258 -0.0602  0.0347
  487loPI    C3 7779   5.157   5.398  10.273 -0.1879  0.0212  0.2546
  487loPI   PO4 7780   4.770   5.183   9.858 -0.1723 -0.1667  0.1414
  487loPI   GL1 7781   4.804   5.038   9.462 -0.1811 -0.2769  0.1089
  487loPI   GL2 7782   5.069   5.079   9.358 -0.0895 -0.0587 -0.1314
  487loPI   C1A 7783   4.690   5.329   9.116 -0.0431  0.1975  0.0479
  487loPI   C2A 7784   5.042   5.539   8.881  0.1686  0.4587 -0.3963
  487loPI   C3A 7785   5.250   5.722   8.461  0.2653 -0.2366  0.0584
  487loPI   C4A 7786   5.332   6.106   8.336  0.0679  0.0042  0.1995
  487loPI   C5A 7787   5.139   6.442   7.956 -0.1923 -0.0599  0.0580
  487loPI   C6A 7788   5.052   6.734   7.623  0.1102 -0.1404  0.4038
  487loPI   C1B 7789   5.171   5.047   8.980  0.2177  0.0304  0.1026
  487loPI   C2B 7790   5.357   4.977   8.699 -0.1565  0.0093 -0.2614
  487loPI   C3B 7791   5.492   4.868   8.415  0.2532 -0.1346 -0.0369
  487loPI   C4B 7792   5.819   4.686   8.164 -0.0016 -0.0298  0.3699
  488loPI    C1 7793  14.072  15.135  10.324 -0.0233 -0.0827  0.1175
  488loPI    C2 7794  14.261  15.393  10.564 -0.1705  0.1588 -0.0224
  488loPI    C3 7795  13.913  15.232  10.677 -0.2144  0.2332 -0.0511
  488loPI   PO4 7796  14.206  15.263  10.108  0.0122  0.2130 -0.3472
  488loPI   GL1 7797  14.224  15.164   9.707 -0.2750 -0.0575  0.1150
  488loPI   GL2 7798  13.957  15.408   9.701  0.0402 -0.1503  0.0859
  488loPI   C1A 7799  14.206  15.096   9.318 -0.3489  0.2330 -0.1640
  488loPI   C2A 7800  14.258  15.152   8.959  0.0894  0.0870  0.0374
  488loPI   C3A 7801  14.169  15.312   8.570 -0.1327  0.0425 -0.2368
  488loPI   C4A 7802  14.484  15.485   8.293  0.2198  0.1263  0.2432
  488loPI   C5A 7803  14.560  15.557   7.901  0.0229 -0.0073  0.1760
  488loPI   C6A 7804  14.855  15.412   7.579 -0.0263  0.0940 -0.1219
  488loPI   C1B 7805  14.060  15.584   9.360  0.0456  0.0982  0.1187
  488loPI   C2B 7806  14.181  15.729   8.880 -0.0320  0.0683  0.0473
  488loPI   C3B 7807  14.292  15.857   8.525  0.2037  0.2120 -0.0555
  488loPI   C4B 7808  14.066  15.856   8.250 -0.0727  0.2019 -0.0483
  489loPI    C1 7809  13.067  11.937   9.837 -0.2746  0.1669 -0.0619
  489loPI    C2 7810  13.191  12.103  10.179  0.0016 -0.3200  0.0844
  489loPI    C3 7811  13.385  12.181   9.838  0.1585 -0.3761  0.1597
  489loPI   PO4 7812  12.775  11.940   9.763  0.0592 -0.4699 -0.0401
  489loPI   GL1 7813  12.548  12.016   9.411  0.2766 -0.4246 -0.0353
  489loPI   GL2 7814  12.215  11.938   9.535  0.1165  0.1343  0.0678
  489loPI   C1A 7815  12.425  11.732   9.089  0.2352 -0.3918  0.1951
  489loPI   C2A 7816  12.410  11.542   8.626  0.1496 -0.1494 -0.1658
  489loPI   C3A 7817  12.363  11.344   8.169  0.0902 -0.0995 -0.0004
  489loPI   C4A 7818  12.326  11.204   7.762  0.2652  0.0453  0.0862
  489loPI   C5A 7819  11.964  11.278   7.343 -0.1868  0.3233  0.1602
  489loPI   C6A 7820  11.621  11.557   7.081  0.1809  0.3475 -0.2712
  489loPI   C1B 7821  11.972  11.632   9.244  0.0149 -0.2108  0.2970
  489loPI   C2B 7822  11.840  11.717   8.788 -0.0280  0.2075  0.1949
  489loPI   C3B 7823  11.733  11.632   8.449  0.0566 -0.0578 -0.0492
  489loPI   C4B 7824  11.764  11.509   8.095  0.1056  0.0435 -0.0939
  490loPI    C1 7825   5.116  13.745  10.316  0.0473  0.1326  0.0556
  490loPI    C2 7826   4.952  13.575  10.638 -0.1762 -0.1326 -0.1933
  490loPI    C3 7827   5.348  13.624  10.618 -0.1774  0.0843  0.2112
  490loPI   PO4 7828   5.026  13.629  10.109  0.4128  0.0983  0.1254
  490loPI   GL1 7829   4.721  13.634   9.853  0.1576  0.0191  0.0630
  490loPI   GL2 7830   4.680  13.963   9.898 -0.0949 -0.0996  0.2210
  490loPI   C1A 7831   4.872  13.588   9.475  0.1503 -0.4132  0.2873
  490loPI   C2A 7832   4.731  13.664   9.005 -0.0086  0.0281 -0.1252
  490loPI   C3A 7833   4.666  13.564   8.572  0.2199 -0.0782 -0.1614
  490loPI   C4A 7834   4.747  13.600   8.154  0.1552  0.1669 -0.0424
  490loPI   C5A 7835   4.662  13.549   7.880  0.0784 -0.2049  0.3401
  490loPI   C6A 7836   4.825  13.634   7.517  0.2140 -0.0267 -0.1657
  490loPI   C1B 7837   4.655  14.060   9.524  0.1286 -0.0309  0.1750
  490loPI   C2B 7838   4.685  14.156   9.136 -0.3029 -0.3146 -0.3093
  490loPI   C3B 7839   4.711  14.053   8.678  0.0011  0.0787 -0.1256
  490loPI   C4B 7840   4.701  14.151   8.251 -0.0926  0.4696 -0.1752
  491loPI    C1 7841   9.064   3.377  10.264  0.3170 -0.2041  0.2851
  491loPI    C2 7842   9.310   3.585  10.027 -0.3117 -0.1422 -0.3494
  491loPI    C3 7843   9.239   3.710  10.400  0.1056  0.1965 -0.3754
  491loPI   PO4 7844   8.885   3.341  10.171 -0.1281  0.2478 -0.0113
  491loPI   GL1 7845   8.900   3.465   9.753 -0.2965 -0.2102  0.0361
  491loPI   GL2 7846   9.064   3.211   9.736 -0.1306 -0.0268 -0.1753
  491loPI   C1A 7847   8.862   3.260   9.313  0.0138  0.0791 -0.1053
  491loPI   C2A 7848   8.908   3.234   8.832 -0.1358  0.0635 -0.0640
  491loPI   C3A 7849   9.104   2.970   8.521  0.1491  0.0517  0.0838
  491loPI   C4A 7850   9.223   3.023   8.062  0.3964  0.0476  0.2448
  491loPI   C5A 7851   9.320   3.377   7.857 -0.1080 -0.1124  0.0384
  491loPI   C6A 7852   9.560   3.703   7.898  0.2408 -0.0422 -0.1875
  491loPI   C1B 7853   9.368   3.186   9.249 -0.0352 -0.2672 -0.0687
  491loPI   C2B 7854   9.657   3.364   9.022  0.1470 -0.1024  0.1184
  491loPI   C3B 7855   9.790   3.593   8.674 -0.1929  0.0223 -0.0900
  491loPI   C4B 7856   9.697   3.871   8.392  0.4833 -0.2327  0.1223
  492loPI    C1 7857  10.406  17.697  10.506 -0.2140  0.1313  0.2754
  492loPI    C2 7858  10.217  18.048  10.469 -0.2405  0.0728 -0.2099
  492loPI    C3 7859  10.045  17.749  10.671 -0.2797  0.2901  0.0862
  492loPI   PO4 7860  10.565  17.714  10.289 -0.0794 -0.0658  0.1729
  492loPI   GL1 7861  10.469  17.690   9.947 -0.1751 -0.3188  0.0995
  492loPI   GL2 7862  10.191  17.831   9.995  0.4207 -0.1730 -0.2638
  492loPI   C1A 7863  10.512  17.489   9.502 -0.0245 -0.0244 -0.0912
  492loPI   C2A 7864  10.500  17.425   9.186  0.5519 -0.0203  0.0026
  492loPI   C3A 7865  10.598  17.570   8.690 -0.1154  0.0125  0.2173
  492loPI   C4A 7866  10.554  17.907   8.400 -0.4133  0.2912  0.1316
  492loPI   C5A 7867  10.207  18.173   8.226 -0.1851 -0.0855  0.2282
  492loPI   C6A 7868  10.257  18.712   8.351 -0.0607  0.1791 -0.2386
  492loPI   C1B 7869  10.055  17.497   9.680  0.1371 -0.0825  0.2538
  492loPI   C2B 7870  10.010  17.347   9.257 -0.0489  0.5199  0.0230
  492loPI   C3B 7871  10.096  17.159   8.804  0.4287 -0.0903  0.0601
  492loPI   C4B 7872  10.244  16.757   8.722 -0.2217 -0.0066 -0.1144
  493loPI    C1 7873   8.464  15.490  10.672 -0.1067 -0.1034 -0.0870
  493loPI    C2 7874   8.436  15.102  10.765 -0.0111 -0.1452 -0.2295
  493loPI    C3 7875   8.788  15.289  10.794 -0.0643 -0.0601 -0.1281
  493loPI   PO4 7876   8.420  15.518  10.381 -0.2315 -0.0458  0.0547
  493loPI   GL1 7877   8.729  15.650   9.980  0.3006  0.0394 -0.2685
  493loPI   GL2 7878   9.002  15.411   9.853  0.0998  0.0399 -0.2555
  493loPI   C1A 7879   8.449  15.640   9.726  0.3495 -0.0966 -0.1072
  493loPI   C2A 7880   8.117  15.495   9.475 -0.1070  0.2461 -0.2915
  493loPI   C3A 7881   8.202  15.462   9.032  0.0535  0.1527 -0.2447
  493loPI   C4A 7882   8.137  15.519   8.530  0.2234  0.0677  0.2747
  493loPI   C5A 7883   8.090  15.575   8.077  0.0579  0.0622  0.3439
  493loPI   C6A 7884   8.137  15.625   7.688 -0.0912  0.0416  0.1898
  493loPI   C1B 7885   8.986  15.580   9.516  0.2684  0.1981 -0.0009
  493loPI   C2B 7886   8.649  15.655   9.243 -0.1399  0.3122  0.0668
  493loPI   C3B 7887   8.547  15.746   8.850 -0.0190 -0.0685 -0.1552
  493loPI   C4B 7888   8.593  15.846   8.420  0.0246 -0.0294  0.0781
  494loPI    C1 7889   9.278  17.900  10.760 -0.0208 -0.0184 -0.1335
  494loPI    C2 7890   9.587  17.670  10.869 -0.0035 -0.0201 -0.1851
  494loPI    C3 7891   9.649  18.051  10.762 -0.0745  0.1204  0.2490
  494loPI   PO4 7892   9.141  17.760  10.540  0.3565 -0.1143  0.1792
  494loPI   GL1 7893   9.036  17.818  10.191 -0.0018 -0.1231 -0.1540
  494loPI   GL2 7894   9.370  17.782  10.023  0.0838  0.0552 -0.0141
  494loPI   C1A 7895   9.030  17.719   9.687  0.2663 -0.1192  0.1016
  494loPI   C2A 7896   9.002  17.495   9.319 -0.1625  0.0691 -0.0115
  494loPI   C3A 7897   8.951  17.464   8.811  0.0071 -0.0800 -0.1744
  494loPI   C4A 7898   8.962  17.735   8.414  0.2746  0.1844  0.0431
  494loPI   C5A 7899   8.953  17.860   7.999 -0.3570 -0.1247  0.1889
  494loPI   C6A 7900   8.811  17.982   7.534 -0.0113 -0.5400 -0.1237
  494loPI   C1B 7901   9.563  17.688   9.586 -0.0059  0.4060 -0.0732
  494loPI   C2B 7902   9.554  17.804   9.186 -0.0641  0.0845 -0.0945
  494loPI   C3B 7903   9.285  17.892   8.792 -0.1133 -0.0296  0.0733
  494loPI   C4B 7904   8.944  18.113   8.714 -0.0785 -0.0128 -0.1046
  495loPI    C1 7905  12.174  17.082  10.597 -0.0448 -0.0600 -0.0406
  495loPI    C2 7906  12.048  17.460  10.557 -0.3723 -0.1566  0.0511
  495loPI    C3 7907  12.135  17.315  10.919  0.0560 -0.0784 -0.0146
  495loPI   PO4 7908  12.176  17.104  10.284 -0.0242  0.3487 -0.1571
  495loPI   GL1 7909  12.031  16.894   9.868  0.0150 -0.2091  0.0912
  495loPI   GL2 7910  11.712  16.931   9.823 -0.0367 -0.1780  0.0785
  495loPI   C1A 7911  12.278  16.820   9.510  0.1486 -0.0723 -0.0136
  495loPI   C2A 7912  12.166  16.638   9.012  0.3771  0.2195  0.1387
  495loPI   C3A 7913  12.005  16.441   8.500 -0.5066 -0.0546  0.2269
  495loPI   C4A 7914  11.768  16.370   8.155 -0.1432 -0.1068 -0.0610
  495loPI   C5A 7915  11.592  16.499   7.732 -0.0114  0.1232  0.1796
  495loPI   C6A 7916  11.153  16.268   7.765 -0.3216  0.1426 -0.1174
  495loPI   C1B 7917  11.809  16.574   9.550  0.1720 -0.0768  0.0716
  495loPI   C2B 7918  11.671  16.508   9.124 -0.0882 -0.0965  0.1599
  495loPI   C3B 7919  11.689  16.192   8.773 -0.3385  0.3573 -0.2231
  495loPI   C4B 7920  11.669  15.986   8.455 -0.0022 -0.2553 -0.2494
  496loPI    C1 7921   8.545  14.615  10.266 -0.0832 -0.0297 -0.2044
  496loPI    C2 7922   8.321  14.288  10.312  0.0883 -0.1225 -0.0142
  496loPI    C3 7923   8.272  14.600  10.557  0.2392 -0.1851  0.0971
  496loPI   PO4 7924   8.522  14.687  10.046 -0.1829 -0.1372 -0.0387
  496loPI   GL1 7925   8.651  14.658   9.537 -0.1421  0.2328 -0.2817
  496loPI   GL2 7926   8.869  14.725   9.710 -0.3014 -0.1685 -0.0631
  496loPI   C1A 7927   8.610  14.294   9.235 -0.0340  0.0617 -0.0742
  496loPI   C2A 7928   8.722  14.164   8.732  0.0113 -0.0503 -0.2956
  496loPI   C3A 7929   8.913  14.216   8.468  0.0705 -0.0740  0.1818
  496loPI   C4A 7930   9.224  14.435   8.181 -0.2392 -0.1471 -0.2463
  496loPI   C5A 7931   9.151  14.786   7.950 -0.2751  0.1215 -0.0542
  496loPI   C6A 7932   9.023  15.158   8.003 -0.2941  0.1659 -0.1386
  496loPI   C1B 7933   9.000  14.856   9.177 -0.1384  0.1983 -0.0046
  496loPI   C2B 7934   9.084  15.174   8.938  0.1858 -0.0977 -0.2099
  496loPI   C3B 7935   8.987  15.560   8.633 -0.1382  0.0289  0.2865
  496loPI   C4B 7936   9.077  15.636   8.185  0.1544  0.5210 -0.0019
  497loPI    C1 7937  19.005  16.257  10.234  0.1242 -0.0481  0.1800
  497loPI    C2 7938  18.664  16.444  10.327  0.0688 -0.1042  0.0912
  497loPI    C3 7939  19.007  16.556  10.500  0.0223  0.0213  0.1034
  497loPI   PO4 7940  19.025  16.325  10.006  0.0659 -0.0488 -0.2643
  497loPI   GL1 7941  19.209  16.351   9.596 -0.1203  0.2746  0.3031
  497loPI   GL2 7942  18.971  16.071   9.600 -0.4147  0.0165  0.1595
  497loPI   C1A 7943  19.286  16.453   9.127  0.0885 -0.0796 -0.1927
  497loPI   C2A 7944  19.152  16.623   8.732  0.1822  0.2728 -0.1444
  497loPI   C3A 7945  19.253  16.753   8.404 -0.0535 -0.1921 -0.2009
  497loPI   C4A 7946  18.974  16.926   8.171 -0.0224  0.0566 -0.3389
  497loPI   C5A 7947  18.907  17.129   7.766 -0.1616 -0.0665 -0.1113
  497loPI   C6A 7948  18.635  17.243   7.411 -0.4216 -0.0115 -0.1032
  497loPI   C1B 7949  19.098  15.880   9.180  0.1077  0.3055  0.0712
  497loPI   C2B 7950  19.177  16.049   8.774 -0.3976  0.0078  0.0414
  497loPI   C3B 7951  18.947  16.251   8.434  0.1685  0.4887  0.3952
  497loPI   C4B 7952  18.929  16.116   8.018  0.0326  0.2262  0.3372
  498loPI    C1 7953  16.245  17.654  10.272 -0.0395 -0.1738  0.2683
  498loPI    C2 7954  16.255  17.322  10.495  0.3836 -0.1956  0.2256
  498loPI    C3 7955  16.531  17.380  10.211  0.2933  0.1777  0.2092
  498loPI   PO4 7956  15.975  17.668  10.194 -0.1442  0.4064 -0.3581
  498loPI   GL1 7957  15.816  17.581   9.831 -0.0983  0.0410 -0.5432
  498loPI   GL2 7958  16.205  17.634   9.736  0.2057  0.1411 -0.0232
  498loPI   C1A 7959  15.844  17.335   9.547  0.3161  0.0678  0.0213
  498loPI   C2A 7960  15.480  17.252   9.314  0.0992 -0.2385  0.4861
  498loPI   C3A 7961  15.435  17.069   8.909  0.2067  0.1125  0.1094
  498loPI   C4A 7962  15.484  17.112   8.489  0.1875  0.0124 -0.1295
  498loPI   C5A 7963  15.158  16.984   8.206 -0.2169 -0.1654 -0.1379
  498loPI   C6A 7964  14.988  16.892   7.821 -0.0545 -0.2422 -0.1891
  498loPI   C1B 7965  16.335  17.452   9.362  0.0462 -0.0820 -0.1023
  498loPI   C2B 7966  16.285  17.228   8.835  0.1978 -0.1557 -0.2316
  498loPI   C3B 7967  16.343  17.029   8.420  0.0935 -0.2055  0.1311
  498loPI   C4B 7968  16.517  16.962   7.989 -0.2504  0.1937  0.2791
  499loPI    C1 7969  14.645  15.052  10.438  0.0851  0.1424  0.0699
  499loPI    C2 7970  14.619  14.655  10.398  0.1040  0.1850 -0.4326
  499loPI    C3 7971  14.363  14.850  10.636  0.1206 -0.1288 -0.1502
  499loPI   PO4 7972  14.744  15.122  10.106 -0.2080  0.1389 -0.1662
  499loPI   GL1 7973  14.719  15.031   9.662  0.0314  0.0832  0.0504
  499loPI   GL2 7974  15.059  15.122   9.725  0.1322 -0.4096 -0.3696
  499loPI   C1A 7975  14.654  14.863   9.232 -0.2171 -0.2962 -0.2659
  499loPI   C2A 7976  14.729  14.797   8.811  0.1727  0.0105  0.0024
  499loPI   C3A 7977  14.655  15.116   8.452  0.2874 -0.0381 -0.0314
  499loPI   C4A 7978  14.547  15.068   8.030  0.1150 -0.1297 -0.0680
  499loPI   C5A 7979  14.625  14.998   7.727  0.1242  0.0944  0.1595
  499loPI   C6A 7980  14.755  14.798   7.469 -0.1455 -0.1019 -0.3251
  499loPI   C1B 7981  15.082  15.237   9.317 -0.1082 -0.1846  0.0190
  499loPI   C2B 7982  14.954  15.178   8.920 -0.1172 -0.0401  0.1202
  499loPI   C3B 7983  15.176  15.191   8.428 -0.3676  0.0927 -0.1418
  499loPI   C4B 7984  14.985  15.374   8.111 -0.2761 -0.1376  0.0128
  500loPI    C1 7985   5.603  17.890  10.306  0.1504  0.0259 -0.1280
  500loPI    C2 7986   5.433  17.538  10.223  0.0470  0.0738 -0.1217
  500loPI    C3 7987   5.553  17.620  10.596  0.0356  0.0607 -0.1151
  500loPI   PO4 7988   5.501  18.143  10.179 -0.1281  0.1131  0.0543
  500loPI   GL1 7989   5.506  18.444   9.822 -0.0321 -0.0913 -0.2224
  500loPI   GL2 7990   5.512  18.261   9.631  0.1099  0.0864  0.2927
  500loPI   C1A 7991   5.550  18.759   9.496  0.0775  0.0726 -0.1435
  500loPI   C2A 7992   5.612  18.726   9.000  0.0940  0.0556 -0.0948
  500loPI   C3A 7993   5.669  18.718   8.625 -0.2003  0.2078  0.1875
  500loPI   C4A 7994   5.633  18.733   8.236  0.0078  0.1485  0.1362
  500loPI   C5A 7995   5.812  18.806   7.909 -0.0378 -0.0172  0.3118
  500loPI   C6A 7996   6.044  18.803   7.595 -0.1652 -0.1559  0.0955
  500loPI   C1B 7997   5.650  18.199   9.175 -0.2477 -0.0867 -0.0359
  500loPI   C2B 7998   5.653  18.240   8.812 -0.2998  0.0526 -0.1361
  500loPI   C3B 7999   5.796  18.276   8.490 -0.4240  0.0861 -0.2090
  500loPI   C4B 8000   5.788  18.256   8.090 -0.0473  0.1710  0.0685
  501loPI    C1 8001  16.631  11.714   9.378  0.1534  0.0864 -0.0595
  501loPI    C2 8002  16.301  11.917   9.477  0.1860 -0.1065  0.4788
  501loPI    C3 8003  16.656  12.101   9.477  0.0946  0.0883 -0.0520
  501loPI   PO4 8004  16.588  11.446   9.457 -0.1313  0.0978 -0.2058
  501loPI   GL1 8005  16.288  11.121   9.400 -0.1662 -0.0256 -0.3527
  501loPI   GL2 8006  16.083  11.340   9.297  0.1153 -0.0474  0.2083
  501loPI   C1A 8007  16.358  11.094   8.912  0.1997  0.1176 -0.0467
  501loPI   C2A 8008  16.160  11.316   8.571 -0.0246 -0.2219 -0.2276
  501loPI   C3A 8009  16.248  11.588   8.276  0.2739  0.0773 -0.2731
  501loPI   C4A 8010  16.428  11.746   7.902 -0.0492  0.0251  0.0389
  501loPI   C5A 8011  16.465  11.905   7.500  0.2210  0.0996  0.0027
  501loPI   C6A 8012  16.730  11.777   7.221  0.0631 -0.1400 -0.0276
  501loPI   C1B 8013  16.173  11.624   8.986 -0.0345 -0.0639  0.1493
  501loPI   C2B 8014  16.283  11.944   8.589 -0.0314  0.0218 -0.1461
  501loPI   C3B 8015  16.613  12.034   8.247 -0.4523 -0.5278  0.1011
  501loPI   C4B 8016  16.686  12.177   7.844 -0.0626  0.3824  0.0477
  502loPI    C1 8017  16.112  18.504  10.192  0.2178 -0.0937 -0.1734
  502loPI    C2 8018  16.330  18.833  10.257  0.0955 -0.0884  0.2431
  502loPI    C3 8019  16.509  18.476  10.232  0.2078 -0.0167 -0.0134
  502loPI   PO4 8020  15.928  18.561   9.946 -0.0987  0.0207  0.2845
  502loPI   GL1 8021  15.801  18.350   9.500 -0.0639 -0.0144 -0.0359
  502loPI   GL2 8022  16.023  18.237   9.425 -0.2599 -0.2966  0.2459
  502loPI   C1A 8023  15.647  18.175   9.081 -0.1357  0.0026  0.0866
  502loPI   C2A 8024  15.756  17.985   8.670  0.1332 -0.0138 -0.0878
  502loPI   C3A 8025  15.362  18.156   8.531  0.0536  0.2302  0.2996
  502loPI   C4A 8026  15.002  18.425   8.377 -0.0382  0.0400  0.2476
  502loPI   C5A 8027  14.742  18.316   8.000  0.0620 -0.1944  0.1070
  502loPI   C6A 8028  14.429  18.241   7.663 -0.1059  0.0851 -0.0708
  502loPI   C1B 8029  15.996  17.834   9.316  0.2416 -0.2094 -0.1096
  502loPI   C2B 8030  15.863  17.534   9.036 -0.1224  0.0004 -0.2178
  502loPI   C3B 8031  15.819  17.447   8.601  0.0247 -0.2854 -0.4015
  502loPI   C4B 8032  15.908  17.564   8.216 -0.2513 -0.0526  0.0659
  503loPI    C1 8033   0.245   2.286   9.596  0.0027  0.2721 -0.4566
  503loPI    C2 8034   0.039   2.613   9.700 -0.1740  0.0799 -0.1912
  503loPI    C3 8035  -0.058   2.257   9.855  0.3133 -0.0267 -0.1156
  503loPI   PO4 8036   0.257   2.265   9.340  0.0887 -0.0895 -0.0116
  503loPI   GL1 8037   0.473   2.131   9.075 -0.1925 -0.0578 -0.4785
  503loPI   GL2 8038   0.614   2.493   9.188 -0.3226 -0.0161  0.2468
  503loPI   C1A 8039   0.772   2.260   8.718 -0.2516  0.0710  0.0516
  503loPI   C2A 8040   0.854   2.632   8.387 -0.0503  0.1055  0.0177
  503loPI   C3A 8041   0.911   2.642   7.982  0.1780 -0.0525 -0.1804
  503loPI   C4A 8042   0.893   2.812   7.463  0.1741 -0.1842 -0.0058
  503loPI   C5A 8043   0.858   3.188   7.126 -0.0064 -0.0384  0.3187
  503loPI   C6A 8044   0.689   3.578   7.148  0.3389  0.2575 -0.2137
  503loPI   C1B 8045   0.413   2.661   8.767  0.0293  0.0039 -0.0977
  503loPI   C2B 8046   0.148   2.823   8.414 -0.1058  0.2883  0.2205
  503loPI   C3B 8047  -0.156   2.744   8.116  0.0376  0.0445  0.0235
  503loPI   C4B 8048  -0.472   2.742   7.916 -0.1315  0.3988  0.1415
  504loPI    C1 8049   9.017  13.929  10.278  0.0466  0.1207  0.2108
  504loPI    C2 8050   8.868  13.622  10.486  0.0044 -0.1161 -0.1585
  504loPI    C3 8051   9.165  13.842  10.639  0.0708 -0.3715  0.0890
  504loPI   PO4 8052   9.143  13.851  10.032  0.0422  0.0012  0.2083
  504loPI   GL1 8053   9.135  13.951   9.599  0.1055 -0.1359 -0.0285
  504loPI   GL2 8054   9.057  14.240   9.474  0.0851 -0.4736  0.0428
  504loPI   C1A 8055   9.230  13.813   9.178  0.1680 -0.1160 -0.1611
  504loPI   C2A 8056   9.239  13.945   8.764  0.4964  0.0157  0.0436
  504loPI   C3A 8057   9.372  13.995   8.359  0.0343  0.0941  0.0627
  504loPI   C4A 8058   9.318  14.014   7.891 -0.0656  0.2936  0.0010
  504loPI   C5A 8059   9.201  13.938   7.430 -0.0225 -0.3562  0.1957
  504loPI   C6A 8060   9.030  13.922   7.084  0.0943 -0.0181 -0.1375
  504loPI   C1B 8061   9.101  14.371   9.080 -0.2434  0.1841 -0.0267
  504loPI   C2B 8062   9.283  14.481   8.745  0.0148  0.0910  0.3746
  504loPI   C3B 8063   9.591  14.650   8.603  0.0939 -0.0271 -0.1658
  504loPI   C4B 8064   9.615  14.852   8.239  0.3215 -0.3045 -0.2739
  505loPI    C1 8065  15.186   4.987  10.047  0.0237 -0.2674  0.0447
  505loPI    C2 8066  14.789   4.978   9.997 -0.0296  0.0149  0.3715
  505loPI    C3 8067  14.955   4.794  10.311  0.0676  0.1470  0.3981
  505loPI   PO4 8068  15.300   4.890   9.889 -0.2406  0.3865 -0.0346
  505loPI   GL1 8069  15.374   5.089   9.489  0.1553  0.2822 -0.0722
  505loPI   GL2 8070  15.112   5.250   9.582 -0.3015 -0.1323  0.2885
  505loPI   C1A 8071  15.438   4.938   9.066  0.0798 -0.1068  0.0414
  505loPI   C2A 8072  15.670   4.864   8.708 -0.0396  0.0843 -0.2890
  505loPI   C3A 8073  15.859   5.029   8.356  0.1604 -0.0987 -0.4075
  505loPI   C4A 8074  16.098   5.129   7.974  0.0307  0.2485  0.0939
  505loPI   C5A 8075  16.332   5.291   7.594 -0.0937 -0.0882  0.2186
  505loPI   C6A 8076  16.762   5.383   7.478 -0.1851 -0.0309 -0.0688
  505loPI   C1B 8077  14.963   5.431   9.075  0.0985  0.1961  0.2795
  505loPI   C2B 8078  14.712   5.333   8.704 -0.0809 -0.3634  0.1297
  505loPI   C3B 8079  14.649   5.417   8.259 -0.4967  0.4439  0.2634
  505loPI   C4B 8080  14.744   5.501   7.844  0.1468  0.0695 -0.0358
  506loPI    C1 8081  12.074   1.014  10.239 -0.0537  0.2215  0.0286
  506loPI    C2 8082  12.388   0.930  10.473 -0.0445  0.3174  0.0510
  506loPI    C3 8083  12.025   0.789  10.566  0.0328  0.0083 -0.1028
  506loPI   PO4 8084  12.189   1.026   9.921  0.1369 -0.1316 -0.1664
  506loPI   GL1 8085  12.123   1.029   9.495 -0.3590 -0.2821 -0.2703
  506loPI   GL2 8086  12.087   0.702   9.581  0.1887 -0.0662 -0.0449
  506loPI   C1A 8087  12.146   1.040   9.104  0.1406 -0.0290  0.1932
  506loPI   C2A 8088  12.169   0.799   8.821 -0.0912  0.0952  0.0363
  506loPI   C3A 8089  12.294   0.497   8.481  0.1307 -0.0029  0.0291
  506loPI   C4A 8090  12.090   0.271   8.215  0.0312 -0.2605  0.2478
  506loPI   C5A 8091  11.732   0.210   7.881  0.0151 -0.0348  0.2537
  506loPI   C6A 8092  11.874   0.041   7.540  0.3281  0.0127  0.1331
  506loPI   C1B 8093  12.384   0.619   9.237 -0.1734 -0.1042 -0.1583
  506loPI   C2B 8094  12.707   0.760   8.875 -0.1352 -0.0829 -0.0623
  506loPI   C3B 8095  12.672   0.919   8.549 -0.0465  0.0341  0.0602
  506loPI   C4B 8096  12.518   0.957   8.076  0.2192 -0.0685  0.0148
  507loPI    C1 8097  10.281   8.445  10.333  0.1925 -0.1531 -0.0926
  507loPI    C2 8098  10.501   8.244  10.065 -0.0922 -0.2898 -0.2282
  507loPI    C3 8099  10.527   8.153  10.453  0.3567 -0.0599 -0.1982
  507loPI   PO4 8100  10.041   8.403  10.216  0.0547  0.0420 -0.4011
  507loPI   GL1 8101  10.007   8.249   9.885  0.0628  0.0350 -0.0696
  507loPI   GL2 8102  10.007   8.398   9.642  0.0664  0.2250 -0.0370
  507loPI   C1A 8103   9.866   7.930   9.482 -0.3400 -0.2872  0.0372
  507loPI   C2A 8104   9.925   7.886   9.041 -0.1645 -0.1702 -0.1061
  507loPI   C3A 8105   9.828   7.905   8.652 -0.0909 -0.2156 -0.1993
  507loPI   C4A 8106   9.773   8.089   8.294  0.0736  0.0255  0.0970
  507loPI   C5A 8107   9.590   8.027   7.898  0.1614  0.1765 -0.2135
  507loPI   C6A 8108   9.546   8.278   7.643 -0.1085  0.0448  0.1506
  507loPI   C1B 8109  10.019   8.287   9.253 -0.1235 -0.2493 -0.2770
  507loPI   C2B 8110   9.993   8.428   8.912 -0.1714  0.0324  0.1619
  507loPI   C3B 8111   9.757   8.524   8.570  0.0618 -0.4179  0.0157
  507loPI   C4B 8112   9.490   8.794   8.389 -0.0391 -0.2517  0.2101
  508loPI    C1 8113  18.938  14.030  10.113 -0.0250  0.1028 -0.1719
  508loPI    C2 8114  19.103  13.734  10.326 -0.0067  0.3407  0.1518
  508loPI    C3 8115  19.235  14.109  10.369 -0.0440  0.4029 -0.2390
  508loPI   PO4 8116  18.937  14.014   9.895 -0.0185 -0.1035  0.3286
  508loPI   GL1 8117  19.094  13.686   9.558  0.0095  0.0988  0.1788
  508loPI   GL2 8118  18.851  13.734   9.433  0.0267  0.2014  0.2919
  508loPI   C1A 8119  19.283  13.881   9.196 -0.1142 -0.0097  0.0660
  508loPI   C2A 8120  19.393  14.080   8.830 -0.0452 -0.0339 -0.0751
  508loPI   C3A 8121  19.398  14.219   8.295 -0.2167  0.0688 -0.1064
  508loPI   C4A 8122  19.436  14.435   7.876  0.0903  0.1576  0.0258
  508loPI   C5A 8123  19.306  14.828   7.632 -0.3482  0.0714  0.3644
  508loPI   C6A 8124  19.195  15.235   7.649 -0.1456 -0.0615  0.1702
  508loPI   C1B 8125  18.833  14.010   9.049 -0.2292 -0.3289 -0.1121
  508loPI   C2B 8126  18.976  14.214   8.691 -0.0026 -0.0454  0.0261
  508loPI   C3B 8127  19.215  14.544   8.560  0.0311  0.1230  0.1646
  508loPI   C4B 8128  19.370  14.877   8.136  0.0404 -0.0024 -0.0991
  509loPI    C1 8129   6.461  10.723   9.882 -0.0892 -0.1984 -0.1662
  509loPI    C2 8130   6.369  10.823  10.258  0.1995 -0.0312 -0.1369
  509loPI    C3 8131   6.081  10.798   9.982 -0.0077 -0.1037  0.0818
  509loPI   PO4 8132   6.623  10.891   9.797  0.4451 -0.0351 -0.0517
  509loPI   GL1 8133   6.883  10.963   9.483 -0.0428  0.0044  0.1319
  509loPI   GL2 8134   6.924  11.258   9.335  0.0217 -0.2930  0.0547
  509loPI   C1A 8135   7.119  10.668   9.333  0.0537 -0.3231  0.2478
  509loPI   C2A 8136   7.249  10.679   8.848  0.1482  0.2176  0.1649
  509loPI   C3A 8137   7.198  10.846   8.401  0.3624  0.1329  0.0675
  509loPI   C4A 8138   7.083  11.062   7.940 -0.0136  0.1252 -0.1126
  509loPI   C5A 8139   7.098  11.299   7.598  0.3043 -0.0512  0.1590
  509loPI   C6A 8140   6.924  11.631   7.309 -0.0626  0.2038 -0.3667
  509loPI   C1B 8141   6.581  11.201   9.085  0.3302 -0.0384  0.1501
  509loPI   C2B 8142   6.417  11.293   8.674 -0.2274 -0.1701 -0.3068
  509loPI   C3B 8143   6.235  11.091   8.402 -0.0102  0.0646  0.1537
  509loPI   C4B 8144   6.103  10.819   8.064  0.1109 -0.3026 -0.0320
  510loPI    C1 8145   5.370  18.978  10.294 -0.1262 -0.0970  0.1364
  510loPI    C2 8146   5.682  18.812  10.482 -0.0462 -0.0752  0.0245
  510loPI    C3 8147   5.546  19.169  10.599  0.2415  0.1102 -0.1963
  510loPI   PO4 8148   5.429  18.920  10.056 -0.1906  0.2181 -0.1697
  510loPI   GL1 8149   5.869  18.953   9.799 -0.0112 -0.2237 -0.0611
  510loPI   GL2 8150   6.185  18.871   9.755 -0.0063  0.0004 -0.3029
  510loPI   C1A 8151   5.908  19.058   9.356  0.2200 -0.2768 -0.1815
  510loPI   C2A 8152   6.038  19.132   8.866 -0.0639  0.1328 -0.0265
  510loPI   C3A 8153   6.085  18.981   8.563  0.1017  0.0701  0.0480
  510loPI   C4A 8154   6.046  19.101   8.276  0.3106 -0.3541 -0.0713
  510loPI   C5A 8155   6.261  19.132   7.991 -0.0575  0.1613 -0.1519
  510loPI   C6A 8156   6.175  19.436   7.645  0.0293 -0.3434  0.1311
  510loPI   C1B 8157   6.389  19.067   9.237 -0.4314  0.0269 -0.0375
  510loPI   C2B 8158   6.497  19.286   8.889 -0.0328  0.1351  0.0937
  510loPI   C3B 8159   6.388  19.425   8.494  0.1243  0.0227 -0.2259
  510loPI   C4B 8160   6.702  19.692   8.466 -0.0104  0.3363 -0.0340
  511loPI    C1 8161  14.340   9.186  10.010 -0.2207 -0.0479 -0.2447
  511loPI    C2 8162  14.025   9.292  10.232 -0.0788 -0.0470 -0.0406
  511loPI    C3 8163  14.146   8.911  10.226 -0.1298 -0.0617 -0.1799
  511loPI   PO4 8164  14.400   9.289   9.774  0.6318 -0.3289  0.2808
  511loPI   GL1 8165  14.256   9.211   9.358  0.1636 -0.0096  0.2682
  511loPI   GL2 8166  14.153   9.575   9.386 -0.2123 -0.0692  0.0384
  511loPI   C1A 8167  14.589   9.330   9.067 -0.0378 -0.0534  0.2022
  511loPI   C2A 8168  14.443   9.489   8.636  0.0665  0.2190 -0.3903
  511loPI   C3A 8169  14.427   9.625   8.283  0.1696 -0.2153  0.0398
  511loPI   C4A 8170  14.264   9.665   7.892 -0.0078 -0.1099 -0.1813
  511loPI   C5A 8171  14.263   9.889   7.572 -0.0819  0.0457 -0.1898
  511loPI   C6A 8172  14.114   9.917   7.190  0.1539 -0.1655  0.1979
  511loPI   C1B 8173  14.299   9.749   9.021  0.2985 -0.2304 -0.1650
  511loPI   C2B 8174  14.357  10.037   8.761 -0.0673 -0.1049  0.1117
  511loPI   C3B 8175  14.430  10.129   8.395 -0.1136 -0.0466  0.0977
  511loPI   C4B 8176  14.418  10.076   8.047  0.1352  0.4969 -0.0026
  512loPI    C1 8177   2.467   4.907   9.607  0.0813 -0.1760  0.3330
  512loPI    C2 8178   2.846   4.978   9.498 -0.0004  0.0881  0.2138
  512loPI    C3 8179   2.596   5.283   9.565 -0.2610 -0.0857  0.0506
  512loPI   PO4 8180   2.400   4.685   9.443 -0.0175 -0.1558 -0.0330
  512loPI   GL1 8181   2.214   4.661   9.133 -0.0966  0.2068  0.0672
  512loPI   GL2 8182   1.908   4.521   9.110 -0.0313  0.2727 -0.0368
  512loPI   C1A 8183   2.049   4.794   8.725  0.2544  0.0584 -0.2159
  512loPI   C2A 8184   1.890   4.955   8.405  0.5523 -0.3183  0.2695
  512loPI   C3A 8185   1.994   4.849   8.018 -0.2874  0.0634  0.0985
  512loPI   C4A 8186   1.929   4.849   7.568 -0.0900 -0.2755 -0.2645
  512loPI   C5A 8187   1.973   5.009   7.136 -0.0530  0.0573 -0.2018
  512loPI   C6A 8188   1.817   4.779   6.833  0.1874 -0.1933 -0.1959
  512loPI   C1B 8189   1.687   4.343   8.732  0.0656 -0.0723  0.2244
  512loPI   C2B 8190   1.726   4.412   8.279 -0.2350  0.3107  0.0386
  512loPI   C3B 8191   1.816   4.407   7.874  0.0739 -0.1310  0.0869
  512loPI   C4B 8192   1.563   4.520   7.498 -0.0293 -0.0066  0.0757
  513loPI    C1 8193   8.281  13.227   9.869  0.0255  0.1513  0.1465
  513loPI    C2 8194   8.603  13.022   9.986  0.0423  0.0390 -0.0912
  513loPI    C3 8195   8.269  12.828   9.883 -0.0713  0.1507  0.0633
  513loPI   PO4 8196   8.367  13.395   9.748 -0.0639  0.3209  0.1157
  513loPI   GL1 8197   8.287  13.465   9.353  0.2308 -0.0963  0.1681
  513loPI   GL2 8198   8.008  13.457   9.360 -0.0910 -0.0914  0.0635
  513loPI   C1A 8199   8.438  13.390   8.937 -0.1167 -0.0417 -0.2516
  513loPI   C2A 8200   8.297  13.384   8.531 -0.0161 -0.2118 -0.1425
  513loPI   C3A 8201   8.100  13.311   8.155  0.0521 -0.2327 -0.0349
  513loPI   C4A 8202   7.957  13.096   7.878  0.0616 -0.0002 -0.0705
  513loPI   C5A 8203   7.817  13.236   7.524 -0.2255  0.0433  0.0461
  513loPI   C6A 8204   7.660  13.083   7.102 -0.0120 -0.1480 -0.0599
  513loPI   C1B 8205   7.966  13.570   8.960 -0.1195 -0.1534  0.0967
  513loPI   C2B 8206   7.861  13.677   8.585  0.2635 -0.0937 -0.1297
  513loPI   C3B 8207   8.010  13.756   8.131  0.0806 -0.2162  0.2216
  513loPI   C4B 8208   7.753  13.722   7.740 -0.2233  0.1191 -0.0400
  514loPI    C1 8209   2.124  14.042  10.461  0.3369 -0.2268 -0.1275
  514loPI    C2 8210   2.180  13.661  10.569 -0.1364 -0.2353  0.1166
  514loPI    C3 8211   2.121  13.941  10.848  0.1591  0.0137 -0.0638
  514loPI   PO4 8212   2.016  14.080  10.283 -0.0296 -0.0856  0.1072
  514loPI   GL1 8213   1.876  14.064   9.851  0.3267  0.2842  0.1088
  514loPI   GL2 8214   1.952  13.768   9.609 -0.2629 -0.0077 -0.0776
  514loPI   C1A 8215   1.962  14.441   9.630 -0.1700  0.3396 -0.0395
  514loPI   C2A 8216   1.862  14.595   9.230 -0.2728  0.0978 -0.1675
  514loPI   C3A 8217   2.006  14.418   8.814  0.2972  0.0308 -0.2442
  514loPI   C4A 8218   1.942  14.435   8.445  0.0774  0.0152  0.1650
  514loPI   C5A 8219   1.615  14.430   8.190  0.1489  0.3904 -0.1713
  514loPI   C6A 8220   1.217  14.560   8.208 -0.0306 -0.0570  0.0863
  514loPI   C1B 8221   2.176  13.758   9.291 -0.1338  0.3650  0.0912
  514loPI   C2B 8222   2.486  13.628   8.991  0.1850  0.0282 -0.0402
  514loPI   C3B 8223   2.518  13.743   8.586  0.1228  0.0812 -0.0292
  514loPI   C4B 8224   2.544  13.771   8.242  0.1295 -0.1374  0.1994
  515loPI    C1 8225  16.762  17.902  10.081 -0.1632  0.0178  0.0111
  515loPI    C2 8226  16.651  17.883  10.465 -0.1829 -0.0440  0.0024
  515loPI    C3 8227  16.929  17.632  10.324 -0.1759 -0.0217 -0.0241
  515loPI   PO4 8228  16.575  17.923   9.862 -0.0060 -0.1026  0.2745
  515loPI   GL1 8229  16.534  17.955   9.358  0.2266 -0.0538 -0.3078
  515loPI   GL2 8230  16.638  18.134   9.183  0.0269 -0.2571  0.0704
  515loPI   C1A 8231  16.215  18.012   8.906  0.0774  0.1308  0.2185
  515loPI   C2A 8232  16.352  17.775   8.493  0.3722  0.0446  0.1247
  515loPI   C3A 8233  16.418  17.673   8.030 -0.1823  0.1411 -0.1528
  515loPI   C4A 8234  16.304  17.399   7.790 -0.1892 -0.1710  0.1962
  515loPI   C5A 8235  16.621  17.262   7.420  0.1919  0.2801 -0.0008
  515loPI   C6A 8236  16.975  17.147   7.393 -0.0085 -0.0909  0.0274
  515loPI   C1B 8237  17.008  17.970   9.047 -0.2755 -0.2309  0.3657
  515loPI   C2B 8238  17.243  17.945   8.587 -0.3580  0.2589 -0.1797
  515loPI   C3B 8239  17.336  17.724   8.261 -0.2049 -0.2004 -0.0085
  515loPI   C4B 8240  17.451  17.908   7.933 -0.1072 -0.1039  0.1397
  516loPI    C1 8241   0.076  17.305  10.022 -0.0226 -0.2709 -0.0739
  516loPI    C2 8242   0.431  17.369   9.849 -0.0662  0.1938 -0.0038
  516loPI    C3 8243   0.408  17.155  10.186  0.1209 -0.0021 -0.1133
  516loPI   PO4 8244  -0.080  17.324   9.768  0.0065  0.1078 -0.1482
  516loPI   GL1 8245   0.038  17.157   9.398  0.1404  0.1522  0.1143
  516loPI   GL2 8246   0.066  16.926   9.243  0.3155 -0.0704  0.0878
  516loPI   C1A 8247   0.110  17.404   8.979 -0.0277 -0.0350  0.1673
  516loPI   C2A 8248   0.504  17.577   8.780  0.3255 -0.1233  0.1132
  516loPI   C3A 8249   0.719  17.670   8.410 -0.4636  0.1869  0.1568
  516loPI   C4A 8250   1.104  17.714   8.220  0.0293 -0.1143 -0.0780
  516loPI   C5A 8251   1.327  17.592   7.913 -0.1955  0.0294  0.1944
  516loPI   C6A 8252   1.532  17.727   7.641 -0.0305 -0.1922  0.2014
  516loPI   C1B 8253   0.397  17.055   8.822 -0.1486  0.0736 -0.2408
  516loPI   C2B 8254   0.674  16.886   8.474 -0.1726 -0.1681  0.0612
  516loPI   C3B 8255   0.954  16.599   8.354  0.0188 -0.4897 -0.0749
  516loPI   C4B 8256   0.997  16.097   8.371  0.1778 -0.3788  0.3342
  517loPI    C1 8257  17.788  10.331   9.856  0.1004 -0.1770  0.0745
  517loPI    C2 8258  18.179  10.373   9.932  0.0863 -0.1939  0.1563
  517loPI    C3 8259  17.914  10.389  10.231  0.0253 -0.1945  0.1026
  517loPI   PO4 8260  17.742  10.118   9.756 -0.1128 -0.2466  0.0542
  517loPI   GL1 8261  17.381  10.017   9.439 -0.0526  0.1148  0.0563
  517loPI   GL2 8262  17.586  10.331   9.335  0.1429 -0.0916 -0.0205
  517loPI   C1A 8263  17.443   9.927   9.025 -0.2697  0.0936  0.0718
  517loPI   C2A 8264  17.468   9.968   8.626  0.0467  0.1021  0.3592
  517loPI   C3A 8265  17.470  10.087   8.139  0.2610  0.0826  0.0749
  517loPI   C4A 8266  17.658  10.235   7.764 -0.1296 -0.1137 -0.3213
  517loPI   C5A 8267  17.569   9.953   7.401 -0.0312 -0.0526 -0.1251
  517loPI   C6A 8268  17.283   9.663   7.255  0.1004  0.1715 -0.1730
  517loPI   C1B 8269  17.571  10.422   8.959 -0.1265  0.0386 -0.0422
  517loPI   C2B 8270  17.667  10.383   8.550 -0.0965 -0.1166  0.0926
  517loPI   C3B 8271  17.740  10.542   8.217  0.0997 -0.0678  0.0577
  517loPI   C4B 8272  17.914  10.657   7.871 -0.2715  0.1081  0.1291
  518loPI    C1 8273  10.600  10.151  10.344 -0.0551  0.1181 -0.1570
  518loPI    C2 8274  10.212  10.237  10.386 -0.0950 -0.1949  0.1592
  518loPI    C3 8275  10.477  10.371  10.654  0.0152  0.0017 -0.0453
  518loPI   PO4 8276  10.721  10.094  10.117 -0.0515 -0.0263 -0.1918
  518loPI   GL1 8277  10.686  10.231   9.648 -0.0363 -0.1223 -0.0641
  518loPI   GL2 8278  10.502  10.017   9.662  0.2123 -0.1643 -0.1223
  518loPI   C1A 8279  10.840  10.013   9.234  0.1769  0.0259 -0.2145
  518loPI   C2A 8280  10.866   9.969   8.758 -0.0528 -0.0543  0.2028
  518loPI   C3A 8281  10.739  10.113   8.332  0.2000 -0.1421 -0.1150
  518loPI   C4A 8282  10.640  10.251   7.972 -0.1643 -0.3666  0.0180
  518loPI   C5A 8283  10.683  10.667   7.813  0.2192 -0.1862  0.0083
  518loPI   C6A 8284  10.810  10.954   7.480  0.1302 -0.2822 -0.1172
  518loPI   C1B 8285  10.301   9.802   9.261  0.5058  0.4998  0.0185
  518loPI   C2B 8286  10.422   9.722   8.878 -0.0318 -0.1745 -0.0238
  518loPI   C3B 8287  10.551   9.649   8.450  0.0080  0.4933 -0.1746
  518loPI   C4B 8288  10.488   9.723   7.926  0.1692  0.1656  0.1533
  519loPI    C1 8289  17.828   4.644   9.854 -0.2716 -0.0856  0.0581
  519loPI    C2 8290  17.942   4.289   9.997  0.0553  0.0254  0.0809
  519loPI    C3 8291  18.068   4.625  10.173 -0.1746  0.1549  0.0016
  519loPI   PO4 8292  17.822   4.631   9.580  0.0738 -0.1587 -0.0353
  519loPI   GL1 8293  17.690   4.625   9.322  0.1543 -0.1558 -0.1426
  519loPI   GL2 8294  17.544   4.898   9.275 -0.0266  0.0632  0.0685
  519loPI   C1A 8295  17.857   4.558   8.865 -0.1889  0.2739  0.0859
  519loPI   C2A 8296  17.933   4.831   8.517  0.2676 -0.1514 -0.2494
  519loPI   C3A 8297  17.761   4.912   8.043  0.0858 -0.1749 -0.4719
  519loPI   C4A 8298  17.587   5.216   7.743 -0.0389  0.0727 -0.1291
  519loPI   C5A 8299  17.223   5.558   7.702  0.4573 -0.1119  0.3214
  519loPI   C6A 8300  16.845   5.847   7.807  0.0803  0.0169  0.1853
  519loPI   C1B 8301  17.449   5.167   8.877  0.1255  0.0021  0.2136
  519loPI   C2B 8302  17.292   5.457   8.711 -0.0820  0.0262  0.1911
  519loPI   C3B 8303  17.242   5.869   8.623 -0.2077  0.0846  0.2883
  519loPI   C4B 8304  17.422   6.221   8.471  0.0154  0.1186 -0.0840
  520loPI    C1 8305  17.830  18.017   9.579  0.2357 -0.1289 -0.0034
  520loPI    C2 8306  18.113  17.990   9.860  0.1383 -0.2148  0.0878
  520loPI    C3 8307  17.748  17.841   9.929  0.0550 -0.0589 -0.0092
  520loPI   PO4 8308  17.833  18.232   9.475 -0.3721  0.2102  0.1055
  520loPI   GL1 8309  17.932  18.270   9.058 -0.1542  0.1732 -0.2938
  520loPI   GL2 8310  17.731  18.554   9.153  0.0076  0.1047  0.0221
  520loPI   C1A 8311  18.145  18.242   8.674  0.0160 -0.0444 -0.1100
  520loPI   C2A 8312  18.244  18.094   8.302 -0.0577  0.1977 -0.0990
  520loPI   C3A 8313  18.458  18.083   7.917  0.1267 -0.0313 -0.1097
  520loPI   C4A 8314  18.585  18.331   7.609  0.0843  0.0703 -0.0420
  520loPI   C5A 8315  18.840  18.537   7.267 -0.1161 -0.0378 -0.0222
  520loPI   C6A 8316  18.938  18.486   6.837  0.3007  0.1194 -0.1899
  520loPI   C1B 8317  17.809  18.785   8.722 -0.0342  0.1377  0.1841
  520loPI   C2B 8318  17.618  18.797   8.219  0.1407 -0.2371 -0.0060
  520loPI   C3B 8319  17.305  19.014   7.862  0.1240 -0.1579  0.0724
  520loPI   C4B 8320  17.482  19.184   7.438  0.0021  0.2085 -0.2625
  521loPI    C1 8321   8.986   1.106  10.238  0.0355  0.0628  0.0852
  521loPI    C2 8322   8.791   0.865  10.490  0.1553 -0.0268  0.0932
  521loPI    C3 8323   9.033   1.150  10.632 -0.1203  0.2147  0.0881
  521loPI   PO4 8324   9.028   0.973  10.058  0.1135  0.0761 -0.1250
  521loPI   GL1 8325   8.747   0.912   9.765  0.0045 -0.1903 -0.0316
  521loPI   GL2 8326   8.623   0.637   9.772 -0.1037  0.0122 -0.0239
  521loPI   C1A 8327   8.693   1.192   9.385  0.0274 -0.3565  0.0850
  521loPI   C2A 8328   9.124   1.412   9.029  0.1741 -0.0942  0.3659
  521loPI   C3A 8329   9.336   1.437   8.669 -0.1308  0.1468 -0.0333
  521loPI   C4A 8330   9.366   1.171   8.199  0.4233 -0.2045 -0.1468
  521loPI   C5A 8331   9.255   1.096   7.797 -0.2716 -0.1500 -0.0253
  521loPI   C6A 8332   9.136   1.295   7.442 -0.0405  0.1476  0.1348
  521loPI   C1B 8333   8.718   0.565   9.304  0.1142  0.2103  0.3540
  521loPI   C2B 8334   8.738   0.523   8.856 -0.3434 -0.2044 -0.2157
  521loPI   C3B 8335   8.805   0.336   8.513  0.0281 -0.0074 -0.2403
  521loPI   C4B 8336   9.116   0.177   8.383 -0.3788  0.1733  0.5858
  522loPI    C1 8337  16.812  14.301   9.669  0.1428 -0.1248 -0.1043
  522loPI    C2 8338  16.927  14.446  10.024  0.0790 -0.3494  0.0095
  522loPI    C3 8339  16.538  14.400   9.943  0.0762  0.0524 -0.2323
  522loPI   PO4 8340  16.936  14.108   9.656 -0.0907 -0.1235  0.3112
  522loPI   GL1 8341  17.091  13.836   9.350  0.1122 -0.3024  0.2311
  522loPI   GL2 8342  17.075  13.495   9.456  0.1787  0.1655  0.2437
  522loPI   C1A 8343  16.919  13.917   8.920 -0.0066  0.0707  0.2394
  522loPI   C2A 8344  17.054  14.195   8.644  0.0644 -0.3051  0.4270
  522loPI   C3A 8345  16.899  14.637   8.486 -0.0084 -0.1879 -0.1908
  522loPI   C4A 8346  16.879  14.732   7.985 -0.1085 -0.2464 -0.0237
  522loPI   C5A 8347  16.749  15.052   7.740 -0.0233  0.1868 -0.1475
  522loPI   C6A 8348  16.473  15.217   7.380  0.1042  0.1649  0.1318
  522loPI   C1B 8349  17.108  13.431   9.107 -0.2545 -0.1196 -0.1976
  522loPI   C2B 8350  17.025  13.438   8.744 -0.0906 -0.6595 -0.0129
  522loPI   C3B 8351  16.893  13.333   8.339 -0.3377  0.1232  0.0546
  522loPI   C4B 8352  17.023  13.146   7.945  0.2593 -0.0062  0.1153
  523loPI    C1 8353   4.340  13.695  10.699 -0.1148 -0.1251 -0.1602
  523loPI    C2 8354   4.049  13.790  10.956 -0.0933 -0.0678 -0.1570
  523loPI    C3 8355   4.293  14.075  10.815  0.2180 -0.1737  0.1536
  523loPI   PO4 8356   4.234  13.477  10.551 -0.1357 -0.1122 -0.0643
  523loPI   GL1 8357   4.042  13.414  10.159 -0.1752  0.0457  0.0415
  523loPI   GL2 8358   4.251  13.630  10.070 -0.2828  0.0346  0.4312
  523loPI   C1A 8359   3.811  13.445   9.817  0.0039 -0.2194  0.2880
  523loPI   C2A 8360   3.760  13.541   9.349 -0.1839  0.0401  0.0535
  523loPI   C3A 8361   3.769  13.504   8.951 -0.1220 -0.0878 -0.4442
  523loPI   C4A 8362   3.886  13.549   8.521 -0.2939  0.2128  0.1183
  523loPI   C5A 8363   3.830  13.542   8.014 -0.0108  0.0487  0.3035
  523loPI   C6A 8364   3.850  13.323   7.726  0.0616 -0.0826 -0.3761
  523loPI   C1B 8365   4.214  13.744   9.661 -0.0001 -0.0391 -0.1964
  523loPI   C2B 8366   4.264  13.848   9.232 -0.0802  0.0579  0.2601
  523loPI   C3B 8367   4.269  13.837   8.717 -0.1209 -0.1768  0.1196
  523loPI   C4B 8368   4.269  13.827   8.258  0.0669 -0.1941 -0.1426
  524loPI    C1 8369   9.478   1.376  10.503  0.0747  0.3123 -0.3230
  524loPI    C2 8370   9.512   1.724  10.697  0.0902  0.2102 -0.1407
  524loPI    C3 8371   9.443   1.387  10.901  0.0130  0.1148 -0.3221
  524loPI   PO4 8372   9.334   1.476  10.312  0.1460  0.0730 -0.1768
  524loPI   GL1 8373   9.137   1.693   9.980 -0.4734 -0.0899  0.3280
  524loPI   GL2 8374   9.166   1.382   9.837  0.1190  0.0476  0.1158
  524loPI   C1A 8375   8.958   1.623   9.510 -0.1788  0.1524 -0.0106
  524loPI   C2A 8376   8.714   1.624   9.063  0.1043 -0.1270  0.0686
  524loPI   C3A 8377   8.792   1.518   8.647 -0.1334  0.0326  0.1361
  524loPI   C4A 8378   9.044   1.690   8.390  0.0738  0.1212 -0.0742
  524loPI   C5A 8379   9.106   1.998   8.046  0.2365  0.3008 -0.1821
  524loPI   C6A 8380   9.079   2.407   7.739 -0.2186 -0.2328 -0.0649
  524loPI   C1B 8381   9.451   1.455   9.440  0.0435  0.3160 -0.1590
  524loPI   C2B 8382   9.454   1.761   9.112 -0.0614  0.0789  0.0794
  524loPI   C3B 8383   9.241   1.950   8.710 -0.1328 -0.1021  0.1654
  524loPI   C4B 8384   8.859   2.158   8.457 -0.1648  0.2679  0.0743
  525loPI    C1 8385   8.777  15.093  10.382 -0.1155  0.0790  0.3290
  525loPI    C2 8386   8.985  15.434  10.361  0.0863 -0.0709 -0.3268
  525loPI    C3 8387   9.157  15.102  10.505  0.0393 -0.0080 -0.1235
  525loPI   PO4 8388   8.784  15.051  10.139  0.1424 -0.0217  0.0558
  525loPI   GL1 8389   8.453  15.082   9.776  0.0418 -0.0390  0.1752
  525loPI   GL2 8390   8.231  14.880   9.694 -0.0803 -0.2802 -0.0115
  525loPI   C1A 8391   8.637  15.123   9.415  0.2380 -0.3808  0.2539
  525loPI   C2A 8392   8.608  15.184   8.953  0.0424 -0.2784 -0.0871
  525loPI   C3A 8393   8.669  15.111   8.472  0.0614 -0.0723 -0.1579
  525loPI   C4A 8394   8.592  15.374   8.194  0.1043 -0.1344  0.0343
  525loPI   C5A 8395   8.550  15.770   7.942  0.0845 -0.0631  0.0332
  525loPI   C6A 8396   8.513  16.182   7.880  0.0133 -0.2334 -0.1085
  525loPI   C1B 8397   8.139  15.033   9.215  0.2782 -0.1448 -0.3169
  525loPI   C2B 8398   8.235  14.944   8.747 -0.0708 -0.0480 -0.0862
  525loPI   C3B 8399   8.189  15.031   8.305  0.0108  0.0913  0.1756
  525loPI   C4B 8400   8.163  14.911   7.776 -0.0433 -0.2515 -0.0576
  526loPI    C1 8401   2.889  15.230  10.580 -0.0350 -0.0008 -0.1666
  526loPI    C2 8402   3.272  15.115  10.581 -0.0419 -0.0244 -0.0137
  526loPI    C3 8403   2.990  14.876  10.734 -0.1145  0.0049 -0.1004
  526loPI   PO4 8404   2.895  15.545  10.509  0.3885 -0.0565  0.1765
  526loPI   GL1 8405   2.854  15.697  10.086  0.0638  0.0854 -0.0238
  526loPI   GL2 8406   2.617  15.454  10.066  0.1291  0.2215 -0.2229
  526loPI   C1A 8407   3.031  15.727   9.654  0.2241 -0.1042  0.2313
  526loPI   C2A 8408   3.317  15.827   9.356  0.0480  0.1568 -0.1484
  526loPI   C3A 8409   3.295  15.761   8.982 -0.0989 -0.1835 -0.3624
  526loPI   C4A 8410   3.197  15.802   8.423 -0.2313 -0.2842 -0.0729
  526loPI   C5A 8411   3.151  15.857   7.963 -0.0688  0.0026  0.5177
  526loPI   C6A 8412   2.986  15.868   7.600  0.0051  0.4133  0.2460
  526loPI   C1B 8413   2.618  15.502   9.612 -0.1044 -0.2248  0.1384
  526loPI   C2B 8414   2.874  15.500   9.184 -0.0738  0.2609 -0.1352
  526loPI   C3B 8415   2.829  15.483   8.766 -0.0881 -0.0646  0.3718
  526loPI   C4B 8416   2.648  15.590   8.274 -0.3422  0.0098 -0.0650
  527loPI    C1 8417   9.983  12.508  10.010 -0.0656 -0.1558  0.0860
  527loPI    C2 8418   9.748  12.402  10.316 -0.0752 -0.0782  0.1057
  527loPI    C3 8419  10.133  12.294  10.312 -0.0904 -0.1328  0.1146
  527loPI   PO4 8420   9.775  12.440   9.825  0.1268  0.0956 -0.1322
  527loPI   GL1 8421   9.565  12.422   9.469 -0.1345  0.0407  0.2015
  527loPI   GL2 8422   9.336  12.273   9.441  0.1578 -0.0026  0.0699
  527loPI   C1A 8423   9.865  12.277   9.209 -0.1176 -0.0560  0.1912
  527loPI   C2A 8424   9.838  12.203   8.752  0.1946  0.2387  0.1374
  527loPI   C3A 8425   9.820  11.904   8.448  0.0577 -0.0620 -0.0385
  527loPI   C4A 8426   9.838  11.739   8.023 -0.1261 -0.0826  0.1512
  527loPI   C5A 8427   9.729  11.904   7.589 -0.0125  0.1498 -0.0595
  527loPI   C6A 8428   9.750  12.114   7.143 -0.1012 -0.0834  0.4274
  527loPI   C1B 8429   9.349  12.412   8.989  0.0546 -0.2823 -0.0377
  527loPI   C2B 8430   9.403  12.475   8.572 -0.0607 -0.0995  0.1320
  527loPI   C3B 8431   9.603  12.382   8.302  0.0343  0.0985 -0.2411
  527loPI   C4B 8432   9.928  12.247   7.972 -0.4724  0.1527 -0.0584
  528loPI    C1 8433  14.517   0.268  10.037  0.0349  0.2207 -0.1398
  528loPI    C2 8434  14.650   0.237  10.413  0.1744  0.3479 -0.1776
  528loPI    C3 8435  14.259   0.203  10.335  0.1642  0.1450 -0.0439
  528loPI   PO4 8436  14.705   0.149   9.895  0.1797  0.3336 -0.1943
  528loPI   GL1 8437  14.696  -0.034   9.510  0.0925  0.1354  0.0464
  528loPI   GL2 8438  14.767   0.318   9.435 -0.1433 -0.2321  0.0104
  528loPI   C1A 8439  14.591  -0.116   9.084 -0.0145  0.3740 -0.0604
  528loPI   C2A 8440  14.805  -0.368   8.673  0.2199 -0.1446  0.1102
  528loPI   C3A 8441  14.788  -0.200   8.274  0.1332  0.2098  0.2288
  528loPI   C4A 8442  14.702   0.085   7.932 -0.0822  0.0026 -0.0556
  528loPI   C5A 8443  14.729   0.241   7.660 -0.2372 -0.2926  0.2547
  528loPI   C6A 8444  14.859   0.536   7.318  0.7823  0.0021  0.2425
  528loPI   C1B 8445  14.635   0.347   8.968  0.0442  0.0909  0.0442
  528loPI   C2B 8446  14.465   0.193   8.570 -0.2221 -0.1782  0.1683
  528loPI   C3B 8447  14.055   0.232   8.315  0.2377  0.1908 -0.1027
  528loPI   C4B 8448  14.187   0.272   7.832  0.5369 -0.0707  0.1101
  529loPI    C1 8449  10.585   9.294  10.165  0.1530 -0.0192  0.1218
  529loPI    C2 8450  10.762   9.559   9.923 -0.0152 -0.1121 -0.1057
  529loPI    C3 8451  10.699   9.650  10.307 -0.3379  0.2976 -0.2482
  529loPI   PO4 8452  10.323   9.267   9.957 -0.2296 -0.1395  0.1566
  529loPI   GL1 8453  10.467   9.351   9.553 -0.0543 -0.0034  0.3020
  529loPI   GL2 8454  10.302   8.999   9.550  0.1383 -0.1239  0.2686
  529loPI   C1A 8455  10.442   9.177   9.079  0.1226  0.2546 -0.0422
  529loPI   C2A 8456  10.237   9.230   8.629  0.5272 -0.2869 -0.3129
  529loPI   C3A 8457  10.317   9.250   8.190 -0.0682  0.0929 -0.0485
  529loPI   C4A 8458  10.699   9.323   7.958  0.1411  0.2659 -0.0440
  529loPI   C5A 8459  10.964   9.459   7.659 -0.0138  0.1484  0.0158
  529loPI   C6A 8460  11.416   9.572   7.746 -0.3502  0.2650  0.1660
  529loPI   C1B 8461  10.327   8.685   9.168  0.1534  0.2330  0.1934
  529loPI   C2B 8462  10.556   8.459   8.783  0.0563  0.0505 -0.0659
  529loPI   C3B 8463  10.945   8.514   8.469 -0.1349 -0.1491  0.0093
  529loPI   C4B 8464  11.130   8.593   8.072 -0.3433  0.1546  0.0739
  530loPI    C1 8465   4.587  11.559  10.201  0.1372 -0.1958 -0.0474
  530loPI    C2 8466   4.578  11.945  10.305  0.0417 -0.1816 -0.1073
  530loPI    C3 8467   4.782  11.683  10.527 -0.1876 -0.1576  0.1373
  530loPI   PO4 8468   4.714  11.597   9.967  0.0743  0.0491  0.3465
  530loPI   GL1 8469   4.762  11.626   9.550 -0.0047 -0.2200 -0.0984
  530loPI   GL2 8470   5.003  11.408   9.469  0.1299  0.0822  0.1126
  530loPI   C1A 8471   4.549  11.731   9.208  0.1373 -0.0486 -0.2177
  530loPI   C2A 8472   4.488  11.755   8.807 -0.0427  0.1506  0.2793
  530loPI   C3A 8473   4.360  11.796   8.394  0.0834  0.1425  0.1674
  530loPI   C4A 8474   4.524  11.701   8.071  0.2589  0.1152 -0.1740
  530loPI   C5A 8475   4.645  11.654   7.673 -0.0618  0.3734  0.4045
  530loPI   C6A 8476   4.843  11.758   7.245 -0.0068 -0.0125 -0.3186
  530loPI   C1B 8477   4.975  11.542   8.961 -0.0382 -0.2422  0.2323
  530loPI   C2B 8478   4.878  11.500   8.633  0.1471  0.4607 -0.0467
  530loPI   C3B 8479   4.931  11.415   8.338 -0.0675  0.0714 -0.0761
  530loPI   C4B 8480   5.038  11.185   8.048  0.0523 -0.1157  0.2520
  531loPI    C1 8481  14.209   2.154   9.879 -0.0757  0.2121  0.1924
  531loPI    C2 8482  14.394   2.075  10.225 -0.1307  0.0511  0.1859
  531loPI    C3 8483  14.261   2.445  10.148  0.1498  0.1587  0.2082
  531loPI   PO4 8484  14.292   2.105   9.717 -0.2617 -0.0605  0.2525
  531loPI   GL1 8485  14.449   2.150   9.330 -0.0802 -0.0436  0.0033
  531loPI   GL2 8486  14.194   2.383   9.286  0.3399  0.0406 -0.0803
  531loPI   C1A 8487  14.409   2.190   8.832 -0.1577  0.0293  0.0571
  531loPI   C2A 8488  14.523   2.222   8.387  0.3003 -0.0518  0.1970
  531loPI   C3A 8489  14.726   2.395   7.963 -0.0987 -0.1744  0.1828
  531loPI   C4A 8490  14.861   2.545   7.542  0.2444  0.1115  0.3668
  531loPI   C5A 8491  14.490   2.769   7.460  0.0669  0.1058  0.1478
  531loPI   C6A 8492  14.315   2.931   7.224  0.1326 -0.1404  0.0368
  531loPI   C1B 8493  14.015   2.520   8.877  0.1050 -0.2650  0.0681
  531loPI   C2B 8494  13.828   2.528   8.470  0.2887 -0.3109 -0.1521
  531loPI   C3B 8495  13.743   2.388   8.106 -0.0722  0.1855 -0.1532
  531loPI   C4B 8496  13.772   2.124   7.818 -0.0111 -0.0099 -0.2406
  532loPI    C1 8497   0.082  15.275   9.977  0.1168  0.0306 -0.0046
  532loPI    C2 8498  -0.183  15.087   9.744  0.0907 -0.0876  0.1193
  532loPI    C3 8499  -0.196  15.038  10.141  0.1194  0.1318  0.1483
  532loPI   PO4 8500   0.315  15.403   9.814  0.1655 -0.5742  0.0096
  532loPI   GL1 8501   0.413  15.724   9.556 -0.1173 -0.1264  0.0122
  532loPI   GL2 8502   0.420  15.996   9.545 -0.1161 -0.4134 -0.1871
  532loPI   C1A 8503   0.759  15.527   9.237  0.2400  0.2801  0.2078
  532loPI   C2A 8504   0.803  15.486   8.791  0.0918  0.0700 -0.2995
  532loPI   C3A 8505   0.965  15.217   8.606 -0.1211  0.0471  0.1171
  532loPI   C4A 8506   0.821  15.278   8.121 -0.1111 -0.1531  0.0133
  532loPI   C5A 8507   0.788  15.121   7.659 -0.2746  0.2643  0.0647
  532loPI   C6A 8508   0.945  15.022   7.304 -0.1676  0.1202  0.0476
  532loPI   C1B 8509   0.550  16.074   9.110  0.1158 -0.1046  0.0530
  532loPI   C2B 8510   0.571  15.953   8.629  0.2225 -0.0587 -0.2557
  532loPI   C3B 8511   0.668  15.747   8.293  0.1150 -0.0296 -0.0075
  532loPI   C4B 8512   0.854  15.815   7.957 -0.2586  0.2208  0.0240
  533loPI    C1 8513  18.862  15.735  10.227  0.0002  0.0075  0.0801
  533loPI    C2 8514  18.953  15.436  10.476  0.1571 -0.0922 -0.0943
  533loPI    C3 8515  19.154  15.781  10.497  0.0964 -0.0614 -0.0117
  533loPI   PO4 8516  18.833  15.598  10.024 -0.2100 -0.0054 -0.0066
  533loPI   GL1 8517  18.565  15.671   9.714  0.1533 -0.0381 -0.1777
  533loPI   GL2 8518  18.211  15.831   9.698 -0.0229  0.2360 -0.0128
  533loPI   C1A 8519  18.683  15.646   9.222  0.0588 -0.0709  0.2525
  533loPI   C2A 8520  18.733  15.699   8.808 -0.1122  0.2750 -0.1509
  533loPI   C3A 8521  18.769  15.726   8.381 -0.0667  0.1117 -0.0914
  533loPI   C4A 8522  18.971  15.601   7.992 -0.0374 -0.0182  0.4316
  533loPI   C5A 8523  18.872  15.602   7.644 -0.2225  0.1469  0.1794
  533loPI   C6A 8524  18.561  15.840   7.417 -0.4013  0.0588 -0.0956
  533loPI   C1B 8525  18.131  15.728   9.294 -0.3275 -0.0351  0.1509
  533loPI   C2B 8526  18.091  15.819   8.852  0.0791 -0.1938 -0.0563
  533loPI   C3B 8527  18.056  15.713   8.410  0.0444 -0.1343 -0.0041
  533loPI   C4B 8528  17.935  15.842   7.975 -0.2811  0.1716 -0.1335
  534loPI    C1 8529   3.049   4.586   9.855  0.0445  0.1758 -0.0909
  534loPI    C2 8530   2.787   4.844  10.012  0.0412  0.1043  0.0223
  534loPI    C3 8531   2.657   4.509   9.836  0.0606  0.0186  0.1701
  534loPI   PO4 8532   3.165   4.639   9.710 -0.1895  0.2163  0.1469
  534loPI   GL1 8533   3.403   4.710   9.283  0.1091 -0.1301  0.4557
  534loPI   GL2 8534   3.433   4.981   9.403  0.0249 -0.0701 -0.4538
  534loPI   C1A 8535   2.996   4.794   9.026  0.1908 -0.0685  0.2561
  534loPI   C2A 8536   2.643   4.716   8.746  0.1367  0.0670  0.1095
  534loPI   C3A 8537   2.825   4.644   8.331  0.0149  0.0454  0.0257
  534loPI   C4A 8538   2.903   4.930   8.012 -0.1700  0.0335  0.0018
  534loPI   C5A 8539   3.047   4.853   7.517  0.2602 -0.1301  0.1204
  534loPI   C6A 8540   2.837   4.717   7.109  0.0194  0.0424 -0.3086
  534loPI   C1B 8541   3.418   5.204   8.971 -0.1809  0.1500 -0.0180
  534loPI   C2B 8542   3.579   5.269   8.554  0.0625  0.1934 -0.0107
  534loPI   C3B 8543   3.576   5.632   8.223 -0.0766  0.1018  0.1222
  534loPI   C4B 8544   3.709   5.655   7.816 -0.0764 -0.0368  0.0600
  535loPI    C1 8545   7.506  11.387  10.209 -0.1592  0.0844  0.0732
  535loPI    C2 8546   7.260  11.193  10.459 -0.0883 -0.0019  0.0766
  535loPI    C3 8547   7.629  11.053  10.393 -0.0995  0.0322 -0.0602
  535loPI   PO4 8548   7.442  11.310   9.981  0.1778  0.1181 -0.1336
  535loPI   GL1 8549   7.353  11.226   9.588  0.1692 -0.0868 -0.0080
  535loPI   GL2 8550   7.400  11.540   9.524  0.1028 -0.0626 -0.1048
  535loPI   C1A 8551   7.453  11.103   9.200  0.2624 -0.0089 -0.2957
  535loPI   C2A 8552   7.475  11.144   8.642 -0.2196  0.3358 -0.0148
  535loPI   C3A 8553   7.336  11.412   8.366  0.1487  0.1283 -0.0844
  535loPI   C4A 8554   7.338  11.571   7.923 -0.2491  0.2147  0.0450
  535loPI   C5A 8555   7.229  11.929   7.608 -0.1514 -0.0594 -0.5264
  535loPI   C6A 8556   7.373  12.053   7.194 -0.0523  0.0180 -0.0707
  535loPI   C1B 8557   7.244  11.516   9.107  0.2097 -0.1731  0.0396
  535loPI   C2B 8558   7.029  11.214   8.831 -0.2609  0.0339  0.2962
  535loPI   C3B 8559   6.841  11.241   8.501  0.2979 -0.0766  0.1465
  535loPI   C4B 8560   6.791  11.441   8.086  0.1084 -0.3502  0.0264
  536loPI    C1 8561  12.256   1.897  10.132 -0.0913  0.0209  0.1777
  536loPI    C2 8562  12.154   2.262  10.259 -0.0468  0.0751  0.0590
  536loPI    C3 8563  12.241   1.975  10.524  0.4674  0.3062  0.1531
  536loPI   PO4 8564  12.468   1.832   9.977 -0.3218 -0.2404  0.2217
  536loPI   GL1 8565  12.675   1.946   9.605 -0.2038 -0.1643  0.1361
  536loPI   GL2 8566  12.942   1.758   9.767  0.1303 -0.0653  0.1491
  536loPI   C1A 8567  12.407   1.728   9.255  0.1209 -0.2508  0.0975
  536loPI   C2A 8568  12.092   1.940   9.108  0.1500  0.2631  0.4968
  536loPI   C3A 8569  12.067   2.150   8.681 -0.0710 -0.0046 -0.1774
  536loPI   C4A 8570  11.647   2.035   8.530 -0.0285 -0.0426  0.0701
  536loPI   C5A 8571  11.258   2.132   8.651 -0.1220  0.1212 -0.0580
  536loPI   C6A 8572  11.261   2.290   9.107 -0.0996  0.1024  0.0882
  536loPI   C1B 8573  12.874   1.578   9.362  0.0568 -0.3964 -0.3054
  536loPI   C2B 8574  12.749   1.706   8.890  0.2784  0.1094 -0.1604
  536loPI   C3B 8575  12.481   1.875   8.570  0.0179 -0.2486  0.3041
  536loPI   C4B 8576  12.306   1.795   8.200  0.0114 -0.0434 -0.2947
  537loPI    C1 8577   2.431  12.140  10.325 -0.1652  0.2257 -0.0456
  537loPI    C2 8578   2.210  12.173  10.657  0.0710  0.0204  0.1357
  537loPI    C3 8579   2.599  12.267  10.665  0.0824 -0.0017 -0.0794
  537loPI   PO4 8580   2.206  12.039  10.113  0.0769  0.1975 -0.0630
  537loPI   GL1 8581   2.245  11.964   9.694 -0.2290 -0.0648  0.4286
  537loPI   GL2 8582   2.519  12.092   9.714  0.1369  0.4736  0.0428
  537loPI   C1A 8583   2.189  11.855   9.296  0.2349  0.0056 -0.1073
  537loPI   C2A 8584   2.177  11.810   8.780 -0.0793  0.0307  0.1633
  537loPI   C3A 8585   2.194  11.877   8.365 -0.1999  0.0543 -0.2298
  537loPI   C4A 8586   2.151  12.080   7.915  0.2832 -0.0796 -0.1044
  537loPI   C5A 8587   2.297  12.512   7.735  0.0233  0.3912 -0.1079
  537loPI   C6A 8588   2.438  12.870   7.417 -0.2566  0.0401 -0.2832
  537loPI   C1B 8589   2.549  12.227   9.333  0.1696  0.1205  0.1638
  537loPI   C2B 8590   2.562  12.030   8.946 -0.0793 -0.0586 -0.0427
  537loPI   C3B 8591   2.601  12.171   8.564 -0.0367  0.0969 -0.2933
  537loPI   C4B 8592   2.583  12.212   8.118  0.1444  0.1757  0.3086
  538loPI    C1 8593   2.105  16.028  10.619  0.2240  0.1898 -0.2665
  538loPI    C2 8594   2.446  15.936  10.433  0.2663  0.1834 -0.1865
  538loPI    C3 8595   2.447  16.007  10.826  0.1158 -0.1763 -0.1174
  538loPI   PO4 8596   1.980  15.811  10.485 -0.0442  0.2535 -0.0346
  538loPI   GL1 8597   2.084  15.633  10.136 -0.2586 -0.1833  0.1299
  538loPI   GL2 8598   2.207  15.999  10.019  0.2233 -0.2859  0.2376
  538loPI   C1A 8599   1.958  15.586   9.729 -0.0392  0.0388  0.0960
  538loPI   C2A 8600   1.807  15.523   9.303 -0.2259  0.1574  0.2793
  538loPI   C3A 8601   1.878  15.494   8.791 -0.0118 -0.3066 -0.4553
  538loPI   C4A 8602   1.993  15.342   8.426 -0.2150  0.0293  0.1220
  538loPI   C5A 8603   2.195  15.359   7.999 -0.0306  0.1483 -0.0786
  538loPI   C6A 8604   2.046  15.540   7.637  0.1897 -0.1657 -0.0773
  538loPI   C1B 8605   2.100  16.098   9.690  0.2782 -0.0629  0.2024
  538loPI   C2B 8606   2.198  15.819   9.363 -0.3682 -0.1228 -0.5241
  538loPI   C3B 8607   2.409  15.590   9.081 -0.2674  0.0026  0.1792
  538loPI   C4B 8608   2.403  15.200   8.769 -0.1833  0.0817  0.1265
  539loPI    C1 8609   1.333   6.976  10.085 -0.1223  0.0215 -0.0778
  539loPI    C2 8610   1.530   6.642  10.183 -0.1202  0.0724  0.0953
  539loPI    C3 8611   1.171   6.715  10.342 -0.0674  0.2105  0.1524
  539loPI   PO4 8612   1.293   6.984   9.869 -0.1921 -0.2118 -0.2976
  539loPI   GL1 8613   0.994   6.921   9.518  0.0454 -0.0202 -0.3157
  539loPI   GL2 8614   0.985   6.545   9.305 -0.0302 -0.0056 -0.1022
  539loPI   C1A 8615   1.015   7.269   9.099 -0.2739 -0.1102  0.0446
  539loPI   C2A 8616   1.004   7.269   8.636  0.0652 -0.2349 -0.1413
  539loPI   C3A 8617   1.381   7.362   8.296 -0.3176 -0.2465  0.1574
  539loPI   C4A 8618   1.720   7.655   8.385 -0.1791  0.1504 -0.0775
  539loPI   C5A 8619   1.887   7.952   8.177 -0.4605 -0.2446 -0.3788
  539loPI   C6A 8620   1.786   8.382   7.885  0.0815  0.0162  0.0436
  539loPI   C1B 8621   0.856   6.393   8.954  0.1523  0.0233 -0.2992
  539loPI   C2B 8622   0.851   6.054   8.712  0.0581  0.1231 -0.2372
  539loPI   C3B 8623   0.766   5.940   8.254 -0.2227 -0.1674 -0.1509
  539loPI   C4B 8624   0.640   5.966   7.887 -0.1832  0.0741 -0.0525
  540loPI    C1 8625  18.486  11.262   9.997 -0.0655 -0.1122 -0.0775
  540loPI    C2 8626  18.271  11.126  10.305 -0.0637  0.0198 -0.0171
  540loPI    C3 8627  18.515  11.439  10.355  0.0397 -0.0439 -0.1192
  540loPI   PO4 8628  18.314  11.283   9.761  0.1530 -0.0200  0.1449
  540loPI   GL1 8629  17.976  11.286   9.478 -0.1299  0.0177 -0.1041
  540loPI   GL2 8630  18.230  11.142   9.299  0.0012  0.3167 -0.0282
  540loPI   C1A 8631  17.873  11.308   9.068 -0.2136 -0.0603 -0.1401
  540loPI   C2A 8632  18.205  11.077   8.789  0.0125  0.3423  0.1835
  540loPI   C3A 8633  18.538  11.009   8.554  0.1400 -0.1979  0.1241
  540loPI   C4A 8634  18.697  11.143   8.158  0.3718  0.1550 -0.0316
  540loPI   C5A 8635  18.959  11.427   8.192  0.0281  0.1496 -0.2320
  540loPI   C6A 8636  19.445  11.601   8.186 -0.0140  0.2277  0.1271
  540loPI   C1B 8637  18.529  10.807   9.064  0.1191  0.0032 -0.2256
  540loPI   C2B 8638  18.947  10.883   8.856 -0.1063  0.0263  0.3825
  540loPI   C3B 8639  19.066  10.952   8.445  0.1466 -0.2024  0.1436
  540loPI   C4B 8640  19.293  11.016   8.053  0.0762  0.1478 -0.1549
  541loPI    C1 8641   1.947   6.411  10.189  0.1768  0.0192 -0.0257
  541loPI    C2 8642   1.903   6.360  10.583 -0.1493  0.0932 -0.0496
  541loPI    C3 8643   1.882   6.046  10.337 -0.3830  0.1033 -0.0442
  541loPI   PO4 8644   2.112   6.546  10.106  0.0644  0.0678  0.0705
  541loPI   GL1 8645   2.274   6.579   9.666 -0.2958  0.1298 -0.1279
  541loPI   GL2 8646   2.076   6.289   9.651  0.0980 -0.2288  0.2341
  541loPI   C1A 8647   2.355   6.698   9.265  0.1395  0.1348  0.0865
  541loPI   C2A 8648   2.549   6.875   8.931 -0.1226  0.0993  0.1154
  541loPI   C3A 8649   2.801   6.936   8.479 -0.1080 -0.1886 -0.0821
  541loPI   C4A 8650   3.130   7.072   8.203  0.2056  0.1701  0.3328
  541loPI   C5A 8651   2.920   7.206   7.702 -0.1578  0.1487 -0.0786
  541loPI   C6A 8652   2.687   7.390   7.346  0.0031  0.1963 -0.0630
  541loPI   C1B 8653   2.066   6.213   9.214 -0.0622  0.0183  0.0760
  541loPI   C2B 8654   2.088   6.473   8.853  0.4157  0.2605  0.0231
  541loPI   C3B 8655   2.191   6.803   8.497 -0.1708  0.2408  0.3622
  541loPI   C4B 8656   2.387   7.203   8.482  0.0686  0.1401  0.0824
  542loPI    C1 8657   9.106   4.559   9.811 -0.2525  0.2665  0.2235
  542loPI    C2 8658   8.967   4.758  10.130 -0.6028  0.2679  0.0748
  542loPI    C3 8659   8.766   4.443   9.987 -0.1508 -0.0868  0.1952
  542loPI   PO4 8660   9.416   4.509   9.868  0.2187 -0.0101  0.0157
  542loPI   GL1 8661   9.629   4.732   9.575 -0.0482 -0.1781  0.0249
  542loPI   GL2 8662   9.655   4.441   9.412  0.0506 -0.0776 -0.0031
  542loPI   C1A 8663   9.421   4.907   9.315 -0.1493 -0.1321 -0.1010
  542loPI   C2A 8664   9.558   5.262   9.031 -0.0697  0.0596 -0.1684
  542loPI   C3A 8665   9.357   5.316   8.651 -0.1803 -0.1792 -0.1089
  542loPI   C4A 8666   9.473   5.277   8.256 -0.0413  0.0418 -0.1241
  542loPI   C5A 8667   9.469   5.468   7.911 -0.3414 -0.2399 -0.3069
  542loPI   C6A 8668   9.485   5.432   7.411 -0.1736  0.1267 -0.1778
  542loPI   C1B 8669   9.731   4.594   9.003  0.0945 -0.0603 -0.0705
  542loPI   C2B 8670   9.738   4.671   8.559  0.0505 -0.5237  0.2530
  542loPI   C3B 8671   9.752   4.801   8.084  0.1123 -0.0620  0.0825
  542loPI   C4B 8672   9.727   4.712   7.619 -0.0175  0.0138  0.0342
  543loPI    C1 8673   2.619  17.745  10.138 -0.0522 -0.0669 -0.0835
  543loPI    C2 8674   2.665  17.840  10.524  0.1022 -0.1440 -0.0820
  543loPI    C3 8675   2.960  17.656  10.327 -0.1260 -0.4677 -0.1295
  543loPI   PO4 8676   2.452  17.630  10.121  0.1217 -0.2391 -0.1153
  543loPI   GL1 8677   2.216  17.510   9.740 -0.2206 -0.0738  0.1646
  543loPI   GL2 8678   2.125  17.653   9.519  0.2374  0.1272  0.0443
  543loPI   C1A 8679   2.397  17.088   9.591 -0.3108 -0.0327 -0.4115
  543loPI   C2A 8680   2.269  16.801   9.192 -0.1304  0.1974  0.1888
  543loPI   C3A 8681   2.243  16.683   8.774 -0.1860  0.0071 -0.1069
  543loPI   C4A 8682   2.325  16.401   8.460 -0.2926 -0.0820 -0.1254
  543loPI   C5A 8683   2.238  16.546   8.034 -0.0872  0.1415 -0.1466
  543loPI   C6A 8684   2.157  16.460   7.625  0.0293 -0.0158 -0.0983
  543loPI   C1B 8685   1.915  17.601   9.151  0.1986  0.0555 -0.0717
  543loPI   C2B 8686   1.491  17.450   8.944 -0.1161 -0.2060  0.3184
  543loPI   C3B 8687   1.207  17.709   8.721 -0.0462  0.2773  0.1890
  543loPI   C4B 8688   0.964  17.923   8.769  0.1271  0.0587 -0.2224
  544loPI    C1 8689   6.399  16.520  10.432  0.1000  0.0409 -0.0591
  544loPI    C2 8690   6.396  16.155  10.597  0.0551  0.0075 -0.1336
  544loPI    C3 8691   6.463  16.477  10.825 -0.2277 -0.0182 -0.0092
  544loPI   PO4 8692   6.665  16.622  10.243  0.1698  0.4393  0.1601
  544loPI   GL1 8693   6.939  16.367   9.824 -0.1409 -0.0486  0.2236
  544loPI   GL2 8694   6.761  16.580   9.752  0.4548  0.0883  0.0629
  544loPI   C1A 8695   6.752  16.184   9.417  0.0131 -0.2807 -0.2174
  544loPI   C2A 8696   6.767  16.208   8.953 -0.1535  0.0523  0.3961
  544loPI   C3A 8697   6.799  16.220   8.450 -0.1201 -0.1092 -0.1121
  544loPI   C4A 8698   6.752  16.358   7.936 -0.0789  0.0425  0.2161
  544loPI   C5A 8699   6.469  16.575   7.571 -0.0632  0.0417  0.1378
  544loPI   C6A 8700   6.200  16.848   7.560 -0.0640 -0.1617 -0.2875
  544loPI   C1B 8701   6.707  16.673   9.247  0.0081 -0.0197  0.3045
  544loPI   C2B 8702   6.740  16.741   8.808  0.1122 -0.1696  0.1258
  544loPI   C3B 8703   6.739  16.757   8.322 -0.0075  0.1272 -0.0780
  544loPI   C4B 8704   6.943  16.893   7.956  0.4345 -0.0145 -0.2393
  545loPI    C1 8705   8.553  10.854  10.284  0.0430  0.1554  0.0134
  545loPI    C2 8706   8.450  10.512  10.464  0.2504  0.0535 -0.0588
  545loPI    C3 8707   8.487  10.847  10.679  0.0409  0.0333  0.0112
  545loPI   PO4 8708   8.451  10.737  10.032  0.2017 -0.1649  0.2638
  545loPI   GL1 8709   8.077  10.631   9.764  0.4430  0.1215  0.0953
  545loPI   GL2 8710   7.988  10.295   9.690 -0.2210 -0.1409  0.1247
  545loPI   C1A 8711   8.294  10.525   9.314  0.1089 -0.1254 -0.0569
  545loPI   C2A 8712   8.774  10.596   9.169 -0.2448 -0.1306 -0.0307
  545loPI   C3A 8713   8.985  10.958   9.180 -0.1438 -0.0404 -0.1743
  545loPI   C4A 8714   9.344  11.076   9.121  0.2539 -0.0345 -0.0956
  545loPI   C5A 8715   9.737  11.225   8.989  0.0932  0.0317  0.0680
  545loPI   C6A 8716   9.985  11.633   8.799  0.1634  0.4152 -0.2083
  545loPI   C1B 8717   7.945  10.121   9.321  0.1183 -0.4233  0.1605
  545loPI   C2B 8718   8.062  10.193   8.922 -0.1026  0.1274  0.1580
  545loPI   C3B 8719   8.003  10.313   8.576 -0.1661  0.0499  0.1904
  545loPI   C4B 8720   7.975  10.329   8.164  0.3319 -0.1619  0.0390
  546loPI    C1 8721   5.119  10.806  10.105  0.1524 -0.3296 -0.1832
  546loPI    C2 8722   4.820  10.574  10.237 -0.0648 -0.0028 -0.0888
  546loPI    C3 8723   5.045  10.778  10.497 -0.1921  0.2753 -0.1924
  546loPI   PO4 8724   5.108  10.725   9.824  0.3995 -0.2641  0.1439
  546loPI   GL1 8725   4.910  10.909   9.453  0.0162  0.1666 -0.0606
  546loPI   GL2 8726   4.912  10.487   9.446  0.0514 -0.2396 -0.1907
  546loPI   C1A 8727   4.598  10.770   9.174 -0.0958  0.0175  0.2880
  546loPI   C2A 8728   4.402  10.766   8.692 -0.2289  0.0226 -0.0673
  546loPI   C3A 8729   4.188  10.839   8.343  0.1433  0.2784  0.0872
  546loPI   C4A 8730   4.095  11.035   8.019  0.1656  0.0725 -0.1084
  546loPI   C5A 8731   4.230  11.318   7.718 -0.2333 -0.1157  0.3009
  546loPI   C6A 8732   4.403  11.516   7.240  0.2599 -0.1991 -0.0409
  546loPI   C1B 8733   4.741  10.027   9.317 -0.0062 -0.0722  0.1592
  546loPI   C2B 8734   4.393   9.919   9.058  0.5276  0.1054  0.0921
  546loPI   C3B 8735   4.128   9.770   8.832  0.0661  0.4565  0.0431
  546loPI   C4B 8736   3.875   9.438   8.632  0.1742  0.1987 -0.0114
  547loPI    C1 8737  12.106  12.933  10.002 -0.1434  0.1461  0.0534
  547loPI    C2 8738  12.430  13.140  10.111  0.0876 -0.0698 -0.2059
  547loPI    C3 8739  12.141  13.065  10.378  0.3210 -0.0061  0.0701
  547loPI   PO4 8740  12.173  12.735   9.901  0.0616  0.1191  0.2368
  547loPI   GL1 8741  12.193  12.689   9.512  0.2459  0.2385  0.0960
  547loPI   GL2 8742  12.141  12.407   9.489  0.0400 -0.1047  0.0462
  547loPI   C1A 8743  11.901  12.666   9.160 -0.0435  0.2158  0.2245
  547loPI   C2A 8744  11.877  12.919   8.821  0.4284  0.0636  0.0340
  547loPI   C3A 8745  11.915  12.917   8.377 -0.4401  0.2465 -0.0179
  547loPI   C4A 8746  11.871  13.142   7.992  0.0932 -0.1004  0.0413
  547loPI   C5A 8747  11.710  13.498   7.739  0.1751  0.1293 -0.1394
  547loPI   C6A 8748  11.797  14.003   7.707  0.1432 -0.1839 -0.0297
  547loPI   C1B 8749  12.292  12.210   9.078  0.0706  0.0169 -0.1367
  547loPI   C2B 8750  12.298  12.023   8.649  0.4704 -0.0260  0.0884
  547loPI   C3B 8751  12.146  11.831   8.276 -0.1195  0.0219 -0.1918
  547loPI   C4B 8752  12.216  11.751   7.885  0.0861  0.1392  0.2444
  548loPI    C1 8753   9.134  12.913  10.331 -0.3995 -0.0777 -0.0169
  548loPI    C2 8754   8.760  12.842  10.453 -0.3104 -0.1220  0.2368
  548loPI    C3 8755   8.994  13.090  10.661 -0.2427  0.0148  0.0011
  548loPI   PO4 8756   9.122  12.994  10.105  0.1583 -0.0476  0.0898
  548loPI   GL1 8757   8.995  13.118   9.663 -0.1023  0.1519  0.1285
  548loPI   GL2 8758   8.605  13.084   9.501 -0.1990  0.1417  0.2707
  548loPI   C1A 8759   9.217  13.299   9.291 -0.0406 -0.0874 -0.0737
  548loPI   C2A 8760   9.303  13.306   8.839  0.0851 -0.2227  0.2218
  548loPI   C3A 8761   9.252  13.432   8.442  0.2169 -0.1462 -0.1724
  548loPI   C4A 8762   9.127  13.613   7.960  0.1697 -0.3068 -0.1911
  548loPI   C5A 8763   8.739  13.755   7.616 -0.3562 -0.0189  0.2268
  548loPI   C6A 8764   8.289  13.725   7.624 -0.0031  0.0535 -0.2253
  548loPI   C1B 8765   8.827  13.111   9.104  0.1105  0.0770  0.3943
  548loPI   C2B 8766   8.775  13.220   8.618  0.0922  0.2960  0.1596
  548loPI   C3B 8767   8.558  12.932   8.244  0.0729 -0.4503 -0.1023
  548loPI   C4B 8768   8.492  12.749   7.772  0.1140  0.2288 -0.2533
  549loPI    C1 8769   9.676  11.599  10.006  0.2637 -0.0238 -0.3116
  549loPI    C2 8770   9.826  11.938  10.155 -0.1632  0.0381 -0.0009
  549loPI    C3 8771  10.013  11.590  10.220  0.1859  0.1872 -0.1776
  549loPI   PO4 8772   9.646  11.553   9.829  0.0782  0.1782 -0.0229
  549loPI   GL1 8773   9.418  11.678   9.430  0.3634 -0.2672 -0.3112
  549loPI   GL2 8774   9.023  11.767   9.519  0.1059 -0.0290  0.2091
  549loPI   C1A 8775   9.483  11.929   9.029  0.0243  0.0990 -0.1736
  549loPI   C2A 8776   9.329  12.023   8.661  0.0172  0.1237  0.0548
  549loPI   C3A 8777   9.055  12.147   8.311  0.3028  0.3183 -0.0924
  549loPI   C4A 8778   8.932  11.889   7.974  0.0023  0.0158 -0.3134
  549loPI   C5A 8779   8.563  11.735   7.782  0.0765 -0.0967  0.0822
  549loPI   C6A 8780   8.150  11.637   7.691  0.0084  0.2721 -0.0662
  549loPI   C1B 8781   9.102  11.509   9.121 -0.0196  0.2386  0.1013
  549loPI   C2B 8782   9.253  11.529   8.787  0.2075 -0.0737  0.1645
  549loPI   C3B 8783   9.351  11.629   8.412  0.2017 -0.2026  0.1501
  549loPI   C4B 8784   9.447  12.016   8.059  0.0931  0.0746  0.0595
  550loPI    C1 8785   9.413   9.076  10.356 -0.2826  0.0781 -0.0249
  550loPI    C2 8786   9.464   9.469  10.408  0.0278  0.0527 -0.1173
  550loPI    C3 8787   9.197   9.271  10.630 -0.0214  0.2870  0.0362
  550loPI   PO4 8788   9.492   9.101  10.044  0.2632  0.0563  0.1374
  550loPI   GL1 8789   9.467   9.422   9.789 -0.0635  0.1352 -0.1918
  550loPI   GL2 8790   9.445   9.757   9.670  0.1124 -0.0117 -0.0953
  550loPI   C1A 8791   9.521   9.201   9.416  0.1240 -0.1383 -0.2083
  550loPI   C2A 8792   9.561   9.233   8.939 -0.2394 -0.1899 -0.0192
  550loPI   C3A 8793   9.759   9.189   8.457 -0.2327 -0.1754  0.0211
  550loPI   C4A 8794   9.808   9.067   8.011 -0.0323 -0.0734 -0.1217
  550loPI   C5A 8795   9.662   9.109   7.641 -0.0663  0.0733 -0.0484
  550loPI   C6A 8796   9.744   9.197   7.157  0.2637 -0.5172 -0.0793
  550loPI   C1B 8797   9.715   9.780   9.365 -0.1141 -0.2337  0.1355
  550loPI   C2B 8798   9.631  10.026   9.065 -0.2066  0.0998 -0.1467
  550loPI   C3B 8799   9.561  10.178   8.715 -0.1602 -0.0029 -0.0861
  550loPI   C4B 8800   9.720  10.298   8.349 -0.1490  0.0144  0.1214
  551loPI    C1 8801  18.763  18.271  10.115 -0.2672  0.1180 -0.0122
  551loPI    C2 8802  18.642  18.142  10.474  0.0107 -0.1839 -0.0226
  551loPI    C3 8803  19.027  18.109  10.369 -0.0164  0.1591 -0.2426
  551loPI   PO4 8804  18.564  18.133   9.919  0.0172  0.1849 -0.1292
  551loPI   GL1 8805  18.524  18.284   9.451 -0.1136 -0.2061 -0.0664
  551loPI   GL2 8806  18.342  17.987   9.368  0.2056 -0.0378 -0.0773
  551loPI   C1A 8807  18.520  18.397   9.031  0.0197  0.0201  0.2937
  551loPI   C2A 8808  18.706  18.348   8.644  0.4938  0.5989 -0.0829
  551loPI   C3A 8809  18.636  18.445   8.226 -0.4287 -0.1406  0.0741
  551loPI   C4A 8810  18.669  18.747   7.908  0.0261  0.0161  0.1340
  551loPI   C5A 8811  18.884  18.930   7.571  0.2716  0.2938 -0.3131
  551loPI   C6A 8812  19.287  18.749   7.366  0.3641  0.1981 -0.1384
  551loPI   C1B 8813  18.399  17.890   8.989 -0.2703 -0.2362 -0.0688
  551loPI   C2B 8814  18.299  17.686   8.623 -0.0705 -0.1145  0.2756
  551loPI   C3B 8815  18.302  17.579   8.218 -0.0492 -0.1909  0.0798
  551loPI   C4B 8816  18.418  17.462   7.812 -0.3281 -0.1389  0.2705
  552loPI    C1 8817  11.674  13.974  10.000  0.0713 -0.1195  0.2515
  552loPI    C2 8818  11.577  14.350  10.096  0.0476 -0.0863  0.1008
  552loPI    C3 8819  11.637  14.078  10.384 -0.1087 -0.0107  0.2058
  552loPI   PO4 8820  11.550  13.903   9.779 -0.0224 -0.3437 -0.1124
  552loPI   GL1 8821  11.731  13.823   9.415 -0.1040  0.4383  0.4612
  552loPI   GL2 8822  12.019  14.001   9.558  0.0125 -0.0371 -0.2655
  552loPI   C1A 8823  11.573  13.866   9.063  0.1869  0.2263 -0.3210
  552loPI   C2A 8824  11.456  13.624   8.656 -0.0737 -0.2545  0.0921
  552loPI   C3A 8825  11.809  13.493   8.363 -0.1265  0.0837 -0.1344
  552loPI   C4A 8826  12.031  13.763   8.186  0.2796  0.0236  0.2509
  552loPI   C5A 8827  12.360  13.955   7.939  0.3062  0.1870 -0.2710
  552loPI   C6A 8828  12.701  14.151   7.649  0.3138 -0.0564 -0.0257
  552loPI   C1B 8829  12.176  13.995   9.184  0.2361  0.0068  0.2516
  552loPI   C2B 8830  11.896  14.137   8.824 -0.2077 -0.1482  0.0054
  552loPI   C3B 8831  11.637  14.078   8.466 -0.0680  0.3159 -0.0001
  552loPI   C4B 8832  11.634  14.237   8.072  0.0641 -0.1474  0.0900
  553loPI    C1 8833   6.860  16.237  10.610  0.1905 -0.0542 -0.0902
  553loPI    C2 8834   7.010  16.595  10.710 -0.0325  0.0314 -0.0574
  553loPI    C3 8835   7.031  16.290  10.968  0.0830  0.0428 -0.0528
  553loPI   PO4 8836   6.966  16.216  10.362 -0.0878 -0.0180  0.1673
  553loPI   GL1 8837   7.337  16.308  10.091  0.2269  0.3063 -0.1284
  553loPI   GL2 8838   7.399  16.686   9.932  0.0386 -0.1528  0.2789
  553loPI   C1A 8839   7.327  16.123   9.727  0.2045 -0.0207  0.0144
  553loPI   C2A 8840   7.220  16.054   9.348  0.1388  0.0148 -0.0948
  553loPI   C3A 8841   7.168  15.937   8.965 -0.1366  0.3400 -0.0032
  553loPI   C4A 8842   7.195  15.919   8.562 -0.2481 -0.0100 -0.1767
  553loPI   C5A 8843   7.266  16.077   8.184 -0.1478  0.2675 -0.0512
  553loPI   C6A 8844   7.374  16.214   7.744  0.2072  0.2955  0.0540
  553loPI   C1B 8845   7.221  16.554   9.468 -0.0831  0.2433  0.0294
  553loPI   C2B 8846   7.132  16.510   9.057 -0.1799 -0.0136  0.0328
  553loPI   C3B 8847   7.257  16.491   8.687  0.1135 -0.2007  0.0338
  553loPI   C4B 8848   7.169  16.548   8.161 -0.0627  0.0160  0.0493
  554loPI    C1 8849   5.497   4.674   9.807  0.2064 -0.0099 -0.0534
  554loPI    C2 8850   5.814   4.672  10.050  0.0356  0.2029  0.1769
  554loPI    C3 8851   5.522   4.404  10.101  0.1628  0.0227 -0.0197
  554loPI   PO4 8852   5.612   4.830   9.584  0.1120  0.2157  0.2272
  554loPI   GL1 8853   5.608   4.987   9.244  0.0680 -0.1415 -0.0287
  554loPI   GL2 8854   5.488   5.371   9.293 -0.0777 -0.3397  0.0461
  554loPI   C1A 8855   5.645   4.662   8.936 -0.1165 -0.1656  0.0721
  554loPI   C2A 8856   5.958   4.585   8.621  0.0120  0.2208 -0.0556
  554loPI   C3A 8857   6.293   4.697   8.402  0.1091  0.1102  0.1306
  554loPI   C4A 8858   6.590   4.695   8.071  0.1882  0.1806 -0.0866
  554loPI   C5A 8859   6.749   4.719   7.705 -0.0069 -0.1630 -0.1803
  554loPI   C6A 8860   7.012   4.855   7.442 -0.0947  0.0446  0.2513
  554loPI   C1B 8861   5.632   5.387   8.862 -0.0556  0.1262  0.0911
  554loPI   C2B 8862   5.594   5.376   8.372  0.1220  0.1358  0.0531
  554loPI   C3B 8863   5.322   5.562   8.047  0.0850  0.3091 -0.0704
  554loPI   C4B 8864   5.247   5.882   7.732  0.1264  0.0393  0.0930
  555loPI    C1 8865  13.942   3.380   9.822 -0.1045  0.1131  0.2013
  555loPI    C2 8866  13.644   3.324  10.083  0.0253 -0.2731  0.2727
  555loPI    C3 8867  14.023   3.336  10.211  0.0696 -0.1756  0.1351
  555loPI   PO4 8868  13.838   3.262   9.615 -0.2009  0.0084 -0.0295
  555loPI   GL1 8869  13.868   3.437   9.343 -0.5092 -0.1393  0.0283
  555loPI   GL2 8870  13.638   3.637   9.356 -0.1456  0.2590  0.1276
  555loPI   C1A 8871  13.832   3.539   8.828 -0.0083 -0.0024  0.0935
  555loPI   C2A 8872  13.821   3.508   8.365  0.4673  0.1720 -0.0138
  555loPI   C3A 8873  14.162   3.565   8.042 -0.1718  0.2378  0.0174
  555loPI   C4A 8874  14.148   3.748   7.538  0.0517 -0.1684 -0.3915
  555loPI   C5A 8875  13.779   3.751   7.347  0.2159  0.2815 -0.1220
  555loPI   C6A 8876  13.449   3.670   7.099  0.2237 -0.1225  0.1204
  555loPI   C1B 8877  13.414   3.779   8.984 -0.1812 -0.0091 -0.0966
  555loPI   C2B 8878  13.284   3.974   8.621  0.2625  0.0393  0.1372
  555loPI   C3B 8879  13.283   4.262   8.341  0.4575  0.0101 -0.1286
  555loPI   C4B 8880  13.352   4.332   7.921  0.2054 -0.0047  0.1573
  556loPI    C1 8881  14.807  11.495  10.015  0.1365 -0.1022  0.1701
  556loPI    C2 8882  14.813  11.490  10.415 -0.2530 -0.2597  0.1784
  556loPI    C3 8883  14.468  11.550  10.221 -0.0700 -0.2029 -0.1353
  556loPI   PO4 8884  14.935  11.330   9.925  0.2048  0.2273 -0.0802
  556loPI   GL1 8885  14.827  11.008   9.632 -0.3095  0.0147 -0.1153
  556loPI   GL2 8886  15.022  11.226   9.455 -0.1685  0.0103  0.1168
  556loPI   C1A 8887  14.647  10.941   9.175 -0.3720 -0.1789  0.0346
  556loPI   C2A 8888  14.731  10.956   8.753  0.1105  0.1257  0.1072
  556loPI   C3A 8889  14.733  11.280   8.357  0.0025 -0.0602  0.1610
  556loPI   C4A 8890  14.855  11.356   7.933 -0.2785 -0.0399  0.2050
  556loPI   C5A 8891  14.976  11.528   7.454 -0.2996  0.1637  0.2014
  556loPI   C6A 8892  15.034  11.807   7.104  0.3127 -0.0659 -0.0546
  556loPI   C1B 8893  14.969  11.318   9.080  0.3157  0.0948 -0.1488
  556loPI   C2B 8894  14.673  11.516   8.906 -0.0406  0.6165 -0.0769
  556loPI   C3B 8895  14.412  11.690   8.542 -0.0054  0.0694 -0.0517
  556loPI   C4B 8896  14.404  11.611   8.135 -0.2341 -0.0759  0.0950
  557loPI    C1 8897  11.203  13.362  10.112 -0.0069 -0.2041  0.0049
  557loPI    C2 8898  11.453  13.613  10.298  0.0888 -0.1412 -0.2047
  557loPI    C3 8899  11.299  13.300  10.495 -0.1095  0.1348  0.0888
  557loPI   PO4 8900  11.312  13.334   9.889 -0.1350 -0.0709  0.1102
  557loPI   GL1 8901  11.328  13.343   9.388 -0.1810  0.2742 -0.4167
  557loPI   GL2 8902  11.368  13.179   9.029  0.2891  0.1400 -0.0199
  557loPI   C1A 8903  10.973  13.533   9.167 -0.3842 -0.1326  0.3041
  557loPI   C2A 8904  11.018  13.528   8.720 -0.0894  0.0537 -0.2774
  557loPI   C3A 8905  11.045  13.338   8.306 -0.3999 -0.0427  0.1363
  557loPI   C4A 8906  10.859  13.434   7.872 -0.1414  0.0392 -0.1095
  557loPI   C5A 8907  10.530  13.621   7.562  0.0454  0.1599  0.1216
  557loPI   C6A 8908  10.071  13.698   7.502  0.1893  0.0086  0.1404
  557loPI   C1B 8909  11.456  13.108   8.545  0.0890 -0.1662 -0.0368
  557loPI   C2B 8910  11.447  12.991   8.208  0.0497  0.1604 -0.0788
  557loPI   C3B 8911  11.347  13.117   7.900 -0.0557  0.1006 -0.2176
  557loPI   C4B 8912  11.547  13.014   7.473 -0.1484 -0.0037  0.3150
  558loPI    C1 8913   3.667   0.518  10.401  0.3945  0.0061  0.0187
  558loPI    C2 8914   3.508   0.162  10.313  0.0958  0.1722 -0.1315
  558loPI    C3 8915   3.571   0.264  10.695  0.2573 -0.0698 -0.0911
  558loPI   PO4 8916   3.698   0.627  10.089 -0.0500  0.0511 -0.2017
  558loPI   GL1 8917   3.679   0.537   9.656 -0.0384 -0.0288  0.2599
  558loPI   GL2 8918   3.718   0.232   9.765  0.0299 -0.0845  0.0359
  558loPI   C1A 8919   3.878   0.413   9.282 -0.0313  0.1860 -0.1219
  558loPI   C2A 8920   3.886   0.489   8.912  0.2878  0.0038 -0.0734
  558loPI   C3A 8921   4.063   0.608   8.612  0.0160  0.1490  0.0288
  558loPI   C4A 8922   4.144   0.722   8.263 -0.1335 -0.3321  0.0083
  558loPI   C5A 8923   4.146   0.932   7.854  0.1750 -0.1176 -0.0091
  558loPI   C6A 8924   4.284   0.679   7.450  0.1832  0.0093  0.3102
  558loPI   C1B 8925   3.751  -0.092   9.397  0.3704 -0.1675  0.0463
  558loPI   C2B 8926   3.944  -0.230   8.982  0.0144  0.0119  0.0857
  558loPI   C3B 8927   4.337  -0.337   8.787 -0.0508 -0.2001 -0.0905
  558loPI   C4B 8928   4.775  -0.466   8.806  0.0149 -0.3455 -0.0911
  559loPI    C1 8929   6.893  11.315   9.815  0.0131 -0.0356 -0.1856
  559loPI    C2 8930   7.078  10.989   9.953 -0.1515 -0.0411  0.0268
  559loPI    C3 8931   6.811  11.179  10.182 -0.0524  0.2471 -0.0929
  559loPI   PO4 8932   6.988  11.544   9.786 -0.4137  0.1168  0.1408
  559loPI   GL1 8933   6.858  11.823   9.476 -0.1260 -0.3754 -0.2026
  559loPI   GL2 8934   7.128  11.946   9.367 -0.0918  0.0903 -0.0855
  559loPI   C1A 8935   6.560  11.779   9.179 -0.2874  0.0500 -0.0346
  559loPI   C2A 8936   6.758  11.672   8.791  0.0317 -0.1000 -0.1105
  559loPI   C3A 8937   6.996  11.760   8.453 -0.0070  0.3023 -0.3739
  559loPI   C4A 8938   6.968  11.982   8.115  0.1644  0.3260  0.0955
  559loPI   C5A 8939   6.887  12.199   7.871 -0.1477  0.0145  0.1959
  559loPI   C6A 8940   6.908  12.371   7.534 -0.0041 -0.3344  0.1131
  559loPI   C1B 8941   7.172  11.997   8.980  0.0656 -0.1766 -0.0208
  559loPI   C2B 8942   7.241  12.257   8.516  0.1810 -0.1025 -0.3060
  559loPI   C3B 8943   7.078  12.500   8.226  0.1184 -0.0386 -0.2353
  559loPI   C4B 8944   7.038  12.797   8.014  0.1059 -0.1076  0.2839
  560loPI    C1 8945   3.071   2.509   9.949  0.1415 -0.1130  0.0014
  560loPI    C2 8946   3.408   2.622  10.132  0.0517 -0.0043  0.1014
  560loPI    C3 8947   3.064   2.610  10.336 -0.0542  0.1427 -0.0657
  560loPI   PO4 8948   3.015   2.704   9.738  0.1959  0.1132 -0.0777
  560loPI   GL1 8949   2.800   2.597   9.345 -0.0890  0.2763 -0.0193
  560loPI   GL2 8950   3.104   2.344   9.101  0.0369  0.0014  0.0134
  560loPI   C1A 8951   2.687   2.654   8.893  0.2307 -0.0971 -0.1808
  560loPI   C2A 8952   2.650   2.570   8.398  0.2522  0.2142  0.0835
  560loPI   C3A 8953   2.446   2.630   8.002  0.0546  0.0925  0.1580
  560loPI   C4A 8954   2.250   2.683   7.629  0.1125  0.3427 -0.0300
  560loPI   C5A 8955   1.925   2.722   7.350 -0.1007 -0.1219 -0.1460
  560loPI   C6A 8956   1.711   2.817   6.986  0.1781  0.0820  0.0716
  560loPI   C1B 8957   3.041   2.332   8.724  0.0861  0.1014 -0.0048
  560loPI   C2B 8958   3.144   2.343   8.317  0.0933 -0.1734  0.0701
  560loPI   C3B 8959   3.447   2.500   7.993  0.0483  0.1176 -0.0591
  560loPI   C4B 8960   3.842   2.442   7.691 -0.0569  0.0595  0.1912
  561loPI    C1 8961   1.478  10.590  10.302  0.1832 -0.1353  0.2357
  561loPI    C2 8962   1.458  10.194  10.355 -0.0506 -0.1728 -0.0976
  561loPI    C3 8963   1.332  10.441  10.643  0.2537 -0.3333  0.1806
  561loPI   PO4 8964   1.577  10.553  10.063  0.2505 -0.3810 -0.3868
  561loPI   GL1 8965   1.746  10.644   9.837 -0.0889  0.0938  0.3326
  561loPI   GL2 8966   2.005  10.752   9.822  0.2113 -0.2069  0.1015
  561loPI   C1A 8967   1.772  10.590   9.428  0.2013  0.0665 -0.0587
  561loPI   C2A 8968   1.817  10.642   9.058 -0.0598  0.0315 -0.0112
  561loPI   C3A 8969   1.911  10.619   8.618  0.2019 -0.4377  0.0244
  561loPI   C4A 8970   1.937  10.539   8.211  0.0169 -0.5683 -0.1182
  561loPI   C5A 8971   2.185  10.566   7.810  0.0009  0.0196 -0.2760
  561loPI   C6A 8972   2.454  10.308   7.769  0.0672  0.0006  0.0885
  561loPI   C1B 8973   2.187  10.876   9.427  0.0983  0.2894  0.1159
  561loPI   C2B 8974   2.335  10.860   9.053  0.4080 -0.1607 -0.0958
  561loPI   C3B 8975   2.394  10.803   8.667 -0.0308 -0.1739  0.0433
  561loPI   C4B 8976   2.304  10.828   8.219 -0.2134 -0.2572  0.0351
  562loPI    C1 8977   7.738   0.413  10.084  0.0714  0.1096  0.0207
  562loPI    C2 8978   7.504   0.726  10.172 -0.1053  0.0052 -0.0716
  562loPI    C3 8979   7.538   0.423  10.431  0.0043  0.0640 -0.0164
  562loPI   PO4 8980   7.661   0.414   9.828 -0.1584  0.1506  0.0000
  562loPI   GL1 8981   7.731   0.476   9.432 -0.0468  0.1373 -0.3154
  562loPI   GL2 8982   7.803   0.053   9.458  0.1936 -0.2770  0.3819
  562loPI   C1A 8983   7.962   0.573   9.067 -0.2907  0.1279 -0.0536
  562loPI   C2A 8984   8.137   0.556   8.761  0.4398  0.0042  0.0398
  562loPI   C3A 8985   8.282   0.664   8.383 -0.4598  0.1038 -0.1539
  562loPI   C4A 8986   8.528   0.700   8.067 -0.0763  0.0115 -0.1105
  562loPI   C5A 8987   8.656   1.081   7.759  0.0958  0.2959  0.2700
  562loPI   C6A 8988   8.680   1.462   7.542 -0.1650  0.4414  0.3120
  562loPI   C1B 8989   7.958  -0.087   8.941  0.1122  0.2017 -0.0596
  562loPI   C2B 8990   8.004  -0.356   8.568 -0.1976 -0.0988  0.1113
  562loPI   C3B 8991   8.063  -0.462   8.116  0.4012  0.0308  0.0854
  562loPI   C4B 8992   8.082  -0.720   7.803  0.0834  0.0356  0.0032
  563loPI    C1 8993  11.449  11.427   9.933  0.1205 -0.3685 -0.1801
  563loPI    C2 8994  11.452  11.188  10.254 -0.3511 -0.0004  0.1105
  563loPI    C3 8995  11.735  11.467  10.209 -0.0961 -0.2678  0.0331
  563loPI   PO4 8996  11.171  11.219   9.847  0.0430  0.2286  0.3456
  563loPI   GL1 8997  11.053  11.013   9.448  0.2529  0.4018  0.0321
  563loPI   GL2 8998  10.791  10.849   9.655  0.1297 -0.3121  0.0185
  563loPI   C1A 8999  11.055  11.013   9.015 -0.1039  0.0546 -0.2549
  563loPI   C2A 9000  10.973  11.006   8.516  0.1917 -0.1001 -0.1179
  563loPI   C3A 9001  10.987  11.031   8.005 -0.0237  0.2165  0.2823
  563loPI   C4A 9002  11.188  11.365   7.796  0.1395  0.0292 -0.1507
  563loPI   C5A 9003  11.399  11.608   7.611  0.2217 -0.0456  0.1836
  563loPI   C6A 9004  11.669  11.876   7.535  0.2776  0.1148 -0.1584
  563loPI   C1B 9005  10.592  10.986   9.228  0.0187 -0.0432  0.0765
  563loPI   C2B 9006  10.518  11.001   8.767  0.0684  0.1068 -0.0040
  563loPI   C3B 9007  10.165  11.166   8.603  0.0502  0.0859  0.2812
  563loPI   C4B 9008  10.161  11.503   8.315  0.0220 -0.3090 -0.2221
  564loPI    C1 9009  14.210  18.040  10.474 -0.0572  0.1671  0.2402
  564loPI    C2 9010  13.943  17.754  10.559 -0.0586  0.0554 -0.1224
  564loPI    C3 9011  14.231  17.844  10.822 -0.0788 -0.2559  0.0102
  564loPI   PO4 9012  14.182  18.023  10.136  0.1759 -0.3131  0.2300
  564loPI   GL1 9013  13.946  17.944   9.716  0.1728  0.0800 -0.0556
  564loPI   GL2 9014  14.209  17.760   9.688 -0.2676 -0.4021 -0.0244
  564loPI   C1A 9015  13.764  17.912   9.345 -0.2146 -0.0999 -0.0955
  564loPI   C2A 9016  13.705  17.823   8.890 -0.0080 -0.2957 -0.0404
  564loPI   C3A 9017  13.440  17.753   8.544 -0.1025  0.0796 -0.0020
  564loPI   C4A 9018  13.543  17.618   8.090 -0.1277 -0.4325  0.1233
  564loPI   C5A 9019  13.794  17.528   7.632  0.0265 -0.0963 -0.0519
  564loPI   C6A 9020  13.576  17.495   7.183 -0.0350 -0.0680 -0.1148
  564loPI   C1B 9021  14.014  17.425   9.469  0.0957 -0.2814 -0.0916
  564loPI   C2B 9022  13.663  17.422   9.248 -0.1433 -0.0615 -0.2121
  564loPI   C3B 9023  13.492  17.280   8.888  0.0898  0.0886 -0.1438
  564loPI   C4B 9024  13.735  17.051   8.642  0.0330  0.1906 -0.2715
  565loPI    C1 9025   9.700   9.893  10.117 -0.0044 -0.0939 -0.1603
  565loPI    C2 9026   9.954   9.828  10.419 -0.1290 -0.0986 -0.0556
  565loPI    C3 9027   9.863   9.531  10.167 -0.0341 -0.0979 -0.0913
  565loPI   PO4 9028   9.845  10.062   9.918 -0.2845  0.1525  0.1164
  565loPI   GL1 9029  10.009  10.224   9.481  0.1561  0.0430 -0.0676
  565loPI   GL2 9030   9.707  10.433   9.518 -0.2595  0.1107 -0.2385
  565loPI   C1A 9031  10.091  10.201   8.991 -0.0158 -0.2410  0.0486
  565loPI   C2A 9032  10.291  10.144   8.562  0.2435 -0.3061 -0.0510
  565loPI   C3A 9033  10.220  10.097   8.167  0.2540 -0.1939  0.0932
  565loPI   C4A 9034   9.916  10.192   7.858 -0.3055  0.1661  0.1923
  565loPI   C5A 9035   9.540  10.370   7.884  0.0683  0.0830 -0.0922
  565loPI   C6A 9036   9.123  10.348   7.732 -0.1141  0.0157  0.1065
  565loPI   C1B 9037   9.676  10.577   9.077  0.2809 -0.2669 -0.3114
  565loPI   C2B 9038   9.647  10.886   8.660 -0.3843  0.0506  0.1332
  565loPI   C3B 9039   9.723  11.204   8.478 -0.0262 -0.0734  0.3104
  565loPI   C4B 9040   9.911  11.175   8.070  0.2711  0.2061 -0.1986
  566loPI    C1 9041  18.830   9.292  10.026  0.1302 -0.1134  0.0188
  566loPI    C2 9042  18.556   9.045  10.182 -0.0798  0.0618 -0.0677
  566loPI    C3 9043  18.826   8.906   9.922 -0.1577 -0.0892 -0.0685
  566loPI   PO4 9044  18.753   9.445   9.934 -0.1791 -0.0081 -0.1429
  566loPI   GL1 9045  18.792   9.789   9.723  0.2438 -0.1640  0.0892
  566loPI   GL2 9046  18.807   9.609   9.488 -0.3676 -0.4177 -0.0967
  566loPI   C1A 9047  18.639  10.156   9.431 -0.3675 -0.2938 -0.1063
  566loPI   C2A 9048  18.523  10.326   8.977  0.1022  0.0194 -0.0061
  566loPI   C3A 9049  18.588  10.409   8.573  0.1414 -0.3810  0.2103
  566loPI   C4A 9050  18.796  10.324   8.198  0.1374  0.1076 -0.0305
  566loPI   C5A 9051  18.782  10.289   7.696  0.2788 -0.3066  0.0506
  566loPI   C6A 9052  19.048  10.138   7.349 -0.0128  0.2907  0.0006
  566loPI   C1B 9053  18.656   9.334   9.148 -0.3142 -0.1647  0.0691
  566loPI   C2B 9054  18.300   9.297   8.909  0.3126 -0.3225  0.2778
  566loPI   C3B 9055  18.201   9.427   8.530 -0.2411  0.0397  0.1619
  566loPI   C4B 9056  18.194   9.492   8.051  0.0190  0.0952  0.2608
  567loPI    C1 9057  13.185   6.584  10.398  0.0385 -0.0060 -0.0767
  567loPI    C2 9058  13.379   6.256  10.518 -0.0969 -0.0900 -0.0855
  567loPI    C3 9059  13.068   6.393  10.729 -0.2789 -0.1862 -0.2877
  567loPI   PO4 9060  13.156   6.612  10.126 -0.0694  0.0520 -0.0410
  567loPI   GL1 9061  13.321   6.552   9.620 -0.0199  0.0163 -0.0714
  567loPI   GL2 9062  12.991   6.669   9.549  0.0487 -0.0419 -0.1064
  567loPI   C1A 9063  13.523   6.643   9.258  0.0959  0.0080  0.2352
  567loPI   C2A 9064  13.625   6.822   8.904 -0.4055 -0.0505 -0.0745
  567loPI   C3A 9065  13.700   7.220   8.714 -0.0442 -0.0653 -0.2689
  567loPI   C4A 9066  14.031   7.318   8.455  0.0340  0.2613  0.2593
  567loPI   C5A 9067  14.248   7.669   8.278  0.1210 -0.1453  0.5761
  567loPI   C6A 9068  14.407   7.998   8.122  0.0806  0.0768 -0.1066
  567loPI   C1B 9069  13.129   6.396   9.149 -0.0296 -0.0593 -0.0947
  567loPI   C2B 9070  13.353   6.361   8.853 -0.2568 -0.2677  0.0457
  567loPI   C3B 9071  13.463   6.471   8.459  0.1412 -0.3279 -0.1417
  567loPI   C4B 9072  13.634   6.372   8.193 -0.0183  0.1454  0.0516
  568loPI    C1 9073  16.734   5.314   9.814 -0.0985  0.0396 -0.0284
  568loPI    C2 9074  16.578   5.260  10.179  0.1210 -0.1948  0.0340
  568loPI    C3 9075  16.940   5.425  10.138  0.1476 -0.2769 -0.0706
  568loPI   PO4 9076  16.503   5.096   9.690  0.1166 -0.1536  0.0677
  568loPI   GL1 9077  16.434   4.874   9.320  0.1615 -0.2123 -0.2561
  568loPI   GL2 9078  16.119   4.923   9.202 -0.1466  0.0007 -0.1606
  568loPI   C1A 9079  16.566   4.605   9.043  0.2823  0.0317  0.0168
  568loPI   C2A 9080  16.760   4.676   8.620 -0.1826  0.1067 -0.3246
  568loPI   C3A 9081  16.888   4.674   8.198 -0.3199  0.1475 -0.1912
  568loPI   C4A 9082  16.885   4.340   7.938 -0.3095  0.0123  0.1807
  568loPI   C5A 9083  17.044   4.172   7.625  0.1658  0.0176 -0.0342
  568loPI   C6A 9084  17.276   3.954   7.334  0.1441 -0.0014 -0.2574
  568loPI   C1B 9085  16.174   4.712   8.755 -0.2892  0.1410 -0.1228
  568loPI   C2B 9086  16.262   4.706   8.318  0.5156 -0.1330  0.0458
  568loPI   C3B 9087  16.365   4.443   7.937 -0.0237 -0.3276 -0.2343
  568loPI   C4B 9088  16.466   4.374   7.504  0.3170 -0.2557 -0.2639
  569loPI    C1 9089   2.131  11.225  10.231 -0.1394  0.2326 -0.2435
  569loPI    C2 9090   1.779  11.106  10.082 -0.2071  0.4095 -0.2286
  569loPI    C3 9091   1.793  11.298  10.432 -0.0389 -0.0976  0.0541
  569loPI   PO4 9092   2.324  11.073  10.080 -0.1131 -0.2235 -0.0541
  569loPI   GL1 9093   2.493  10.823   9.806  0.2200 -0.0143  0.0051
  569loPI   GL2 9094   2.503  10.567   9.851  0.2176  0.2531 -0.1216
  569loPI   C1A 9095   2.709  10.710   9.392 -0.0257 -0.1057  0.0957
  569loPI   C2A 9096   2.814  10.623   8.901  0.1157 -0.0046 -0.0868
  569loPI   C3A 9097   2.854  10.673   8.510  0.0670 -0.1340  0.2197
  569loPI   C4A 9098   2.758  10.638   8.017  0.1091 -0.0158 -0.0596
  569loPI   C5A 9099   2.885  10.928   7.719 -0.0100 -0.1217 -0.0786
  569loPI   C6A 9100   2.811  11.032   7.391  0.0424 -0.0935  0.0677
  569loPI   C1B 9101   2.305  10.386   9.460  0.2501  0.1675 -0.2550
  569loPI   C2B 9102   2.422  10.377   9.096 -0.2387 -0.0912 -0.1860
  569loPI   C3B 9103   2.277  10.273   8.699 -0.1783 -0.3930  0.0144
  569loPI   C4B 9104   2.372  10.293   8.251  0.1075 -0.1604  0.1327
  570loPI    C1 9105  13.480   5.333  10.202  0.2233  0.0651 -0.0835
  570loPI    C2 9106  13.201   5.380  10.485  0.0535 -0.0147 -0.2357
  570loPI    C3 9107  13.557   5.223  10.579 -0.0341 -0.1248 -0.0839
  570loPI   PO4 9108  13.264   5.153   9.988  0.1234  0.2079  0.2281
  570loPI   GL1 9109  13.046   5.291   9.611 -0.1595 -0.2965 -0.2901
  570loPI   GL2 9110  13.004   5.623   9.714  0.0269  0.1902 -0.0134
  570loPI   C1A 9111  13.197   5.046   9.190 -0.0246  0.2094  0.0329
  570loPI   C2A 9112  13.153   4.842   8.781 -0.1247 -0.3858 -0.0466
  570loPI   C3A 9113  13.210   4.736   8.342  0.3386  0.3065 -0.3007
  570loPI   C4A 9114  13.140   4.795   7.926 -0.1449  0.2229  0.2836
  570loPI   C5A 9115  13.001   4.863   7.569  0.0770  0.4473  0.0138
  570loPI   C6A 9116  12.963   4.837   7.135  0.5062  0.0301 -0.3698
  570loPI   C1B 9117  13.038   5.742   9.347  0.0532  0.1582 -0.0963
  570loPI   C2B 9118  13.015   5.848   8.847 -0.1326 -0.0401  0.0295
  570loPI   C3B 9119  12.914   5.850   8.475 -0.0757 -0.2445  0.0256
  570loPI   C4B 9120  12.871   5.791   8.048 -0.1447 -0.0637 -0.1774
  571loPI    C1 9121   3.233   3.566   9.980  0.0594 -0.1990 -0.0604
  571loPI    C2 9122   3.258   3.837  10.274  0.4134 -0.1175 -0.1603
  571loPI    C3 9123   3.072   3.488  10.338 -0.0053  0.1248 -0.0161
  571loPI   PO4 9124   3.332   3.715   9.785 -0.1449 -0.1510  0.1311
  571loPI   GL1 9125   3.400   3.703   9.434 -0.1389  0.1115  0.0844
  571loPI   GL2 9126   3.201   3.481   9.132  0.0238  0.0363  0.2233
  571loPI   C1A 9127   3.459   3.926   9.069  0.1401  0.1988  0.2248
  571loPI   C2A 9128   3.585   4.003   8.570  0.4927  0.1323  0.3422
  571loPI   C3A 9129   3.654   3.763   8.285  0.0663  0.0473 -0.1765
  571loPI   C4A 9130   3.419   3.980   7.909  0.2759  0.1380  0.3597
  571loPI   C5A 9131   3.066   4.023   7.791  0.1136 -0.2659 -0.3187
  571loPI   C6A 9132   2.730   4.172   7.583  0.1975  0.0989 -0.0871
  571loPI   C1B 9133   3.070   3.654   8.702 -0.0806 -0.1100 -0.0900
  571loPI   C2B 9134   3.046   3.781   8.323  0.0274  0.1451 -0.1045
  571loPI   C3B 9135   3.132   3.545   7.892  0.0017  0.0474 -0.1325
  571loPI   C4B 9136   3.000   3.389   7.561 -0.0941  0.3239  0.2728
  572loPI    C1 9137  18.750   8.559  10.274  0.3213 -0.1656 -0.0632
  572loPI    C2 9138  18.957   8.839  10.471  0.0284 -0.0753  0.1224
  572loPI    C3 9139  18.923   8.471  10.624  0.1800 -0.1351  0.0150
  572loPI   PO4 9140  18.841   8.405  10.074  0.0898  0.3667  0.0104
  572loPI   GL1 9141  18.762   8.470   9.645 -0.1263  0.0214  0.2166
  572loPI   GL2 9142  19.086   8.662   9.518 -0.0722  0.0823 -0.0125
  572loPI   C1A 9143  18.788   8.373   9.201  0.3182  0.1396  0.1671
  572loPI   C2A 9144  18.831   8.232   8.759  0.1123  0.0228 -0.0412
  572loPI   C3A 9145  19.178   8.376   8.567 -0.2781  0.1024  0.0388
  572loPI   C4A 9146  19.352   8.576   8.168 -0.4653  0.1324  0.2642
  572loPI   C5A 9147  19.635   8.452   7.844  0.1443 -0.1334  0.1039
  572loPI   C6A 9148  19.831   8.407   7.461 -0.1233  0.4653  0.3469
  572loPI   C1B 9149  19.278   8.534   9.147  0.2267 -0.0288  0.1474
  572loPI   C2B 9150  19.544   8.521   8.843 -0.3005  0.2445  0.0575
  572loPI   C3B 9151  19.711   8.783   8.575  0.0803  0.1954 -0.3040
  572loPI   C4B 9152  19.823   8.753   8.185  0.0260  0.0393  0.0867
  573loPI    C1 9153  12.281   7.166   9.991  0.0053  0.0482  0.0493
  573loPI    C2 9154  11.909   7.290  10.070  0.0645  0.2778 -0.0241
  573loPI    C3 9155  12.214   7.416  10.296  0.0933  0.0544  0.0636
  573loPI   PO4 9156  12.417   7.232   9.806 -0.1219 -0.3315  0.2331
  573loPI   GL1 9157  12.305   7.243   9.364  0.0741  0.0069  0.0615
  573loPI   GL2 9158  12.227   7.506   9.211 -0.0885 -0.0112  0.2536
  573loPI   C1A 9159  12.365   7.136   8.921  0.0697  0.0907 -0.4502
  573loPI   C2A 9160  12.111   7.093   8.522  0.0681  0.1453  0.2239
  573loPI   C3A 9161  11.853   7.201   8.111 -0.0800 -0.2667 -0.1576
  573loPI   C4A 9162  11.615   7.247   7.814  0.3431 -0.2666 -0.2125
  573loPI   C5A 9163  11.263   7.501   7.661  0.1295  0.2466  0.0506
  573loPI   C6A 9164  10.874   7.694   7.673  0.0452  0.1542  0.0232
  573loPI   C1B 9165  12.312   7.616   8.790  0.0155 -0.1976 -0.2299
  573loPI   C2B 9166  12.323   7.536   8.322  0.0974  0.0936  0.0709
  573loPI   C3B 9167  12.526   7.569   7.918  0.0890 -0.0272 -0.1441
  573loPI   C4B 9168  12.873   7.694   7.739 -0.0814 -0.2079 -0.0469
  574loPI    C1 9169   3.778  13.376  10.747 -0.0647 -0.3404  0.0434
  574loPI    C2 9170   3.624  13.129  11.022 -0.3473 -0.1107  0.0966
  574loPI    C3 9171   3.600  13.525  11.073 -0.0681 -0.0682 -0.0802
  574loPI   PO4 9172   3.648  13.270  10.502  0.1297  0.1687  0.0617
  574loPI   GL1 9173   3.616  13.090  10.175 -0.0758 -0.2200 -0.0590
  574loPI   GL2 9174   3.527  12.768  10.175 -0.0283 -0.1546 -0.3482
  574loPI   C1A 9175   3.333  13.273   9.850  0.0551 -0.1208 -0.0319
  574loPI   C2A 9176   3.411  13.187   9.373 -0.1378  0.1750  0.1398
  574loPI   C3A 9177   3.403  13.178   8.945  0.0657 -0.0824  0.2572
  574loPI   C4A 9178   3.437  13.232   8.470  0.0382  0.1766  0.3191
  574loPI   C5A 9179   3.386  13.321   8.068  0.1399 -0.1476 -0.0675
  574loPI   C6A 9180   3.336  13.385   7.593  0.0790 -0.0117  0.0434
  574loPI   C1B 9181   3.703  12.817   9.682  0.1521  0.0024  0.1309
  574loPI   C2B 9182   3.564  12.591   9.215 -0.0628 -0.0287  0.1060
  574loPI   C3B 9183   3.470  12.699   8.839  0.0961  0.3230  0.2352
  574loPI   C4B 9184   3.443  12.665   8.344 -0.0313  0.3280  0.2907
  575loPI    C1 9185  14.502  15.773  10.192  0.2533  0.1335  0.0381
  575loPI    C2 9186  14.725  15.564  10.450 -0.0762 -0.1883  0.0697
  575loPI    C3 9187  14.488  15.858  10.583  0.1725  0.0196  0.0604
  575loPI   PO4 9188  14.644  15.898  10.008  0.0715  0.0200  0.0640
  575loPI   GL1 9189  14.757  15.788   9.649  0.2255 -0.0848 -0.1458
  575loPI   GL2 9190  14.555  15.505   9.670  0.3109  0.0709  0.0155
  575loPI   C1A 9191  15.000  15.803   9.284  0.1754  0.1766  0.0378
  575loPI   C2A 9192  15.227  15.648   8.883  0.1301  0.1209  0.0565
  575loPI   C3A 9193  15.335  15.750   8.409  0.1540 -0.1975  0.3169
  575loPI   C4A 9194  15.292  15.695   7.884 -0.0729 -0.1002 -0.4295
  575loPI   C5A 9195  15.673  15.688   7.585 -0.0763  0.0020 -0.3714
  575loPI   C6A 9196  15.976  15.478   7.334  0.0899 -0.4306 -0.0215
  575loPI   C1B 9197  14.544  15.466   9.231  0.0147 -0.1275 -0.0583
  575loPI   C2B 9198  14.636  15.573   8.832  0.0236  0.0157  0.2427
  575loPI   C3B 9199  14.811  15.766   8.567 -0.0822  0.0004  0.1861
  575loPI   C4B 9200  14.908  15.889   8.226 -0.2080 -0.0078  0.0446
  576loPI    C1 9201   6.414  18.563  10.046  0.1584  0.0404  0.1554
  576loPI    C2 9202   6.416  18.402  10.412 -0.0893  0.2087  0.2333
  576loPI    C3 9203   6.521  18.785  10.361  0.0126  0.1661  0.1176
  576loPI   PO4 9204   6.471  18.330   9.942 -0.3042 -0.0670  0.2139
  576loPI   GL1 9205   6.368  18.029   9.645 -0.1394 -0.3471  0.0981
  576loPI   GL2 9206   6.655  17.898   9.705 -0.0190  0.2610 -0.1710
  576loPI   C1A 9207   6.212  17.992   9.231  0.4225  0.1607  0.1748
  576loPI   C2A 9208   6.216  18.079   8.768 -0.3385  0.0113  0.0846
  576loPI   C3A 9209   6.270  18.112   8.321 -0.4348 -0.3639  0.1051
  576loPI   C4A 9210   6.291  18.189   7.854  0.2967  0.2905  0.2096
  576loPI   C5A 9211   5.879  18.348   7.609 -0.1204 -0.0303 -0.2210
  576loPI   C6A 9212   5.338  18.123   7.513  0.0953 -0.0480  0.1190
  576loPI   C1B 9213   6.666  17.672   9.236 -0.0983  0.2907 -0.0120
  576loPI   C2B 9214   6.623  17.724   8.789  0.0918 -0.0053 -0.0933
  576loPI   C3B 9215   6.720  17.813   8.405 -0.0442 -0.1626 -0.1848
  576loPI   C4B 9216   6.658  17.941   8.053  0.4689 -0.0787  0.3359
  577loPI    C1 9217   4.681   9.162  10.422  0.0298  0.1878 -0.2234
  577loPI    C2 9218   4.692   9.444  10.706 -0.0685  0.0550 -0.0861
  577loPI    C3 9219   4.394   9.176  10.701  0.1805 -0.2283 -0.0394
  577loPI   PO4 9220   4.719   9.298  10.158 -0.1574  0.2569  0.0128
  577loPI   GL1 9221   4.789   9.597   9.784 -0.2867 -0.1852  0.2830
  577loPI   GL2 9222   4.610   9.896   9.824  0.1110 -0.1068 -0.0177
  577loPI   C1A 9223   4.853   9.487   9.413  0.1146  0.0076 -0.2714
  577loPI   C2A 9224   4.840   9.586   9.013 -0.0279  0.0716  0.2110
  577loPI   C3A 9225   4.788   9.649   8.624 -0.0962  0.0716  0.0354
  577loPI   C4A 9226   4.495   9.786   8.413  0.0269  0.0183  0.1890
  577loPI   C5A 9227   4.104   9.877   8.305 -0.1150  0.3614  0.1173
  577loPI   C6A 9228   3.778   9.671   8.144 -0.0605 -0.0247  0.1150
  577loPI   C1B 9229   4.266   9.828   9.558 -0.2684  0.0460  0.3036
  577loPI   C2B 9230   3.919   9.628   9.360  0.1748 -0.3168  0.0294
  577loPI   C3B 9231   3.699   9.306   9.131 -0.0104  0.0817  0.1730
  577loPI   C4B 9232   3.635   9.030   8.850 -0.0630 -0.2286 -0.0436
  578loPI    C1 9233  16.762   1.056   9.921 -0.2360 -0.0174  0.1139
  578loPI    C2 9234  16.706   1.113  10.313 -0.0140  0.2540  0.1096
  578loPI    C3 9235  16.953   1.352  10.109  0.0871 -0.0572 -0.1426
  578loPI   PO4 9236  16.555   1.139   9.800 -0.0889  0.0929  0.1041
  578loPI   GL1 9237  16.366   1.168   9.384  0.0095 -0.0595 -0.0908
  578loPI   GL2 9238  16.059   1.229   9.323 -0.0644  0.1386 -0.0808
  578loPI   C1A 9239  16.516   1.055   9.065 -0.1533  0.0271 -0.0191
  578loPI   C2A 9240  16.367   0.790   8.756  0.1960 -0.1597 -0.1971
  578loPI   C3A 9241  16.109   0.728   8.462  0.0382 -0.3422 -0.2264
  578loPI   C4A 9242  16.172   0.595   7.966 -0.2963 -0.1956  0.1550
  578loPI   C5A 9243  16.275   0.551   7.570  0.2850  0.1250 -0.1745
  578loPI   C6A 9244  16.229   0.876   7.247 -0.4226  0.0715  0.1188
  578loPI   C1B 9245  15.968   1.345   8.981 -0.0265 -0.2527  0.0440
  578loPI   C2B 9246  15.938   1.275   8.551 -0.2257 -0.1837 -0.1486
  578loPI   C3B 9247  15.756   1.134   8.166 -0.2874 -0.0342  0.0005
  578loPI   C4B 9248  15.687   0.712   7.986  0.2899  0.3351  0.0999
  579loPI    C1 9249  18.506   5.953  10.147  0.0164 -0.1170  0.2765
  579loPI    C2 9250  18.284   6.284  10.173  0.2369  0.0364  0.2401
  579loPI    C3 9251  18.167   5.949  10.359 -0.0984  0.0709  0.0988
  579loPI   PO4 9252  18.544   5.880   9.766 -0.0899 -0.1323  0.1772
  579loPI   GL1 9253  18.793   6.085   9.394 -0.0334  0.1756 -0.2308
  579loPI   GL2 9254  18.399   6.043   9.201  0.1858  0.0680  0.3113
  579loPI   C1A 9255  18.971   6.127   8.969 -0.1001 -0.0903 -0.1007
  579loPI   C2A 9256  19.008   6.403   8.717  0.0834  0.0540 -0.0456
  579loPI   C3A 9257  18.777   6.574   8.437 -0.1578  0.0033  0.0806
  579loPI   C4A 9258  18.417   6.795   8.271  0.2884 -0.0743 -0.0237
  579loPI   C5A 9259  18.343   7.038   7.884  0.1551 -0.2873 -0.0341
  579loPI   C6A 9260  18.277   7.102   7.440  0.2459  0.0252 -0.2208
  579loPI   C1B 9261  18.054   6.009   8.796 -0.0364  0.0416 -0.1350
  579loPI   C2B 9262  17.864   5.907   8.321  0.3297 -0.1967 -0.0103
  579loPI   C3B 9263  17.561   5.718   8.171  0.2592  0.0655  0.0215
  579loPI   C4B 9264  17.170   5.634   8.175  0.0103 -0.1374  0.3117
  580loPI    C1 9265   0.834  10.691  10.501 -0.0425 -0.0329 -0.1099
  580loPI    C2 9266   0.713  10.314  10.562  0.1080 -0.1138 -0.3024
  580loPI    C3 9267   0.453  10.616  10.598 -0.0126 -0.2353 -0.1444
  580loPI   PO4 9268   0.992  10.674  10.330 -0.0317 -0.2004 -0.0640
  580loPI   GL1 9269   1.080  10.664   9.927  0.2285 -0.1290 -0.0742
  580loPI   GL2 9270   1.263  10.785   9.711  0.0152  0.1789 -0.0165
  580loPI   C1A 9271   0.941  10.487   9.518  0.1466  0.3687 -0.1364
  580loPI   C2A 9272   0.937  10.492   9.074 -0.0865  0.1031 -0.2608
  580loPI   C3A 9273   0.964  10.516   8.556 -0.1212 -0.2139 -0.0837
  580loPI   C4A 9274   1.070  10.555   8.132  0.1116  0.2843  0.2361
  580loPI   C5A 9275   1.137  10.902   7.849  0.1379  0.0010 -0.1311
  580loPI   C6A 9276   1.090  11.263   7.659 -0.5028 -0.0994 -0.0031
  580loPI   C1B 9277   1.298  10.803   9.229 -0.0611  0.3916  0.5230
  580loPI   C2B 9278   1.444  10.757   8.808 -0.0882 -0.0128 -0.0085
  580loPI   C3B 9279   1.473  10.743   8.303 -0.0076 -0.0108  0.4211
  580loPI   C4B 9280   1.546  10.714   7.852  0.0728 -0.0849 -0.2440
  581loPI    C1 9281  13.502   0.455  10.129  0.1948  0.0313 -0.3077
  581loPI    C2 9282  13.570   0.069  10.213 -0.0323 -0.0167 -0.3392
  581loPI    C3 9283  13.273   0.265  10.396  0.2191  0.2051 -0.1617
  581loPI   PO4 9284  13.522   0.480   9.860 -0.2409  0.0820 -0.2099
  581loPI   GL1 9285  13.344   0.402   9.453 -0.0380  0.1313  0.2419
  581loPI   GL2 9286  13.414   0.667   9.415  0.2568  0.0353  0.4229
  581loPI   C1A 9287  13.677   0.142   9.199  0.0250 -0.0231  0.0041
  581loPI   C2A 9288  13.736   0.146   8.751 -0.1478 -0.1172 -0.4497
  581loPI   C3A 9289  13.657  -0.017   8.360  0.2349 -0.3844  0.0123
  581loPI   C4A 9290  13.845  -0.120   8.021 -0.2489  0.1175  0.3646
  581loPI   C5A 9291  14.069  -0.237   7.627  0.3470 -0.1124  0.1647
  581loPI   C6A 9292  13.992  -0.672   7.399 -0.2244  0.2180 -0.0542
  581loPI   C1B 9293  13.651   0.608   9.031  0.0043 -0.2734  0.2417
  581loPI   C2B 9294  13.591   0.539   8.486 -0.1977 -0.2659  0.0146
  581loPI   C3B 9295  13.458   0.415   8.204  0.0173 -0.0585  0.0015
  581loPI   C4B 9296  13.645   0.363   7.831 -0.0199 -0.0272  0.0910
  582loPI    C1 9297   4.684  11.098  10.316 -0.0111  0.0015  0.2248
  582loPI    C2 9298   4.313  11.188  10.439 -0.0236  0.1141  0.1073
  582loPI    C3 9299   4.623  11.233  10.688 -0.0700  0.1701  0.1551
  582loPI   PO4 9300   4.715  11.075  10.092 -0.0999  0.0393 -0.3163
  582loPI   GL1 9301   4.548  11.174   9.678 -0.0869  0.1231 -0.1520
  582loPI   GL2 9302   4.237  11.264   9.953 -0.0060  0.0721 -0.2994
  582loPI   C1A 9303   4.518  11.235   9.292 -0.1152  0.0096  0.1407
  582loPI   C2A 9304   4.524  11.227   8.863 -0.0957 -0.1277  0.2731
  582loPI   C3A 9305   4.437  11.238   8.460 -0.1402 -0.1307  0.1421
  582loPI   C4A 9306   4.569  11.207   8.143 -0.1142 -0.1953  0.1027
  582loPI   C5A 9307   4.721  11.173   7.682 -0.1010  0.1752 -0.1065
  582loPI   C6A 9308   5.074  11.249   7.428  0.0238  0.1656 -0.1499
  582loPI   C1B 9309   4.118  11.369   9.496 -0.1083  0.3510  0.0190
  582loPI   C2B 9310   4.143  11.476   9.088  0.1944  0.0737  0.1966
  582loPI   C3B 9311   3.999  11.550   8.609  0.0249  0.3129 -0.0478
  582loPI   C4B 9312   4.046  11.534   8.103  0.0456  0.1066  0.1856
  583loPI    C1 9313   8.325  16.054  10.727 -0.1460 -0.0006  0.0510
  583loPI    C2 9314   8.459  16.371  10.523  0.1527 -0.1435  0.0183
  583loPI    C3 9315   8.496  16.359  10.921  0.0626 -0.1013  0.0284
  583loPI   PO4 9316   8.159  15.947  10.544  0.1724  0.2040 -0.1906
  583loPI   GL1 9317   8.171  15.838  10.049  0.0709  0.0724  0.1426
  583loPI   GL2 9318   8.448  16.027  10.147  0.0104  0.0967 -0.1964
  583loPI   C1A 9319   8.047  15.983   9.617 -0.3365 -0.0020 -0.2889
  583loPI   C2A 9320   8.104  15.975   9.188 -0.0594 -0.1072 -0.0561
  583loPI   C3A 9321   8.156  16.019   8.726 -0.0405  0.0676  0.1258
  583loPI   C4A 9322   8.081  16.054   8.215  0.2319 -0.1920  0.1054
  583loPI   C5A 9323   7.995  16.097   7.778  0.1029 -0.0245  0.0215
  583loPI   C6A 9324   7.767  16.161   7.401  0.2491 -0.1866 -0.0752
  583loPI   C1B 9325   8.383  16.270   9.832 -0.0483 -0.1006 -0.2257
  583loPI   C2B 9326   8.171  16.442   9.391 -0.1824 -0.0270  0.0101
  583loPI   C3B 9327   8.098  16.443   9.000 -0.0154  0.0700  0.0497
  583loPI   C4B 9328   8.079  16.511   8.627 -0.1626  0.3427 -0.1052
  584loPI    C1 9329  16.784   0.622  10.055 -0.0977  0.0337  0.1619
  584loPI    C2 9330  16.403   0.744  10.035 -0.1369 -0.0968  0.1017
  584loPI    C3 9331  16.557   0.621  10.384 -0.1937 -0.1822  0.0970
  584loPI   PO4 9332  16.879   0.584   9.758  0.2375 -0.0136 -0.0973
  584loPI   GL1 9333  16.911   0.445   9.377 -0.1216  0.0026 -0.0589
  584loPI   GL2 9334  17.041   0.218   9.187  0.0850 -0.0499  0.2103
  584loPI   C1A 9335  17.004   0.724   9.006  0.1082  0.0000  0.0310
  584loPI   C2A 9336  16.829   0.958   8.697 -0.2533  0.1544  0.1469
  584loPI   C3A 9337  16.988   1.100   8.418 -0.1643 -0.0545 -0.3056
  584loPI   C4A 9338  17.193   1.389   8.045  0.0137  0.1215 -0.0973
  584loPI   C5A 9339  17.228   1.657   7.677  0.3501  0.0211 -0.0323
  584loPI   C6A 9340  17.377   1.595   7.323  0.2848 -0.3468 -0.0411
  584loPI   C1B 9341  17.088   0.206   8.770  0.0666  0.1449 -0.0251
  584loPI   C2B 9342  16.996   0.511   8.529  0.0609 -0.0028 -0.1207
  584loPI   C3B 9343  16.745   0.720   8.271  0.0683 -0.0679  0.1875
  584loPI   C4B 9344  16.692   0.865   7.763  0.1005 -0.0315 -0.0519
  585loPI    C1 9345   9.758  14.706  10.207 -0.0680  0.0992  0.1587
  585loPI    C2 9346   9.508  14.741  10.517 -0.0911 -0.0965  0.1638
  585loPI    C3 9347   9.881  14.609  10.575 -0.0989 -0.1440  0.1069
  585loPI   PO4 9348   9.798  14.929  10.038  0.1221 -0.3617  0.2127
  585loPI   GL1 9349  10.136  15.096   9.815 -0.1641 -0.2858  0.2018
  585loPI   GL2 9350   9.946  15.373   9.628 -0.0820  0.0465 -0.1502
  585loPI   C1A 9351  10.347  15.254   9.341 -0.0736  0.2381 -0.0607
  585loPI   C2A 9352  10.456  15.318   8.920 -0.0192 -0.3640  0.0246
  585loPI   C3A 9353  10.376  15.277   8.575 -0.1147  0.3969 -0.0011
  585loPI   C4A 9354  10.439  15.410   8.174 -0.3018  0.1570 -0.3883
  585loPI   C5A 9355  10.307  15.561   7.853 -0.1385  0.0152  0.0823
  585loPI   C6A 9356  10.617  15.544   7.594  0.1634  0.0079  0.0468
  585loPI   C1B 9357   9.932  15.434   9.127 -0.3242 -0.1862  0.0645
  585loPI   C2B 9358   9.880  15.509   8.645  0.0256 -0.0840  0.0053
  585loPI   C3B 9359   9.917  15.568   8.197 -0.3084 -0.0451  0.3406
  585loPI   C4B 9360   9.857  15.655   7.729  0.0423 -0.2356  0.2510
  586loPI    C1 9361  12.624   6.411  10.072  0.2659 -0.0347  0.2294
  586loPI    C2 9362  12.458   6.733  10.241  0.1967 -0.0679  0.2251
  586loPI    C3 9363  12.696   6.495  10.456  0.2023 -0.0455  0.2439
  586loPI   PO4 9364  12.543   6.530   9.817 -0.1483  0.1176 -0.0458
  586loPI   GL1 9365  12.512   6.813   9.545 -0.0433  0.0750 -0.2982
  586loPI   GL2 9366  12.194   6.714   9.377  0.0330 -0.0331 -0.0371
  586loPI   C1A 9367  12.684   6.740   9.105  0.3208  0.2894 -0.0567
  586loPI   C2A 9368  12.675   6.854   8.716 -0.1264  0.1258 -0.0115
  586loPI   C3A 9369  12.500   6.918   8.255  0.4488 -0.2976 -0.3091
  586loPI   C4A 9370  12.291   7.154   7.920  0.2403 -0.0289  0.3747
  586loPI   C5A 9371  12.035   7.462   7.750  0.1229 -0.1266  0.0221
  586loPI   C6A 9372  11.808   7.709   7.580 -0.0774  0.2125 -0.1486
  586loPI   C1B 9373  12.141   6.672   8.937 -0.3201  0.0828 -0.3270
  586loPI   C2B 9374  12.319   6.495   8.523  0.0073 -0.1463 -0.3050
  586loPI   C3B 9375  12.752   6.437   8.344  0.1548 -0.1274 -0.0491
  586loPI   C4B 9376  12.977   6.288   8.581  0.1475 -0.1876 -0.1116
  587loPI    C1 9377   7.433  15.293  10.660 -0.2671 -0.3789  0.0205
  587loPI    C2 9378   7.694  15.371  10.952 -0.1674 -0.0984 -0.1399
  587loPI    C3 9379   7.302  15.357  11.032 -0.1453  0.0343 -0.0032
  587loPI   PO4 9380   7.425  15.514  10.505  0.0294  0.0476  0.1634
  587loPI   GL1 9381   7.555  15.510  10.080  0.0652 -0.1673  0.2586
  587loPI   GL2 9382   7.667  15.762   9.898 -0.0491  0.0015  0.2837
  587loPI   C1A 9383   7.566  15.348   9.602 -0.0043  0.3374  0.0208
  587loPI   C2A 9384   7.755  15.285   9.241  0.1677 -0.2426 -0.0217
  587loPI   C3A 9385   7.764  15.185   8.772 -0.1257  0.1671 -0.1009
  587loPI   C4A 9386   7.733  15.232   8.310  0.1096 -0.3351  0.4002
  587loPI   C5A 9387   7.692  15.293   7.906  0.0422  0.1058 -0.1265
  587loPI   C6A 9388   7.706  15.677   7.563  0.0255 -0.1863  0.2578
  587loPI   C1B 9389   7.643  15.767   9.388 -0.1021 -0.3603  0.0217
  587loPI   C2B 9390   7.651  15.711   8.941 -0.2021  0.2977  0.0462
  587loPI   C3B 9391   7.636  15.720   8.522  0.0292 -0.1711  0.3311
  587loPI   C4B 9392   7.653  15.853   8.047 -0.1725  0.1391 -0.0091
  588loPI    C1 9393  17.248  13.169   9.842 -0.3146 -0.3832 -0.1020
  588loPI    C2 9394  17.479  12.984  10.111 -0.0093 -0.0013 -0.0926
  588loPI    C3 9395  17.190  13.232  10.232 -0.1085 -0.1069 -0.1123
  588loPI   PO4 9396  17.376  13.045   9.596 -0.0027  0.0079 -0.1735
  588loPI   GL1 9397  17.425  12.692   9.352  0.4753  0.1835  0.0862
  588loPI   GL2 9398  17.614  12.965   9.138 -0.1363 -0.0547 -0.1899
  588loPI   C1A 9399  17.486  12.390   9.176  0.2347 -0.1140 -0.0723
  588loPI   C2A 9400  17.592  12.180   8.787 -0.0857  0.0511 -0.2066
  588loPI   C3A 9401  17.706  12.062   8.280 -0.0495  0.1210 -0.0180
  588loPI   C4A 9402  17.556  11.866   7.962  0.3363  0.0437  0.0096
  588loPI   C5A 9403  17.260  11.767   7.756  0.3470 -0.0890 -0.2875
  588loPI   C6A 9404  16.901  11.673   7.752  0.1243 -0.0180  0.1733
  588loPI   C1B 9405  17.698  12.647   8.740 -0.1295  0.2245 -0.2187
  588loPI   C2B 9406  17.835  12.545   8.366  0.2323 -0.0892  0.0454
  588loPI   C3B 9407  17.762  12.380   7.970  0.0834 -0.2153 -0.0124
  588loPI   C4B 9408  17.613  12.398   7.554  0.2698  0.2041 -0.3404
  589loPI    C1 9409   6.264  15.694  10.607 -0.4185  0.3084  0.3040
  589loPI    C2 9410   6.430  15.356  10.742 -0.2972  0.2366 -0.0166
  589loPI    C3 9411   6.327  15.645  10.999 -0.1675  0.0617  0.2356
  589loPI   PO4 9412   6.263  15.825  10.292 -0.1213  0.2487 -0.1779
  589loPI   GL1 9413   6.194  15.768   9.938  0.0176 -0.2353  0.1859
  589loPI   GL2 9414   6.060  15.503   9.834 -0.1719 -0.0899 -0.1809
  589loPI   C1A 9415   6.374  15.900   9.475  0.2677  0.1153 -0.2377
  589loPI   C2A 9416   6.356  15.875   9.030 -0.0910  0.1218 -0.2511
  589loPI   C3A 9417   6.365  15.910   8.572 -0.1006  0.1262 -0.4343
  589loPI   C4A 9418   6.373  16.013   8.160  0.0880 -0.0373  0.0456
  589loPI   C5A 9419   6.366  16.065   7.684  0.1188 -0.1812 -0.0013
  589loPI   C6A 9420   6.509  15.779   7.303  0.0051  0.0936 -0.1891
  589loPI   C1B 9421   5.921  15.616   9.425 -0.2180  0.1989  0.0179
  589loPI   C2B 9422   5.980  15.542   8.986 -0.0053 -0.2406  0.0157
  589loPI   C3B 9423   5.949  15.580   8.587 -0.0076 -0.2492 -0.0647
  589loPI   C4B 9424   6.024  15.646   8.121  0.0773 -0.0986 -0.2357
  590loPI    C1 9425   4.614  12.780  10.620 -0.0271  0.0522 -0.1319
  590loPI    C2 9426   4.470  13.070  10.855  0.1347  0.0476 -0.0252
  590loPI    C3 9427   4.865  13.028  10.809  0.1062 -0.0031 -0.2348
  590loPI   PO4 9428   4.533  12.793  10.345 -0.2496 -0.1516  0.1123
  590loPI   GL1 9429   4.409  12.917  10.015  0.2210 -0.2179 -0.0901
  590loPI   GL2 9430   4.121  12.777   9.962  0.0236 -0.1863 -0.1203
  590loPI   C1A 9431   4.323  13.249   9.791  0.0936 -0.0475 -0.1568
  590loPI   C2A 9432   4.446  13.333   9.392  0.1294 -0.0708  0.2244
  590loPI   C3A 9433   4.266  13.311   8.946 -0.1196  0.0932 -0.2102
  590loPI   C4A 9434   4.298  13.262   8.576 -0.2268  0.0633  0.0313
  590loPI   C5A 9435   4.294  13.339   8.233  0.1672  0.1098 -0.1127
  590loPI   C6A 9436   4.327  13.150   7.881 -0.0341 -0.1626  0.2309
  590loPI   C1B 9437   4.102  12.973   9.495  0.0055  0.1835 -0.2259
  590loPI   C2B 9438   3.894  12.990   9.094  0.1872  0.2093  0.2690
  590loPI   C3B 9439   3.896  12.995   8.653 -0.3419 -0.3601  0.1012
  590loPI   C4B 9440   3.822  13.090   8.198  0.1462  0.3314 -0.0769
  591loPI    C1 9441   2.782   1.522   9.808  0.0815  0.0954  0.0769
  591loPI    C2 9442   2.742   1.817  10.075 -0.0265  0.0514  0.1101
  591loPI    C3 9443   2.942   1.485  10.172 -0.0565  0.0400  0.1329
  591loPI   PO4 9444   2.921   1.623   9.590  0.0892  0.0778 -0.4517
  591loPI   GL1 9445   2.743   1.900   9.203 -0.3576  0.0147 -0.2510
  591loPI   GL2 9446   2.403   1.753   9.079 -0.0498 -0.0356  0.1853
  591loPI   C1A 9447   2.896   1.643   8.925  0.2160  0.1202  0.1496
  591loPI   C2A 9448   3.018   1.556   8.536  0.0402  0.0293 -0.3711
  591loPI   C3A 9449   2.934   1.704   8.108 -0.1117 -0.1814  0.0842
  591loPI   C4A 9450   3.302   1.627   7.647 -0.0906  0.1168 -0.0436
  591loPI   C5A 9451   3.484   1.733   7.295  0.2447  0.0724 -0.0007
  591loPI   C6A 9452   3.631   2.124   7.127  0.1338  0.3720  0.1501
  591loPI   C1B 9453   2.464   1.689   8.662  0.2683  0.1102  0.1620
  591loPI   C2B 9454   2.374   1.551   8.273  0.1950 -0.1487 -0.0262
  591loPI   C3B 9455   2.479   1.645   7.786 -0.0296 -0.4155  0.1248
  591loPI   C4B 9456   2.770   1.918   7.547 -0.1930  0.1889  0.0414
  592loPI    C1 9457   5.470   3.466  10.064 -0.0772 -0.1153 -0.0007
  592loPI    C2 9458   5.620   3.816  10.185 -0.0394 -0.1114 -0.0584
  592loPI    C3 9459   5.380   3.607  10.427 -0.0151 -0.0735 -0.0013
  592loPI   PO4 9460   5.277   3.484   9.820 -0.1187  0.0310  0.0898
  592loPI   GL1 9461   4.953   3.419   9.640 -0.0160 -0.0264 -0.0840
  592loPI   GL2 9462   5.257   3.237   9.394  0.1361  0.0038 -0.0335
  592loPI   C1A 9463   4.797   3.409   9.082 -0.2982  0.0114  0.2201
  592loPI   C2A 9464   4.945   3.446   8.620 -0.1862  0.1077 -0.1237
  592loPI   C3A 9465   4.863   3.377   8.188 -0.0107 -0.0954 -0.2323
  592loPI   C4A 9466   4.669   3.120   7.870 -0.2603 -0.1536  0.2050
  592loPI   C5A 9467   4.536   3.185   7.515  0.1867 -0.1807  0.0628
  592loPI   C6A 9468   4.383   3.066   7.131 -0.0189  0.2167 -0.2506
  592loPI   C1B 9469   5.511   3.231   8.988  0.1168  0.1647  0.0413
  592loPI   C2B 9470   5.827   3.244   8.561 -0.4185  0.0739  0.3036
  592loPI   C3B 9471   5.795   3.120   8.166 -0.0431 -0.1345  0.1935
  592loPI   C4B 9472   6.023   3.148   7.798 -0.1552 -0.0809 -0.2313
  593loPI    C1 9473   9.643   6.913  10.509 -0.2025  0.0161 -0.1186
  593loPI    C2 9474   9.346   7.148  10.381 -0.2443  0.0513  0.0408
  593loPI    C3 9475   9.620   7.292  10.635 -0.0298  0.0503 -0.1865
  593loPI   PO4 9476   9.683   6.813  10.319 -0.1130 -0.0497  0.2151
  593loPI   GL1 9477   9.703   6.735   9.918  0.1629  0.1920  0.2966
  593loPI   GL2 9478   9.789   6.363   9.744  0.1586  0.0903  0.0057
  593loPI   C1A 9479   9.343   6.793   9.700 -0.3424 -0.0565  0.2856
  593loPI   C2A 9480   9.004   6.812   9.297 -0.0780 -0.0562  0.0756
  593loPI   C3A 9481   9.008   6.803   8.798  0.1156  0.0946  0.1362
  593loPI   C4A 9482   9.071   6.760   8.304  0.1791  0.1089  0.1634
  593loPI   C5A 9483   9.012   6.648   7.864 -0.1776 -0.0149  0.0688
  593loPI   C6A 9484   9.297   6.711   7.468 -0.1532 -0.0582  0.1259
  593loPI   C1B 9485   9.812   6.623   9.349  0.0679 -0.5096  0.0018
  593loPI   C2B 9486   9.673   6.637   9.028 -0.2037  0.0750 -0.1268
  593loPI   C3B 9487   9.824   6.622   8.552  0.0123 -0.1208 -0.1104
  593loPI   C4B 9488   9.991   6.751   8.178  0.1681 -0.1005 -0.2310
  594loPI    C1 9489   0.966   9.582  10.222 -0.0324 -0.0146 -0.3340
  594loPI    C2 9490   0.773   9.851  10.446  0.2763 -0.0289 -0.0429
  594loPI    C3 9491   0.567   9.575  10.243 -0.0194  0.1303  0.0354
  594loPI   PO4 9492   1.222   9.727  10.170  0.1907 -0.0763 -0.1062
  594loPI   GL1 9493   1.584   9.781   9.931  0.1719 -0.1524  0.1125
  594loPI   GL2 9494   1.879   9.613   9.927  0.0092 -0.0250 -0.0966
  594loPI   C1A 9495   1.426   9.775   9.575  0.0134 -0.1078  0.0106
  594loPI   C2A 9496   1.383   9.820   9.221  0.3748 -0.2206 -0.1258
  594loPI   C3A 9497   1.494   9.756   8.844 -0.0780 -0.5072 -0.0598
  594loPI   C4A 9498   1.485   9.704   8.399 -0.0140  0.1762  0.1121
  594loPI   C5A 9499   1.505   9.652   7.928 -0.0906 -0.0667 -0.1225
  594loPI   C6A 9500   1.412   9.815   7.534  0.0790 -0.2093  0.2667
  594loPI   C1B 9501   1.897   9.661   9.535 -0.1674  0.0803  0.0888
  594loPI   C2B 9502   1.905   9.628   9.148  0.4104  0.2072  0.3623
  594loPI   C3B 9503   1.876   9.517   8.658 -0.2457 -0.1698 -0.0224
  594loPI   C4B 9504   1.977   9.461   8.306 -0.0981 -0.0822 -0.1032
  595loPI    C1 9505  18.261   0.479   9.856 -0.2303 -0.0289  0.2848
  595loPI    C2 9506  18.412   0.681  10.166  0.1907 -0.0382  0.0917
  595loPI    C3 9507  18.475   0.288  10.135  0.2511 -0.0168 -0.0644
  595loPI   PO4 9508  18.277   0.522   9.570  0.1142 -0.0422 -0.1027
  595loPI   GL1 9509  18.643   0.416   9.353  0.1447  0.0077 -0.1350
  595loPI   GL2 9510  18.626   0.779   9.253  0.0807  0.0363 -0.2992
  595loPI   C1A 9511  18.734   0.438   8.863 -0.2251 -0.2450  0.1587
  595loPI   C2A 9512  18.982   0.256   8.535  0.0780 -0.0594 -0.1823
  595loPI   C3A 9513  19.206   0.405   8.440  0.1350  0.1879 -0.1035
  595loPI   C4A 9514  19.576   0.447   8.171 -0.1478  0.2885 -0.1432
  595loPI   C5A 9515  19.932   0.367   7.885 -0.1435 -0.3431 -0.2272
  595loPI   C6A 9516  20.222   0.140   7.536  0.4117 -0.2100 -0.1739
  595loPI   C1B 9517  18.640   1.010   8.955  0.1749  0.1690 -0.0062
  595loPI   C2B 9518  18.724   1.207   8.636 -0.2548  0.2482 -0.0316
  595loPI   C3B 9519  18.957   1.199   8.244  0.2049 -0.0308  0.0349
  595loPI   C4B 9520  18.833   1.302   7.794  0.3734  0.2509  0.4053
  596loPI    C1 9521   1.087   4.808   9.594 -0.0210  0.2917 -0.0628
  596loPI    C2 9522   0.756   4.728   9.802 -0.0899  0.2404 -0.1909
  596loPI    C3 9523   1.025   4.987   9.946 -0.0905  0.1340  0.0060
  596loPI   PO4 9524   0.964   4.866   9.339 -0.2111 -0.2169 -0.0077
  596loPI   GL1 9525   1.147   4.986   8.935  0.1169  0.2844  0.1460
  596loPI   GL2 9526   1.000   5.292   9.116  0.1956  0.0138  0.0039
  596loPI   C1A 9527   1.006   5.005   8.489 -0.1060 -0.3418  0.1398
  596loPI   C2A 9528   0.881   5.434   8.203  0.2804  0.0455 -0.0296
  596loPI   C3A 9529   0.704   5.501   7.810 -0.2047  0.0922  0.0987
  596loPI   C4A 9530   0.553   5.510   7.490 -0.1585  0.2849 -0.0461
  596loPI   C5A 9531   0.536   5.288   7.163  0.0124  0.0493 -0.1494
  596loPI   C6A 9532   0.412   5.066   6.785  0.0712 -0.3338  0.1262
  596loPI   C1B 9533   1.039   5.396   8.752  0.2394  0.0517  0.2320
  596loPI   C2B 9534   1.228   5.639   8.496  0.1588  0.1050 -0.3580
  596loPI   C3B 9535   1.225   5.927   8.108 -0.0947 -0.0733 -0.0250
  596loPI   C4B 9536   1.101   5.936   7.696 -0.1974 -0.1558  0.0723
  597loPI    C1 9537  14.229   5.095  10.180 -0.0184  0.1540 -0.0567
  597loPI    C2 9538  13.856   4.991  10.283  0.0006  0.1077 -0.0341
  597loPI    C3 9539  14.157   4.935  10.540  0.0395  0.0443 -0.0934
  597loPI   PO4 9540  14.262   4.947   9.948  0.2336 -0.2337 -0.4061
  597loPI   GL1 9541  14.108   4.927   9.563 -0.2514  0.0435  0.0355
  597loPI   GL2 9542  14.235   4.845   9.369 -0.1127  0.0374  0.0416
  597loPI   C1A 9543  13.871   5.229   9.221  0.2918 -0.0015 -0.0051
  597loPI   C2A 9544  13.762   5.540   8.917  0.0555  0.1718  0.0434
  597loPI   C3A 9545  13.686   5.524   8.463  0.0520  0.1091 -0.2637
  597loPI   C4A 9546  13.923   5.774   8.217  0.4551 -0.0673  0.2261
  597loPI   C5A 9547  13.788   6.028   7.768  0.1657  0.0928 -0.1294
  597loPI   C6A 9548  13.865   5.838   7.373 -0.0372 -0.0748  0.1684
  597loPI   C1B 9549  14.550   4.884   8.949  0.1104 -0.0520 -0.0007
  597loPI   C2B 9550  14.607   4.867   8.499 -0.3514  0.4779  0.2286
  597loPI   C3B 9551  14.682   4.956   8.020  0.0032  0.0966  0.0784
  597loPI   C4B 9552  14.834   5.034   7.555  0.1668  0.0541 -0.4734
  598loPI    C1 9553  16.184  12.502   9.968  0.1109 -0.0871  0.1259
  598loPI    C2 9554  15.814  12.585  10.097  0.1018 -0.1529  0.1424
  598loPI    C3 9555  16.049  12.339  10.308  0.1688 -0.0811  0.1520
  598loPI   PO4 9556  16.266  12.432   9.712  0.1873 -0.3374  0.1681
  598loPI   GL1 9557  16.431  12.614   9.399 -0.3028 -0.3460  0.0600
  598loPI   GL2 9558  16.361  12.876   9.191  0.3320  0.1077  0.0115
  598loPI   C1A 9559  16.946  12.578   9.208 -0.2979 -0.0519  0.0419
  598loPI   C2A 9560  17.207  12.639   8.816  0.0252  0.2961 -0.1442
  598loPI   C3A 9561  17.350  12.536   8.427 -0.3020  0.1328 -0.1972
  598loPI   C4A 9562  17.279  12.641   7.994  0.3828  0.0342  0.2320
  598loPI   C5A 9563  17.316  12.910   7.600  0.1957  0.1271 -0.0253
  598loPI   C6A 9564  17.422  13.329   7.589  0.1253  0.0052  0.0165
  598loPI   C1B 9565  16.478  12.687   8.848  0.2650 -0.0579  0.4299
  598loPI   C2B 9566  16.329  12.620   8.438 -0.4221 -0.2285  0.0332
  598loPI   C3B 9567  16.234  12.261   8.039 -0.0067  0.1433 -0.2781
  598loPI   C4B 9568  16.006  12.292   7.708 -0.0580 -0.0364  0.0752
  599loPI    C1 9569   4.286  14.084  10.253  0.0924 -0.1401 -0.1794
  599loPI    C2 9570   4.606  14.319  10.207 -0.1441  0.2103 -0.0725
  599loPI    C3 9571   4.621  14.009  10.458  0.1036  0.2376 -0.0513
  599loPI   PO4 9572   4.119  14.271  10.271  0.1577 -0.0149  0.0988
  599loPI   GL1 9573   3.907  14.163   9.954 -0.1187 -0.0402  0.1682
  599loPI   GL2 9574   4.151  14.295   9.759 -0.0827 -0.0146 -0.0915
  599loPI   C1A 9575   3.691  13.951   9.676  0.1641  0.2305 -0.1517
  599loPI   C2A 9576   3.798  14.092   9.287  0.2211  0.3224 -0.0140
  599loPI   C3A 9577   3.835  14.038   8.952  0.0338 -0.1459  0.0810
  599loPI   C4A 9578   3.819  14.047   8.533 -0.0163  0.1080 -0.1020
  599loPI   C5A 9579   3.838  14.092   8.092  0.0167 -0.4088  0.2740
  599loPI   C6A 9580   4.002  14.069   7.557 -0.0175 -0.1057 -0.0142
  599loPI   C1B 9581   4.268  14.396   9.412  0.3724  0.1367 -0.4736
  599loPI   C2B 9582   4.232  14.411   8.920 -0.2267 -0.0823  0.2773
  599loPI   C3B 9583   4.275  14.314   8.590 -0.0995  0.1104  0.3287
  599loPI   C4B 9584   4.233  14.376   8.121  0.0141 -0.1447 -0.1632
  600loPI    C1 9585   9.272  16.100  10.432  0.2174 -0.0422  0.0832
  600loPI    C2 9586   9.302  16.377  10.145 -0.2219 -0.1741 -0.0979
  600loPI    C3 9587   9.087  16.452  10.473  0.0682 -0.1198  0.0831
  600loPI   PO4 9588   9.183  15.902  10.227 -0.2530  0.2964  0.2377
  600loPI   GL1 9589   9.319  15.860   9.852  0.1073 -0.0344 -0.1074
  600loPI   GL2 9590   9.080  16.061   9.781 -0.1553 -0.2796 -0.2794
  600loPI   C1A 9591   9.319  15.939   9.352  0.5562 -0.1048  0.0921
  600loPI   C2A 9592   9.026  15.975   9.069 -0.0562  0.0694  0.0181
  600loPI   C3A 9593   9.004  16.077   8.631 -0.3398 -0.3124 -0.0718
  600loPI   C4A 9594   8.974  16.143   8.098  0.3102 -0.1824 -0.3563
  600loPI   C5A 9595   9.011  15.943   7.776  0.2398 -0.0997 -0.0598
  600loPI   C6A 9596   8.878  15.574   7.628  0.0283 -0.0772 -0.0488
  600loPI   C1B 9597   8.759  16.052   9.546  0.0210  0.1013 -0.1342
  600loPI   C2B 9598   8.548  16.141   9.218 -0.2239 -0.0463 -0.0299
  600loPI   C3B 9599   8.555  16.278   8.863  0.2209  0.1456 -0.0802
  600loPI   C4B 9600   8.468  16.363   8.408  0.2538  0.0339  0.1645
  601loPI    C1 9601   4.937  18.656  10.266 -0.0063 -0.1152 -0.0197
  601loPI    C2 9602   5.265  18.487  10.421 -0.0397 -0.1889 -0.0295
  601loPI    C3 9603   4.910  18.439  10.601 -0.0550 -0.1579 -0.0513
  601loPI   PO4 9604   4.937  18.615  10.022  0.1012  0.1293  0.3321
  601loPI   GL1 9605   5.031  18.427   9.709 -0.0502 -0.0455  0.3638
  601loPI   GL2 9606   4.875  18.108   9.608  0.1533 -0.2145  0.0616
  601loPI   C1A 9607   5.224  18.419   9.282  0.3750  0.2698  0.2087
  601loPI   C2A 9608   5.189  18.401   8.824 -0.0626  0.1840  0.1421
  601loPI   C3A 9609   5.290  18.306   8.341  0.0058  0.1930 -0.1385
  601loPI   C4A 9610   5.347  18.434   7.946 -0.1937 -0.3738 -0.2058
  601loPI   C5A 9611   5.435  18.612   7.573  0.1631 -0.2008  0.3042
  601loPI   C6A 9612   5.311  18.521   7.154 -0.2178 -0.1251  0.1132
  601loPI   C1B 9613   5.203  17.923   9.365 -0.2980  0.3391  0.1083
  601loPI   C2B 9614   5.311  17.765   8.983  0.0158 -0.1981  0.0360
  601loPI   C3B 9615   5.387  17.869   8.575  0.1518 -0.3635 -0.1764
  601loPI   C4B 9616   5.500  17.820   8.177  0.1453  0.0598 -0.2640
  602loPI    C1 9617  16.229   7.983   9.715  0.1035 -0.1175  0.0410
  602loPI    C2 9618  16.309   8.034   9.326 -0.0494 -0.1468  0.0052
  602loPI    C3 9619  16.567   7.836   9.559  0.1899  0.1355 -0.0148
  602loPI   PO4 9620  16.011   7.974   9.707  0.1366 -0.0940  0.1285
  602loPI   GL1 9621  15.826   8.119   9.271 -0.1209 -0.2740  0.0253
  602loPI   GL2 9622  15.625   8.129   9.488 -0.2059  0.0574  0.3528
  602loPI   C1A 9623  16.119   8.138   8.913 -0.0524 -0.0337 -0.0201
  602loPI   C2A 9624  16.469   8.056   8.765 -0.4134 -0.2197  0.1056
  602loPI   C3A 9625  16.584   7.950   8.478 -0.0267 -0.0655  0.0201
  602loPI   C4A 9626  16.577   7.967   8.130 -0.0536  0.1117 -0.2302
  602loPI   C5A 9627  16.774   8.082   7.827  0.0260 -0.0199 -0.3141
  602loPI   C6A 9628  16.878   8.085   7.386 -0.1141 -0.0862 -0.0189
  602loPI   C1B 9629  15.330   8.108   9.039 -0.1330  0.0706 -0.1000
  602loPI   C2B 9630  15.256   7.771   8.636 -0.3040 -0.0010 -0.2276
  602loPI   C3B 9631  15.200   7.813   8.276  0.1684 -0.0412  0.1405
  602loPI   C4B 9632  15.248   8.000   7.838  0.3771 -0.0135 -0.1794
  603loPI    C1 9633  13.537   2.904  10.333 -0.1063 -0.1288 -0.0518
  603loPI    C2 9634  13.347   2.601  10.513 -0.1920 -0.1151 -0.1188
  603loPI    C3 9635  13.700   2.538  10.335 -0.0078 -0.0858  0.2285
  603loPI   PO4 9636  13.297   2.952  10.144 -0.1234 -0.0975  0.1429
  603loPI   GL1 9637  13.224   2.839   9.688  0.0210 -0.1355 -0.1263
  603loPI   GL2 9638  13.400   3.176   9.689  0.2792  0.2490  0.1274
  603loPI   C1A 9639  13.230   2.772   9.309 -0.1687 -0.0667  0.0400
  603loPI   C2A 9640  13.202   2.928   8.880  0.2080 -0.4477  0.1600
  603loPI   C3A 9641  13.005   3.145   8.515  0.0276  0.0216  0.1955
  603loPI   C4A 9642  13.087   3.148   8.059  0.3995  0.2847 -0.1462
  603loPI   C5A 9643  13.295   3.071   7.670  0.2796  0.0563 -0.0069
  603loPI   C6A 9644  13.493   3.169   7.329  0.1280 -0.3882  0.0586
  603loPI   C1B 9645  13.419   3.238   9.179  0.0788 -0.0450  0.1386
  603loPI   C2B 9646  13.393   3.384   8.715 -0.0090  0.1174  0.2654
  603loPI   C3B 9647  13.287   3.533   8.356  0.0336 -0.3707 -0.3045
  603loPI   C4B 9648  13.133   3.867   8.156 -0.2368 -0.0605  0.0146
  604loPI    C1 9649   0.346  17.730  10.290 -0.0949 -0.1510  0.0155
  604loPI    C2 9650   0.111  17.506  10.523 -0.1180  0.0484  0.1869
  604loPI    C3 9651   0.224  17.870  10.644  0.3958 -0.0982  0.1723
  604loPI   PO4 9652   0.205  17.879  10.028  0.1623  0.1771  0.0586
  604loPI   GL1 9653  -0.110  17.982   9.720  0.1862 -0.1858  0.0967
  604loPI   GL2 9654   0.078  17.783   9.533 -0.0680 -0.0428 -0.0506
  604loPI   C1A 9655  -0.242  17.954   9.267 -0.1197  0.1703  0.2074
  604loPI   C2A 9656  -0.148  17.973   8.879 -0.1106 -0.0557  0.0203
  604loPI   C3A 9657   0.050  17.749   8.588  0.3224 -0.0061 -0.2571
  604loPI   C4A 9658   0.279  17.702   8.221 -0.0274  0.0053 -0.2744
  604loPI   C5A 9659   0.286  17.627   7.796 -0.0543 -0.0440  0.1749
  604loPI   C6A 9660  -0.051  17.534   7.543 -0.3257  0.1410  0.3192
  604loPI   C1B 9661   0.289  17.891   9.098  0.2064  0.0129 -0.1510
  604loPI   C2B 9662   0.461  18.067   8.672  0.0389 -0.1506 -0.0807
  604loPI   C3B 9663   0.720  18.174   8.386  0.1112  0.0346 -0.2393
  604loPI   C4B 9664   0.893  18.304   8.114 -0.0390 -0.0545 -0.1677
  605loPI    C1 9665  18.196   1.787  10.038 -0.0998  0.1865  0.3028
  605loPI    C2 9666  17.818   1.662  10.073 -0.0205 -0.0830  0.2208
  605loPI    C3 9667  18.097   1.530  10.327  0.0719 -0.1013  0.1110
  605loPI   PO4 9668  18.167   1.973   9.780  0.0166 -0.1036 -0.0604
  605loPI   GL1 9669  18.027   1.914   9.401  0.1433  0.0141  0.3776
  605loPI   GL2 9670  17.841   1.673   9.226 -0.0491 -0.0297  0.0539
  605loPI   C1A 9671  17.992   2.128   8.994  0.1423  0.0212 -0.2328
  605loPI   C2A 9672  17.680   2.220   8.696 -0.4125 -0.1686  0.1700
  605loPI   C3A 9673  17.543   2.366   8.264 -0.2143  0.0063 -0.2331
  605loPI   C4A 9674  17.788   2.338   7.900 -0.1273  0.0498  0.0111
  605loPI   C5A 9675  17.817   2.402   7.431 -0.2740  0.1043 -0.1886
  605loPI   C6A 9676  17.523   2.562   7.065  0.1260  0.2845 -0.2203
  605loPI   C1B 9677  17.825   1.694   8.727 -0.1300  0.1568  0.0402
  605loPI   C2B 9678  17.844   1.974   8.322 -0.3574  0.0657 -0.0581
  605loPI   C3B 9679  18.129   1.990   8.017 -0.1717  0.1174 -0.0519
  605loPI   C4B 9680  18.137   2.012   7.538 -0.3040 -0.0332  0.5109
  606loPI    C1 9681   1.860  17.618  10.096  0.0425  0.2407 -0.0506
  606loPI    C2 9682   1.722  17.674  10.468 -0.4152  0.3900 -0.2358
  606loPI    C3 9683   2.049  17.869  10.344  0.0309 -0.0290  0.2377
  606loPI   PO4 9684   1.700  17.640   9.971  0.3489  0.1699  0.1624
  606loPI   GL1 9685   1.617  17.759   9.577  0.1797  0.0684 -0.1750
  606loPI   GL2 9686   1.512  17.440   9.479 -0.0793  0.0922  0.0789
  606loPI   C1A 9687   1.477  17.962   9.201 -0.0764  0.2697 -0.1649
  606loPI   C2A 9688   1.674  18.026   8.767  0.1159 -0.3106 -0.0208
  606loPI   C3A 9689   1.843  18.180   8.346 -0.0229  0.0860 -0.4739
  606loPI   C4A 9690   1.927  17.910   7.988 -0.1107 -0.2768  0.0408
  606loPI   C5A 9691   2.234  17.865   7.755 -0.1313  0.0956 -0.1508
  606loPI   C6A 9692   2.355  17.552   7.513  0.1396  0.2190 -0.4314
  606loPI   C1B 9693   1.446  17.083   9.265  0.1097 -0.0073  0.3947
  606loPI   C2B 9694   1.698  16.828   8.999 -0.0261 -0.1924 -0.0219
  606loPI   C3B 9695   1.832  16.358   8.951 -0.0467 -0.0454 -0.1076
  606loPI   C4B 9696   1.972  15.998   9.006 -0.0052 -0.0525 -0.0607
  607loPI    C1 9697   7.222   8.300  10.043  0.1206  0.0431  0.0447
  607loPI    C2 9698   6.852   8.154  10.001  0.1663 -0.0453 -0.0559
  607loPI    C3 9699   7.022   8.167  10.363  0.0879 -0.0594 -0.0182
  607loPI   PO4 9700   7.267   8.396   9.795  0.3971 -0.1506  0.0639
  607loPI   GL1 9701   7.414   8.182   9.409 -0.0473  0.0650 -0.0007
  607loPI   GL2 9702   7.291   8.032   9.235 -0.1354  0.2498 -0.1030
  607loPI   C1A 9703   7.447   8.450   9.032  0.0339  0.0205  0.0439
  607loPI   C2A 9704   7.487   8.744   8.668 -0.1034 -0.0562  0.1817
  607loPI   C3A 9705   7.379   8.771   8.263 -0.0060 -0.1077  0.1981
  607loPI   C4A 9706   7.165   8.753   7.874 -0.0262  0.6225  0.0485
  607loPI   C5A 9707   6.927   8.605   7.433 -0.2809  0.0658 -0.1527
  607loPI   C6A 9708   6.606   8.771   7.181  0.1349  0.0487 -0.0908
  607loPI   C1B 9709   7.104   7.942   8.981 -0.1452 -0.3089  0.1471
  607loPI   C2B 9710   6.954   7.890   8.617 -0.1141 -0.4925 -0.0718
  607loPI   C3B 9711   6.902   7.808   8.192  0.1814  0.1425 -0.3209
  607loPI   C4B 9712   7.039   7.791   7.756  0.0282  0.1783 -0.2309
  608loPI    C1 9713  12.830   1.294   9.990  0.0161 -0.1439 -0.0509
  608loPI    C2 9714  12.788   1.195  10.375  0.0662  0.1942  0.0448
  608loPI    C3 9715  12.474   1.332  10.169  0.0626  0.1072 -0.0080
  608loPI   PO4 9716  12.950   1.196   9.884 -0.0374  0.1194  0.2203
  608loPI   GL1 9717  13.212   1.114   9.455  0.4180  0.1865 -0.0968
  608loPI   GL2 9718  13.336   1.441   9.432 -0.1440 -0.0807 -0.2288
  608loPI   C1A 9719  13.080   0.962   9.137 -0.1828 -0.0273  0.0216
  608loPI   C2A 9720  13.195   0.784   8.830  0.1476 -0.0435 -0.0262
  608loPI   C3A 9721  13.246   0.861   8.439 -0.3006 -0.1298  0.5388
  608loPI   C4A 9722  13.011   0.999   8.105  0.2485 -0.1952 -0.4133
  608loPI   C5A 9723  12.885   0.851   7.653 -0.0904  0.0351 -0.0775
  608loPI   C6A 9724  13.126   0.799   7.347 -0.1197  0.0420 -0.1072
  608loPI   C1B 9725  13.134   1.431   9.008 -0.0584 -0.0775 -0.1503
  608loPI   C2B 9726  12.953   1.318   8.637  0.0338  0.1784  0.1360
  608loPI   C3B 9727  12.677   1.380   8.214  0.1200 -0.0412 -0.0130
  608loPI   C4B 9728  12.739   1.358   7.792  0.0978  0.0510  0.0651
  609POPI    C1 9729   8.422   2.922  10.347 -0.1857  0.0080  0.0846
  609POPI    C2 9730   8.541   3.250  10.544 -0.0660 -0.0918  0.1804
  609POPI    C3 9731   8.750   2.910  10.577 -0.0184 -0.0990 -0.1553
  609POPI   PO4 9732   8.487   2.884  10.056 -0.0057  0.2496  0.1919
  609POPI   GL1 9733   8.468   3.096   9.696 -0.0202 -0.0009 -0.1585
  609POPI   GL2 9734   8.150   2.875   9.629  0.0599  0.0342  0.2212
  609POPI   C1A 9735   8.499   2.930   9.258 -0.0316  0.3199  0.2560
  609POPI   D2A 9736   8.503   2.583   9.116  0.0974  0.0126 -0.1261
  609POPI   C3A 9737   8.620   2.626   8.658 -0.3821  0.0696  0.1464
  609POPI   C4A 9738   8.702   2.709   8.261 -0.4122  0.3094 -0.2144
  609POPI   C1B 9739   8.033   2.748   9.164  0.0770 -0.0016 -0.2952
  609POPI   C2B 9740   8.111   2.821   8.768  0.0562 -0.0137  0.0673
  609POPI   C3B 9741   8.021   2.758   8.425  0.1832 -0.0370  0.1684
  609POPI   C4B 9742   7.720   2.604   8.113  0.0122  0.1337  0.0202
  610POPI    C1 9743   2.074   1.205   9.897 -0.1471 -0.0674  0.1547
  610POPI    C2 9744   2.267   1.555   9.912 -0.1513 -0.0414 -0.2847
  610POPI    C3 9745   2.467   1.213   9.968 -0.1359  0.0240  0.0823
  610POPI   PO4 9746   1.996   1.176   9.652 -0.4653  0.1413 -0.2966
  610POPI   GL1 9747   2.072   1.111   9.220  0.1686  0.0690  0.0538
  610POPI   GL2 9748   2.007   1.481   9.241  0.1951 -0.1904  0.3053
  610POPI   C1A 9749   2.150   1.224   8.767 -0.0950 -0.1079 -0.3722
  610POPI   D2A 9750   2.133   1.103   8.409  0.0322 -0.1533 -0.0498
  610POPI   C3A 9751   1.993   0.842   8.140 -0.1758  0.1895 -0.1020
  610POPI   C4A 9752   1.906   0.548   7.825  0.3242 -0.1336 -0.1507
  610POPI   C1B 9753   1.927   1.744   8.885 -0.2425  0.0487  0.0739
  610POPI   C2B 9754   1.960   1.966   8.556  0.0122 -0.3457 -0.0754
  610POPI   C3B 9755   2.177   2.052   8.222 -0.1243  0.0629  0.1447
  610POPI   C4B 9756   2.070   1.779   8.000  0.1950 -0.1602 -0.2574
  611POPI    C1 9757   1.148   1.383  10.147 -0.0747 -0.0596  0.0816
  611POPI    C2 9758   0.767   1.492  10.207 -0.0368  0.0409  0.1411
  611POPI    C3 9759   0.917   1.175  10.399 -0.1408 -0.1052 -0.0156
  611POPI   PO4 9760   1.178   1.440   9.844  0.3535 -0.3118 -0.0373
  611POPI   GL1 9761   1.412   1.405   9.435 -0.0505  0.4358  0.0097
  611POPI   GL2 9762   1.549   1.125   9.274 -0.1467 -0.1851  0.1035
  611POPI   C1A 9763   1.499   1.748   9.166 -0.1223 -0.0394 -0.0171
  611POPI   D2A 9764   1.497   1.973   8.832 -0.2326 -0.0358 -0.1568
  611POPI   C3A 9765   1.267   2.377   8.822 -0.0332  0.5057  0.0239
  611POPI   C4A 9766   0.979   2.666   8.893  0.4342  0.0277  0.2171
  611POPI   C1B 9767   1.687   1.331   8.873 -0.0438 -0.0322 -0.0516
  611POPI   C2B 9768   1.803   1.487   8.349  0.1621  0.1297  0.2011
  611POPI   C3B 9769   1.897   1.355   8.004 -0.1514  0.2615 -0.2313
  611POPI   C4B 9770   2.360   1.153   7.892 -0.2477 -0.1277 -0.0549
  612POPI    C1 9771   2.893   7.820  10.057 -0.3535  0.0760  0.0482
  612POPI    C2 9772   3.134   8.071  10.253 -0.2251  0.1115 -0.1519
  612POPI    C3 9773   2.778   7.974  10.407 -0.1511  0.1845  0.0684
  612POPI   PO4 9774   2.951   7.738   9.922  0.4266  0.1228  0.0460
  612POPI   GL1 9775   2.918   7.820   9.430 -0.4022 -0.1519 -0.3487
  612POPI   GL2 9776   2.974   7.525   9.313  0.3787  0.0695 -0.2298
  612POPI   C1A 9777   2.803   7.967   9.088 -0.0813  0.0557 -0.0305
  612POPI   D2A 9778   2.746   7.917   8.698  0.0275 -0.0374 -0.0276
  612POPI   C3A 9779   2.675   7.920   8.310 -0.0034  0.0613 -0.1665
  612POPI   C4A 9780   2.542   7.717   7.898 -0.1523  0.2455 -0.0351
  612POPI   C1B 9781   3.131   7.535   8.919 -0.0153 -0.0351  0.3105
  612POPI   C2B 9782   3.337   7.583   8.473  0.0503  0.1387 -0.1982
  612POPI   C3B 9783   3.179   7.622   7.983  0.0380 -0.1758 -0.1623
  612POPI   C4B 9784   3.034   7.679   7.526 -0.0120  0.1701  0.0766
  613POPI    C1 9785   4.664   1.441  10.357 -0.0561 -0.3336  0.3825
  613POPI    C2 9786   4.420   1.702  10.176  0.0727 -0.4419  0.0449
  613POPI    C3 9787   4.565   1.783  10.540 -0.1893 -0.2191  0.1029
  613POPI   PO4 9788   4.684   1.219  10.129  0.2614 -0.0124  0.0362
  613POPI   GL1 9789   4.764   1.368   9.770  0.1305  0.1749  0.0615
  613POPI   GL2 9790   4.655   1.367   9.477 -0.0175 -0.1005 -0.1048
  613POPI   C1A 9791   5.152   1.286   9.371 -0.2567  0.2681  0.2986
  613POPI   D2A 9792   5.289   1.212   8.916 -0.2295  0.3798  0.0739
  613POPI   C3A 9793   5.066   0.936   8.615 -0.1287  0.2826 -0.0670
  613POPI   C4A 9794   4.946   0.884   8.192  0.0200 -0.2786  0.2074
  613POPI   C1B 9795   4.781   1.220   8.957  0.0154  0.1352 -0.4730
  613POPI   C2B 9796   4.532   1.012   8.599  0.0056  0.0932  0.1532
  613POPI   C3B 9797   4.531   1.123   8.142  0.1412  0.0243  0.1567
  613POPI   C4B 9798   4.694   1.047   7.731 -0.0057 -0.0258  0.1761
  614POPI    C1 9799   9.859  18.542  10.712 -0.1399 -0.2528 -0.0686
  614POPI    C2 9800  10.120  18.318  10.916 -0.0133 -0.0104  0.0398
  614POPI    C3 9801   9.779  18.435  11.089 -0.2361 -0.3914 -0.1272
  614POPI   PO4 9802   9.841  18.378  10.450 -0.1370 -0.3154 -0.2401
  614POPI   GL1 9803   9.955  18.289  10.050  0.1684  0.1425 -0.0668
  614POPI   GL2 9804  10.091  18.552  10.016 -0.0200 -0.2287 -0.1573
  614POPI   C1A 9805   9.697  18.239   9.642 -0.2453  0.3361 -0.0022
  614POPI   D2A 9806   9.427  18.329   9.245  0.0042  0.2904  0.2143
  614POPI   C3A 9807   9.034  18.011   9.232  0.0974 -0.0127  0.1384
  614POPI   C4A 9808   8.624  18.320   9.138 -0.2999 -0.0061  0.2125
  614POPI   C1B 9809  10.141  18.409   9.609 -0.1781  0.0207  0.0484
  614POPI   C2B 9810  10.060  18.351   9.244  0.1338  0.0866 -0.0503
  614POPI   C3B 9811   9.758  18.188   8.937 -0.3271 -0.0326 -0.0315
  614POPI   C4B 9812   9.796  18.056   8.570 -0.0617  0.0519  0.0397
  615POPI    C1 9813  11.687   5.891  10.178  0.0801  0.2143  0.3686
  615POPI    C2 9814  11.311   5.759  10.144  0.1886 -0.0265  0.0462
  615POPI    C3 9815  11.428   5.947  10.477 -0.2253  0.0862  0.1337
  615POPI   PO4 9816  11.634   5.965   9.801  0.1731 -0.0891 -0.2632
  615POPI   GL1 9817  11.680   5.926   9.466  0.1533  0.0803 -0.0869
  615POPI   GL2 9818  11.868   5.621   9.466  0.0337 -0.2019  0.0721
  615POPI   C1A 9819  11.608   6.079   9.019 -0.0303  0.0338 -0.2389
  615POPI   D2A 9820  11.521   6.105   8.584  0.1493  0.2299  0.0374
  615POPI   C3A 9821  11.490   6.026   8.190  0.0522 -0.0503  0.0052
  615POPI   C4A 9822  11.625   5.850   7.748 -0.1680 -0.0964  0.0633
  615POPI   C1B 9823  11.939   5.662   8.976  0.0955 -0.0149 -0.3171
  615POPI   C2B 9824  11.935   5.758   8.511 -0.2579  0.1306  0.1485
  615POPI   C3B 9825  12.020   5.735   8.101  0.0865  0.0464 -0.0616
  615POPI   C4B 9826  12.115   5.826   7.698  0.0050  0.2429 -0.0959
  616POPI    C1 9827  14.088  10.508   9.790 -0.0260 -0.1696  0.0572
  616POPI    C2 9828  13.758  10.389   9.982 -0.1365  0.0062 -0.0211
  616POPI    C3 9829  14.118  10.279  10.116 -0.2142  0.0766  0.2525
  616POPI   PO4 9830  14.059  10.836   9.854  0.1303 -0.0722  0.2075
  616POPI   GL1 9831  13.975  11.140   9.600  0.1074  0.1514  0.1446
  616POPI   GL2 9832  13.687  11.172   9.553 -0.0611  0.3312  0.0474
  616POPI   C1A 9833  14.055  11.024   9.140  0.0013 -0.1511  0.1564
  616POPI   D2A 9834  14.254  11.131   8.878  0.2590 -0.2140  0.1967
  616POPI   C3A 9835  14.182  11.195   8.423 -0.1499 -0.3218 -0.2542
  616POPI   C4A 9836  14.076  11.219   7.994  0.0811  0.0451 -0.1432
  616POPI   C1B 9837  13.440  11.069   9.321  0.0638  0.0416  0.2908
  616POPI   C2B 9838  13.234  11.138   8.959 -0.3679 -0.0565 -0.0569
  616POPI   C3B 9839  13.263  11.080   8.590  0.0340 -0.2574  0.2782
  616POPI   C4B 9840  13.333  11.194   8.165  0.1229  0.0189 -0.1771
  617POPI    C1 9841   2.136   7.473   9.986 -0.2218  0.2079  0.0881
  617POPI    C2 9842   2.440   7.634  10.190 -0.0619 -0.1453  0.1370
  617POPI    C3 9843   2.078   7.607  10.358 -0.0950  0.1681  0.1227
  617POPI   PO4 9844   2.121   7.603   9.776 -0.0438  0.0151  0.3340
  617POPI   GL1 9845   2.159   7.711   9.540 -0.2938 -0.1036  0.0632
  617POPI   GL2 9846   2.392   7.753   9.319 -0.0259  0.0407  0.0720
  617POPI   C1A 9847   2.002   7.946   9.201  0.1396  0.0462  0.0229
  617POPI   D2A 9848   1.875   7.948   8.760 -0.1042  0.3669  0.2598
  617POPI   C3A 9849   1.524   8.149   8.582  0.0603  0.0202 -0.0112
  617POPI   C4A 9850   1.322   8.327   8.053 -0.1634 -0.0044 -0.0833
  617POPI   C1B 9851   2.337   7.810   8.879  0.1508  0.0659 -0.0418
  617POPI   C2B 9852   2.293   7.698   8.488  0.0925  0.1781 -0.0499
  617POPI   C3B 9853   2.122   7.477   8.099 -0.0665 -0.2240 -0.1197
  617POPI   C4B 9854   1.720   7.510   7.874 -0.0332 -0.2842 -0.1818
  618POPI    C1 9855   1.255   5.303   9.574 -0.0052  0.0231 -0.1599
  618POPI    C2 9856   1.438   5.653   9.633  0.1808 -0.1296  0.2101
  618POPI    C3 9857   1.038   5.636   9.616  0.1782  0.1365 -0.1051
  618POPI   PO4 9858   1.367   5.212   9.389  0.0746 -0.0668 -0.0088
  618POPI   GL1 9859   1.469   5.412   9.021 -0.0734 -0.0117  0.2577
  618POPI   GL2 9860   1.378   5.669   9.143  0.0130  0.0885  0.1260
  618POPI   C1A 9861   1.526   5.305   8.702  0.0785  0.2284 -0.2706
  618POPI   D2A 9862   1.403   5.233   8.300 -0.0124 -0.1622 -0.0582
  618POPI   C3A 9863   1.276   5.432   7.911 -0.0860 -0.1023  0.0610
  618POPI   C4A 9864   0.983   5.109   7.812  0.2672  0.0860 -0.4375
  618POPI   C1B 9865   1.292   6.009   8.946  0.2160 -0.2215 -0.2271
  618POPI   C2B 9866   1.229   6.317   8.624  0.0348 -0.0384  0.1607
  618POPI   C3B 9867   1.116   6.373   8.166  0.0214 -0.0672  0.0527
  618POPI   C4B 9868   1.167   6.562   7.838 -0.0755  0.1131 -0.0866
  619POPI    C1 9869  19.115   3.997   9.316 -0.2687  0.0167  0.0646
  619POPI    C2 9870  19.059   4.047   9.709 -0.2337 -0.2090  0.0999
  619POPI    C3 9871  18.818   4.229   9.447 -0.1815  0.0407  0.2225
  619POPI   PO4 9872  19.384   4.073   9.274 -0.1576 -0.3915 -0.1007
  619POPI   GL1 9873  19.597   4.199   8.970  0.0006 -0.0924  0.2372
  619POPI   GL2 9874  19.918   4.055   8.979 -0.1427 -0.2329 -0.0168
  619POPI   C1A 9875  19.543   4.153   8.450 -0.1445 -0.3485 -0.2931
  619POPI   D2A 9876  19.312   4.061   8.035 -0.0941 -0.0942 -0.1841
  619POPI   C3A 9877  18.966   4.308   7.881  0.2336 -0.0579 -0.2333
  619POPI   C4A 9878  18.526   4.530   7.850  0.1507 -0.1558  0.0317
  619POPI   C1B 9879  19.996   4.035   8.559  0.2705 -0.0641  0.0078
  619POPI   C2B 9880  19.932   4.001   8.178 -0.1754  0.0622 -0.3741
  619POPI   C3B 9881  19.742   4.136   7.783  0.2634 -0.0660 -0.0422
  619POPI   C4B 9882  19.539   4.418   7.656  0.2263 -0.1178  0.1043
  620POPI    C1 9883   5.056   7.216  10.021 -0.2081  0.1845 -0.0221
  620POPI    C2 9884   5.394   7.098  10.200 -0.1204  0.1078 -0.2356
  620POPI    C3 9885   5.275   7.479  10.228 -0.2154  0.0532  0.1543
  620POPI   PO4 9886   4.970   6.895   9.926  0.2075 -0.1374 -0.2282
  620POPI   GL1 9887   4.654   6.962   9.544  0.3416  0.2402 -0.0684
  620POPI   GL2 9888   4.606   7.259   9.370  0.2040 -0.0749  0.1354
  620POPI   C1A 9889   4.745   6.654   9.177  0.2160 -0.1272 -0.1063
  620POPI   D2A 9890   4.652   6.386   8.774 -0.3973  0.4089  0.0885
  620POPI   C3A 9891   4.243   6.509   8.545 -0.2602 -0.0331 -0.1876
  620POPI   C4A 9892   4.064   6.458   8.156 -0.1395 -0.1622  0.2117
  620POPI   C1B 9893   4.795   7.151   9.027  0.1620 -0.0135 -0.0720
  620POPI   C2B 9894   4.971   6.796   8.699  0.1846 -0.0193 -0.1538
  620POPI   C3B 9895   4.955   6.561   8.436 -0.0338  0.1272 -0.1999
  620POPI   C4B 9896   4.602   6.411   8.137 -0.0737  0.0657 -0.0008
  621POPI    C1 9897   7.931   3.793  10.229 -0.3622  0.0228 -0.1493
  621POPI    C2 9898   8.200   3.661  10.494 -0.1120 -0.1161 -0.4662
  621POPI    C3 9899   7.871   3.850  10.621  0.0636 -0.0684 -0.0659
  621POPI   PO4 9900   8.021   3.796   9.976 -0.1693 -0.0820  0.3235
  621POPI   GL1 9901   8.032   3.890   9.509 -0.1086 -0.0414  0.2082
  621POPI   GL2 9902   7.889   4.247   9.396 -0.0043  0.2364 -0.3422
  621POPI   C1A 9903   8.218   3.862   9.051  0.3399  0.2080 -0.0506
  621POPI   D2A 9904   8.189   4.109   8.785 -0.0632  0.1886  0.2790
  621POPI   C3A 9905   8.489   4.128   8.594  0.0113  0.1310  0.1261
  621POPI   C4A 9906   8.475   3.889   8.221 -0.1630  0.0551 -0.1855
  621POPI   C1B 9907   8.304   4.258   9.317 -0.0021 -0.0551  0.1035
  621POPI   C2B 9908   8.684   4.206   9.055  0.1107 -0.1720 -0.4065
  621POPI   C3B 9909   8.992   4.113   8.700  0.0243  0.3053  0.2543
  621POPI   C4B 9910   9.118   3.891   8.371 -0.0428  0.6230 -0.1740
  622POPI    C1 9911  12.775  11.423  10.285  0.3584 -0.1248 -0.0264
  622POPI    C2 9912  12.820  11.807  10.388 -0.1660 -0.0520 -0.0423
  622POPI    C3 9913  12.729  11.535  10.666 -0.0941 -0.1143 -0.0793
  622POPI   PO4 9914  12.947  11.469  10.003  0.0879 -0.2941  0.1377
  622POPI   GL1 9915  13.112  11.466   9.540  0.0376  0.2395 -0.6193
  622POPI   GL2 9916  12.827  11.513   9.450  0.5156 -0.0109 -0.0185
  622POPI   C1A 9917  12.832  11.079   9.304  0.0844 -0.2888  0.1384
  622POPI   D2A 9918  12.627  10.700   9.342  0.1416 -0.2201  0.2509
  622POPI   C3A 9919  12.458  10.682   8.929  0.0351  0.0956  0.1604
  622POPI   C4A 9920  12.408  10.884   8.563 -0.0158  0.0533  0.0588
  622POPI   C1B 9921  12.930  11.797   9.116  0.0910 -0.1197  0.1424
  622POPI   C2B 9922  12.781  11.822   8.675 -0.0853 -0.0696  0.1998
  622POPI   C3B 9923  12.687  11.816   8.249 -0.1057  0.0470 -0.0359
  622POPI   C4B 9924  12.686  11.792   7.752  0.1047 -0.2628  0.0075
  623POPI    C1 9925  15.145  18.349  10.255 -0.0276  0.1535 -0.3130
  623POPI    C2 9926  15.248  18.539  10.591  0.0739  0.0521 -0.2861
  623POPI    C3 9927  15.121  18.160  10.606 -0.1236  0.1145 -0.3401
  623POPI   PO4 9928  14.997  18.559  10.154  0.0532 -0.0055  0.1537
  623POPI   GL1 9929  14.861  18.753   9.817  0.0603 -0.1233 -0.0584
  623POPI   GL2 9930  15.139  18.869   9.722 -0.0012 -0.0235  0.0422
  623POPI   C1A 9931  14.867  18.606   9.386 -0.0133 -0.0684  0.0146
  623POPI   D2A 9932  14.999  18.226   9.142  0.3576  0.0085  0.2215
  623POPI   C3A 9933  14.834  18.204   8.830  0.0363  0.1122  0.2174
  623POPI   C4A 9934  14.824  17.966   8.474  0.1669  0.2625  0.1454
  623POPI   C1B 9935  15.187  19.054   9.298 -0.2540 -0.1197  0.2175
  623POPI   C2B 9936  15.074  19.206   8.930 -0.2034 -0.1630 -0.0709
  623POPI   C3B 9937  14.967  19.365   8.491  0.2820  0.1226  0.3284
  623POPI   C4B 9938  14.721  19.555   8.235  0.0624  0.2403  0.1040
  624POPI    C1 9939  16.649  13.373  10.197  0.1910  0.0801  0.0008
  624POPI    C2 9940  16.899  13.622  10.387  0.0574  0.0500  0.2202
  624POPI    C3 9941  16.509  13.621  10.478  0.0026 -0.0148 -0.0080
  624POPI   PO4 9942  16.797  13.405   9.902  0.0469  0.1250 -0.0031
  624POPI   GL1 9943  16.836  13.063   9.542  0.1830 -0.0898  0.0073
  624POPI   GL2 9944  16.585  13.239   9.410 -0.0940 -0.2811  0.1536
  624POPI   C1A 9945  16.830  13.029   9.004  0.2249  0.1389 -0.1411
  624POPI   D2A 9946  16.863  12.912   8.594  0.0294 -0.3141 -0.1973
  624POPI   C3A 9947  16.593  12.991   8.354 -0.1169  0.3996 -0.2145
  624POPI   C4A 9948  16.454  13.293   8.028  0.0860  0.0345  0.1402
  624POPI   C1B 9949  16.503  13.475   8.966  0.0600 -0.0143  0.0798
  624POPI   C2B 9950  16.569  13.647   8.581  0.1631  0.1402  0.0614
  624POPI   C3B 9951  16.611  14.092   8.491 -0.1439 -0.0811 -0.1435
  624POPI   C4B 9952  16.616  14.361   8.194 -0.0108  0.2296  0.0181
  625DPPI    C1 9953   2.384  10.299  10.466 -0.0702  0.1054  0.0488
  625DPPI    C2 9954   2.403  10.688  10.376 -0.2813  0.1429  0.1606
  625DPPI    C3 9955   2.372  10.572  10.758  0.0412  0.0057  0.1477
  625DPPI   PO4 9956   2.525  10.171  10.166 -0.0181 -0.0752 -0.1877
  625DPPI   GL1 9957   2.439  10.078   9.798 -0.2039  0.0714  0.2001
  625DPPI   GL2 9958   2.308   9.815   9.771 -0.2002  0.0052  0.3320
  625DPPI   C1A 9959   2.753  10.183   9.472  0.1182  0.2044 -0.3355
  625DPPI   C2A 9960   2.874  10.104   9.029  0.0783 -0.0146 -0.1929
  625DPPI   C3A 9961   2.748  10.171   8.666 -0.1286  0.3688  0.0478
  625DPPI   C4A 9962   2.865  10.030   8.233 -0.0966 -0.3507  0.0962
  625DPPI   C1B 9963   2.359   9.824   9.263 -0.3054  0.0523 -0.1180
  625DPPI   C2B 9964   2.516   9.822   8.927  0.1544  0.0891 -0.0785
  625DPPI   C3B 9965   2.329   9.826   8.481 -0.0010 -0.0025  0.0418
  625DPPI   C4B 9966   2.342   9.820   8.065  0.0181 -0.2144 -0.2577
  626DPPI    C1 9967  15.555   2.470   9.982 -0.3177  0.1582  0.2573
  626DPPI    C2 9968  15.643   2.650  10.327  0.2236  0.0672  0.1749
  626DPPI    C3 9969  15.443   2.304  10.328 -0.0559  0.2252  0.3764
  626DPPI   PO4 9970  15.569   2.658   9.808  0.0558  0.0423  0.2089
  626DPPI   GL1 9971  15.721   2.824   9.430 -0.1007  0.1073 -0.0844
  626DPPI   GL2 9972  15.996   2.761   9.395 -0.0761 -0.3209 -0.2795
  626DPPI   C1A 9973  15.535   2.619   9.041 -0.1006  0.0636 -0.1172
  626DPPI   C2A 9974  15.322   2.630   8.663  0.0455 -0.3331 -0.2051
  626DPPI   C3A 9975  15.572   2.659   8.395 -0.2419  0.0880  0.0727
  626DPPI   C4A 9976  15.941   2.708   8.101 -0.0093 -0.0604 -0.0420
  626DPPI   C1B 9977  16.067   2.491   9.070 -0.0265  0.0493  0.1552
  626DPPI   C2B 9978  15.940   2.363   8.662 -0.1512  0.1260  0.3843
  626DPPI   C3B 9979  16.084   2.254   8.211  0.0457  0.2577 -0.1063
  626DPPI   C4B 9980  16.067   2.048   7.776 -0.0387 -0.0022  0.0656
  627DPPI    C1 9981   0.892   3.231   9.705  0.1426  0.1414  0.0242
  627DPPI    C2 9982   0.667   3.104  10.011  0.1497 -0.2778 -0.1385
  627DPPI    C3 9983   1.003   3.310  10.081 -0.1029  0.0589  0.1161
  627DPPI   PO4 9984   0.678   3.403   9.533  0.1023 -0.0067  0.1708
  627DPPI   GL1 9985   0.522   3.609   9.105  0.0348  0.3694  0.0846
  627DPPI   GL2 9986   0.218   3.485   9.226 -0.1539 -0.2834  0.0661
  627DPPI   C1A 9987   0.493   3.733   8.660  0.1894 -0.2114  0.2237
  627DPPI   C2A 9988   0.419   3.573   8.158 -0.1986  0.0719  0.0098
  627DPPI   C3A 9989   0.095   3.673   7.769 -0.2219 -0.2277 -0.1412
  627DPPI   C4A 9990  -0.259   3.750   7.945  0.3125 -0.1321 -0.0915
  627DPPI   C1B 9991   0.039   3.650   8.821  0.1484  0.2537 -0.0527
  627DPPI   C2B 9992   0.028   3.856   8.473 -0.2763 -0.1225 -0.2013
  627DPPI   C3B 9993  -0.043   4.293   8.409  0.2137  0.0905 -0.0595
  627DPPI   C4B 9994  -0.288   4.645   8.242  0.0957  0.0105  0.1533
  628DPPI    C1 9995   0.521   2.585   9.868 -0.2157  0.0271  0.1915
  628DPPI    C2 9996   0.251   2.713  10.133 -0.0282 -0.0839  0.4411
  628DPPI    C3 9997   0.624   2.631  10.252  0.0415 -0.1966  0.1531
  628DPPI   PO4 9998   0.575   2.739   9.627  0.2045  0.1901 -0.1098
  628DPPI   GL1 9999   0.448   2.953   9.272 -0.1363 -0.0491  0.2480
  628DPPI   GL210000   0.167   2.783   9.243  0.1194  0.3223  0.2105
  628DPPI   C1A10001   0.648   3.098   8.922  0.0353 -0.1202  0.1089
  628DPPI   C2A10002   0.546   3.077   8.542 -0.1018  0.1305 -0.4602
  628DPPI   C3A10003   0.577   2.944   8.146  0.0305 -0.1489 -0.0414
  628DPPI   C4A10004   0.698   3.132   7.820  0.3539  0.2992  0.1102
  628DPPI   C1B10005   0.110   3.106   8.859 -0.1537 -0.3743 -0.0752
  628DPPI   C2B10006   0.108   3.311   8.407  0.1244 -0.0245  0.1752
  628DPPI   C3B10007   0.139   3.160   7.940 -0.1402 -0.1981 -0.1126
  628DPPI   C4B10008   0.049   2.987   7.543  0.0338 -0.0956  0.0834
  629DPPI    C110009  18.908   2.911  10.036 -0.2620  0.2202 -0.0272
  629DPPI    C210010  18.587   2.764  10.225 -0.0809 -0.1647 -0.0100
  629DPPI    C310011  18.883   2.932  10.435 -0.1588 -0.0323 -0.0053
  629DPPI   PO410012  18.825   3.039   9.813  0.2701  0.2291 -0.1424
  629DPPI   GL110013  18.830   2.899   9.503 -0.0418  0.0292 -0.0892
  629DPPI   GL210014  18.531   3.052   9.369 -0.0307  0.1821 -0.0375
  629DPPI   C1A10015  18.826   2.932   8.996 -0.2699 -0.1592  0.1180
  629DPPI   C2A10016  18.994   2.565   8.787  0.1013 -0.0356 -0.1678
  629DPPI   C3A10017  19.049   2.356   8.381  0.1476  0.1791  0.0394
  629DPPI   C4A10018  19.115   2.027   8.138 -0.0070  0.2238 -0.2589
  629DPPI   C1B10019  18.465   2.672   9.182 -0.1949 -0.1269  0.2808
  629DPPI   C2B10020  18.520   2.371   8.896  0.0281  0.3181  0.0437
  629DPPI   C3B10021  18.819   2.127   8.874 -0.1890  0.0211  0.1952
  629DPPI   C4B10022  19.196   1.975   8.848 -0.0423  0.3138 -0.3840
  630DPPI    C110023  14.124   2.861   9.860 -0.3080  0.1041 -0.0285
  630DPPI    C210024  13.725   2.855   9.895 -0.2715 -0.2161  0.4138
  630DPPI    C310025  13.925   2.516   9.822 -0.0764 -0.0586  0.2026
  630DPPI   PO410026  14.218   2.930   9.709 -0.0551  0.1785  0.0726
  630DPPI   GL110027  14.140   2.966   9.318  0.0787  0.2603  0.0120
  630DPPI   GL210028  13.813   2.755   9.330  0.2292 -0.2065 -0.0442
  630DPPI   C1A10029  14.320   2.959   8.956  0.2696 -0.1026 -0.0925
  630DPPI   C2A10030  14.350   2.749   8.561 -0.3554  0.2641  0.0099
  630DPPI   C3A10031  14.200   2.573   8.171  0.1335 -0.2449 -0.0562
  630DPPI   C4A10032  14.098   2.618   7.816  0.1357 -0.1297  0.0268
  630DPPI   C1B10033  13.762   2.987   9.020 -0.2321 -0.1335 -0.3002
  630DPPI   C2B10034  13.899   3.090   8.641 -0.1607  0.0699  0.3059
  630DPPI   C3B10035  14.108   3.049   8.164 -0.3304  0.2033  0.1214
  630DPPI   C4B10036  14.297   3.206   7.683  0.2470  0.0500  0.0477
  631DPPI    C110037  18.432   3.442   9.766 -0.0455  0.0401 -0.2078
  631DPPI    C210038  18.406   3.668  10.096  0.2895 -0.0021 -0.1498
  631DPPI    C310039  18.464   3.273  10.127 -0.2640 -0.0991 -0.2517
  631DPPI   PO410040  18.277   3.553   9.528  0.2413 -0.0729 -0.1696
  631DPPI   GL110041  18.086   3.774   9.169  0.2127  0.1111 -0.2724
  631DPPI   GL210042  18.302   3.520   9.042  0.3569 -0.0434 -0.0596
  631DPPI   C1A10043  17.806   3.512   8.903  0.2978 -0.1839 -0.1338
  631DPPI   C2A10044  17.870   3.072   8.651  0.1375  0.1130 -0.1635
  631DPPI   C3A10045  17.810   2.722   8.399  0.1493 -0.2506  0.0422
  631DPPI   C4A10046  18.162   2.486   8.180  0.1406  0.2836 -0.0952
  631DPPI   C1B10047  18.314   3.705   8.617  0.0372  0.0522 -0.1861
  631DPPI   C2B10048  18.296   3.593   8.138  0.0874  0.0212 -0.0335
  631DPPI   C3B10049  18.348   3.579   7.730  0.0274 -0.0200 -0.1019
  631DPPI   C4B10050  18.677   3.609   7.371  0.0512  0.0103  0.1673
  632DPPI    C110051  13.934  11.378  10.044 -0.3535 -0.1640  0.2001
  632DPPI    C210052  13.971  11.467  10.432 -0.1469 -0.1431  0.1765
  632DPPI    C310053  14.156  11.146  10.283 -0.1929 -0.1280  0.0870
  632DPPI   PO410054  14.085  11.532   9.894 -0.0831 -0.0009  0.2050
  632DPPI   GL110055  13.919  11.707   9.630 -0.0737  0.2703 -0.1370
  632DPPI   GL210056  13.576  11.718   9.531  0.2975 -0.1164  0.4128
  632DPPI   C1A10057  13.890  11.487   9.211 -0.1269 -0.0640 -0.0684
  632DPPI   C2A10058  13.711  11.336   8.846  0.0977  0.0742 -0.2500
  632DPPI   C3A10059  13.669  11.563   8.417 -0.2404  0.2167  0.0787
  632DPPI   C4A10060  13.885  11.733   8.013 -0.0838  0.1154 -0.2141
  632DPPI   C1B10061  13.414  11.655   9.104 -0.0952 -0.0739 -0.0325
  632DPPI   C2B10062  13.283  11.582   8.723 -0.0562 -0.3790  0.0422
  632DPPI   C3B10063  13.173  11.706   8.353  0.0387  0.2003 -0.1017
  632DPPI   C4B10064  13.088  11.602   7.964  0.1876  0.3079 -0.0695
  633DPPI    C110065   3.960  12.489  10.662 -0.1561 -0.1858 -0.2578
  633DPPI    C210066   3.961  12.791  10.925  0.0896 -0.2592 -0.1719
  633DPPI    C310067   3.668  12.762  10.654 -0.1538 -0.1695  0.0777
  633DPPI   PO410068   4.230  12.442  10.663 -0.3115 -0.3971 -0.0057
  633DPPI   GL110069   4.330  12.341  10.215 -0.1906 -0.2827  0.0351
  633DPPI   GL210070   3.925  12.367  10.163 -0.3815 -0.3006  0.0836
  633DPPI   C1A10071   4.226  12.340   9.741  0.2078  0.0765 -0.2089
  633DPPI   C2A10072   4.045  12.438   9.363 -0.0446  0.3321 -0.1010
  633DPPI   C3A10073   4.014  12.465   8.890  0.1788 -0.1824  0.3674
  633DPPI   C4A10074   3.906  12.525   8.443  0.0533 -0.1704  0.1206
  633DPPI   C1B10075   3.750  12.317   9.757  0.3749  0.0277  0.0281
  633DPPI   C2B10076   3.620  12.105   9.283  0.1321  0.1647 -0.0126
  633DPPI   C3B10077   3.462  12.091   8.889  0.0701 -0.0707 -0.2069
  633DPPI   C4B10078   3.522  12.237   8.568  0.1392  0.1825  0.2237
  634DPPI    C110079  12.554   0.007   9.962  0.1021 -0.0747 -0.0906
  634DPPI    C210080  12.777   0.264  10.172 -0.0307  0.0083 -0.0503
  634DPPI    C310081  12.573   0.392   9.853 -0.1915 -0.0212  0.0398
  634DPPI   PO410082  12.694  -0.210   9.910 -0.0882 -0.0672 -0.1620
  634DPPI   GL110083  12.886  -0.342   9.531 -0.0358  0.1667 -0.4567
  634DPPI   GL210084  13.121  -0.232   9.483 -0.0969  0.0892 -0.1499
  634DPPI   C1A10085  12.585  -0.427   9.196  0.0084 -0.1892 -0.1326
  634DPPI   C2A10086  12.596  -0.727   8.822 -0.2383 -0.1405  0.4326
  634DPPI   C3A10087  12.575  -0.978   8.519 -0.1549  0.3849  0.0934
  634DPPI   C4A10088  12.766  -0.971   8.097  0.2616 -0.3823  0.1993
  634DPPI   C1B10089  13.019  -0.158   9.093 -0.1371 -0.3095 -0.1861
  634DPPI   C2B10090  12.710  -0.220   8.719 -0.0676  0.2631 -0.0759
  634DPPI   C3B10091  12.439  -0.083   8.334  0.2474 -0.1727  0.1476
  634DPPI   C4B10092  12.153  -0.207   8.010 -0.0529  0.0259  0.0873
  635PYPI    C110093  14.383  11.990   9.833  0.1738 -0.0489 -0.1274
  635PYPI    C210094  14.447  12.184   9.489  0.4612  0.1224  0.0182
  635PYPI    C310095  14.498  12.373   9.837 -0.0310  0.0130  0.1582
  635PYPI   PO410096  14.475  11.760   9.775 -0.0892 -0.2125 -0.0686
  635PYPI   GL110097  14.624  11.566   9.447 -0.0021  0.0325 -0.1663
  635PYPI   GL210098  14.375  11.429   9.381 -0.0144  0.1163 -0.0275
  635PYPI   C1A10099  14.744  11.955   9.106  0.3506  0.0080 -0.0738
  635PYPI   C2A10100  14.920  12.086   8.781  0.0238  0.0104 -0.2744
  635PYPI   D3A10101  14.913  12.405   8.478  0.0494 -0.4212  0.1974
  635PYPI   C4A10102  15.080  12.580   7.989 -0.3505  0.3262  0.4243
  635PYPI   C1B10103  14.276  11.832   9.128  0.0206 -0.0566  0.2659
  635PYPI   C2B10104  14.025  11.968   8.723 -0.4857  0.0373  0.2077
  635PYPI   C3B10105  13.735  12.044   8.352 -0.0451 -0.3290 -0.3088
  635PYPI   C4B10106  13.601  12.132   7.962 -0.4380 -0.1277 -0.0606
  636PYPI    C110107  11.442  11.915  10.097 -0.1991  0.0107  0.1445
  636PYPI    C210108  11.344  12.107  10.434 -0.0847 -0.1262  0.2567
  636PYPI    C310109  11.386  11.709  10.435 -0.1352 -0.1328  0.0684
  636PYPI   PO410110  11.286  11.964   9.932  0.2204 -0.0855 -0.1824
  636PYPI   GL110111  11.260  11.677   9.574  0.0508 -0.1513 -0.1971
  636PYPI   GL210112  11.454  11.811   9.471  0.1714  0.0983  0.0831
  636PYPI   C1A10113  11.409  11.320   9.252 -0.1233 -0.1654 -0.2383
  636PYPI   C2A10114  11.487  11.292   8.733  0.0716 -0.0920  0.1634
  636PYPI   D3A10115  11.257  11.465   8.319  0.0686 -0.1039 -0.1119
  636PYPI   C4A10116  11.342  11.799   8.085  0.0153  0.1847  0.2086
  636PYPI   C1B10117  11.393  11.838   8.972 -0.1742 -0.0710  0.0455
  636PYPI   C2B10118  11.348  11.931   8.576 -0.1133 -0.2275 -0.2008
  636PYPI   C3B10119  11.703  12.124   8.238  0.0081 -0.0344 -0.1595
  636PYPI   C4B10120  11.947  12.201   7.927  0.1951  0.4587  0.1947
  637PYPI    C110121   4.408   3.882   9.701 -0.0043  0.1089 -0.1002
  637PYPI    C210122   4.150   3.765   9.983 -0.3178 -0.0386 -0.4411
  637PYPI    C310123   4.387   3.497   9.805  0.0006  0.0803 -0.2042
  637PYPI   PO410124   4.248   4.062   9.597  0.0564  0.0199  0.0268
  637PYPI   GL110125   4.076   4.474   9.387  0.2978 -0.2883  0.0630
  637PYPI   GL210126   3.891   4.223   9.306  0.0047 -0.2166 -0.5804
  637PYPI   C1A10127   4.269   4.545   8.974 -0.1910  0.0662  0.0848
  637PYPI   C2A10128   4.353   4.741   8.514 -0.2789  0.1038 -0.1274
  637PYPI   D3A10129   4.519   4.696   8.148  0.3889 -0.1140 -0.1816
  637PYPI   C4A10130   4.160   4.721   7.840  0.1823 -0.1346 -0.3009
  637PYPI   C1B10131   3.761   4.403   8.921 -0.0458  0.0956 -0.2091
  637PYPI   C2B10132   3.715   4.533   8.442 -0.1555 -0.0750 -0.2943
  637PYPI   C3B10133   3.731   4.435   7.954 -0.2885 -0.0037  0.3590
  637PYPI   C4B10134   3.784   4.605   7.456 -0.0115 -0.0592  0.1585
  638PYPI    C110135  13.996  15.719  10.187  0.3831 -0.2031  0.1479
  638PYPI    C210136  13.716  15.571  10.432  0.2262 -0.0639  0.0545
  638PYPI    C310137  13.950  15.872  10.554 -0.1013  0.2581 -0.0916
  638PYPI   PO410138  13.954  15.860   9.940 -0.2002  0.1161 -0.1591
  638PYPI   GL110139  13.638  16.122   9.684  0.0067 -0.0946  0.1046
  638PYPI   GL210140  13.858  16.351   9.713 -0.0991 -0.0048 -0.0206
  638PYPI   C1A10141  13.752  15.978   9.167  0.0809 -0.0880  0.1968
  638PYPI   C2A10142  13.830  16.019   8.656  0.2559  0.0477  0.3034
  638PYPI   D3A10143  13.686  16.399   8.505  0.1211  0.1064  0.1265
  638PYPI   C4A10144  13.433  16.675   8.859  0.1622 -0.2109  0.1520
  638PYPI   C1B10145  13.853  16.574   9.287 -0.2366 -0.1675 -0.3557
  638PYPI   C2B10146  13.976  16.424   8.920 -0.0374 -0.0646 -0.0465
  638PYPI   C3B10147  14.289  16.238   8.976  0.1849 -0.0812  0.1503
  638PYPI   C4B10148  14.463  16.003   9.200  0.1527  0.2897  0.2112
  639PYPI    C110149   7.270   3.737  10.562 -0.0168 -0.0785  0.1317
  639PYPI    C210150   7.266   3.338  10.590  0.1198 -0.0796  0.1410
  639PYPI    C310151   6.944   3.549  10.697 -0.2105 -0.2270 -0.5102
  639PYPI   PO410152   7.428   3.783  10.216  0.2517  0.0921  0.1104
  639PYPI   GL110153   7.247   3.634   9.809  0.0677 -0.1807  0.0003
  639PYPI   GL210154   7.437   3.914   9.583  0.1955  0.0006 -0.2473
  639PYPI   C1A10155   7.338   3.504   9.367  0.3598 -0.0596  0.1710
  639PYPI   C2A10156   7.258   3.579   9.017  0.0598  0.1806  0.0733
  639PYPI   D3A10157   7.340   3.556   8.552  0.1050  0.0441  0.1998
  639PYPI   C4A10158   7.426   3.272   8.264 -0.0260 -0.0747  0.0755
  639PYPI   C1B10159   7.731   3.691   9.190 -0.0550 -0.3387  0.0665
  639PYPI   C2B10160   7.881   3.629   8.794  0.0816  0.0525 -0.0658
  639PYPI   C3B10161   8.173   3.646   8.556 -0.0790  0.1284  0.2057
  639PYPI   C4B10162   8.232   3.442   8.172 -0.1171 -0.2293  0.0395
  640PYPI    C110163  11.217  17.831  10.497 -0.1841  0.1421 -0.1564
  640PYPI    C210164  11.522  17.580  10.435 -0.2601 -0.0137  0.0875
  640PYPI    C310165  11.592  17.954  10.558 -0.1662 -0.0457  0.1323
  640PYPI   PO410166  11.090  17.916  10.350  0.1348  0.0018 -0.1305
  640PYPI   GL110167  10.903  18.050  10.007 -0.0410 -0.1283  0.0405
  640PYPI   GL210168  11.066  18.298   9.951 -0.1364 -0.0465 -0.1181
  640PYPI   C1A10169  10.899  17.800   9.693 -0.0618 -0.1315  0.2190
  640PYPI   C2A10170  10.719  17.860   9.232 -0.0181 -0.0445 -0.1668
  640PYPI   D3A10171  10.490  18.021   9.007 -0.2997  0.2012 -0.2950
  640PYPI   C4A10172  10.793  18.255   8.669  0.0271 -0.1419 -0.0166
  640PYPI   C1B10173  10.938  18.282   9.542  0.0406 -0.1238  0.2051
  640PYPI   C2B10174  11.085  18.400   9.136  0.0627 -0.3320 -0.0876
  640PYPI   C3B10175  11.330  18.363   8.726  0.2584  0.2468  0.3814
  640PYPI   C4B10176  11.305  18.281   8.345 -0.1734 -0.1340 -0.2086
  641ERGO   ROH10177   0.786  11.084   9.837 -0.1055 -0.1359 -0.0739
  641ERGO    R110178   0.708  10.991   9.581  0.1069 -0.1542 -0.1354
  641ERGO    R210179   0.673  11.160   9.365 -0.0064 -0.1269 -0.1002
  641ERGO    R310180   0.848  10.990   9.246  0.2472  0.1139 -0.0789
  641ERGO    R410181   0.732  11.144   9.025 -0.2340 -0.3107 -0.1333
  641ERGO    R510182   0.740  10.927   9.041  0.2133 -0.2865  0.0569
  641ERGO    C110183   0.931  10.976   8.715 -0.1285 -0.1916 -0.1327
  641ERGO    C210184   0.942  10.991   8.416 -0.0745 -0.2804 -0.2400
  642ERGO   ROH10185   7.841  17.212   9.899 -0.0351 -0.1262 -0.0258
  642ERGO    R110186   7.679  17.222   9.667 -0.0429 -0.1811 -0.0241
  642ERGO    R210187   7.640  17.455   9.523 -0.2393 -0.1569  0.0545
  642ERGO    R310188   7.726  17.302   9.315 -0.1025 -0.0153  0.0068
  642ERGO    R410189   7.521  17.476   9.199 -0.2041 -0.1280  0.0442
  642ERGO    R510190   7.529  17.259   9.187 -0.0464 -0.1120 -0.0381
  642ERGO    C110191   7.533  17.346   8.815 -0.0552  0.0218 -0.0066
  642ERGO    C210192   7.609  17.413   8.498 -0.2533  0.1105 -0.0239
  643ERGO   ROH10193   5.990  18.403   9.694  0.1307  0.0583  0.0424
  643ERGO    R110194   5.984  18.525   9.439 -0.0962 -0.1556 -0.0589
  643ERGO    R210195   6.214  18.597   9.303 -0.2213  0.1879 -0.0998
  643ERGO    R310196   6.105  18.446   9.105  0.0818 -0.1935  0.0135
  643ERGO    R410197   6.274  18.641   8.965 -0.3754  0.1120 -0.1379
  643ERGO    R510198   6.063  18.602   8.927 -0.3033 -0.3936 -0.0821
  643ERGO    C110199   6.208  18.525   8.583 -0.1806 -0.2904 -0.0539
  643ERGO    C210200   6.177  18.570   8.234  0.0321  0.0238  0.4341
  644ERGO   ROH10201   5.281   9.093   9.528  0.3074  0.1846  0.0447
  644ERGO    R110202   5.396   9.197   9.291  0.1558 -0.0753 -0.1507
  644ERGO    R210203   5.354   9.084   9.043 -0.3110 -0.1370 -0.0615
  644ERGO    R310204   5.275   9.335   8.977 -0.0603 -0.0570 -0.0584
  644ERGO    R410205   5.353   9.213   8.722  0.1407  0.0041 -0.0114
  644ERGO    R510206   5.427   9.401   8.803  0.1776 -0.0855  0.1420
  644ERGO    C110207   5.279   9.524   8.474  0.6391  0.1612  0.0206
  644ERGO    C210208   5.094   9.682   8.245  0.0817 -0.0291 -0.1031
  645ERGO   ROH10209  15.476  17.930   9.546  0.1417  0.1514 -0.1524
  645ERGO    R110210  15.410  17.736   9.350  0.3728  0.0569 -0.1394
  645ERGO    R210211  15.218  17.779   9.157  0.1387 -0.2743  0.0128
  645ERGO    R310212  15.420  17.712   8.987  0.1509  0.1496 -0.1543
  645ERGO    R410213  15.187  17.750   8.814 -0.1749 -0.6034  0.0627
  645ERGO    R510214  15.316  17.575   8.822  0.3244 -0.2659  0.0616
  645ERGO    C110215  15.359  17.671   8.455 -0.3461 -0.3972 -0.0650
  645ERGO    C210216  15.180  17.638   8.200  0.2482  0.2489 -0.1025
  646ERGO   ROH10217   1.556   3.542   9.162 -0.2055  0.0915  0.1160
  646ERGO    R110218   1.644   3.411   8.927 -0.0703  0.1082  0.1568
  646ERGO    R210219   1.473   3.345   8.721  0.0258  0.0094  0.1099
  646ERGO    R310220   1.652   3.483   8.570  0.0107  0.0756  0.1515
  646ERGO    R410221   1.463   3.369   8.376  0.0903  0.0140  0.1077
  646ERGO    R510222   1.680   3.349   8.374  0.0992  0.0892  0.1535
  646ERGO    C110223   1.625   3.513   8.034  0.1136  0.0789  0.1454
  646ERGO    C210224   1.567   3.556   7.617  0.0486  0.0459 -0.2280
  647ERGO   ROH10225  10.594   5.915   9.535  0.2987 -0.0401  0.0654
  647ERGO    R110226  10.534   5.847   9.267  0.1455 -0.0211  0.0939
  647ERGO    R210227  10.289   5.898   9.151  0.1240  0.1062  0.1988
  647ERGO    R310228  10.440   6.024   8.963  0.1103  0.0149  0.1252
  647ERGO    R410229  10.220   5.902   8.812  0.0291  0.0397  0.2168
  647ERGO    R510230  10.434   5.877   8.774  0.0137 -0.0333  0.1634
  647ERGO    C110231  10.321   6.022   8.439 -0.0390 -0.0848  0.1581
  647ERGO    C210232  10.394   5.978   8.049  0.0179  0.3516 -0.2204
  648ERGO   ROH10233  10.282   0.916   9.737 -0.3572 -0.1272  0.0551
  648ERGO    R110234  10.173   0.826   9.492 -0.1025 -0.1402 -0.0568
  648ERGO    R210235  10.095   0.999   9.291 -0.1030 -0.1391 -0.0549
  648ERGO    R310236  10.261   0.847   9.140  0.1389  0.0518  0.0120
  648ERGO    R410237  10.139   1.034   8.950 -0.3567 -0.3754 -0.1158
  648ERGO    R510238  10.144   0.817   8.933  0.0840 -0.3950  0.0975
  648ERGO    C110239  10.321   0.911   8.609 -0.2773 -0.3338 -0.0885
  648ERGO    C210240  10.451   0.838   8.264  0.0906 -0.2305 -0.2366
  649ERGO   ROH10241   2.534  19.055   9.115 -0.1727 -0.0399 -0.0863
  649ERGO    R110242   2.544  18.825   8.949 -0.0301 -0.0640 -0.0455
  649ERGO    R210243   2.427  18.817   8.699 -0.0285 -0.1824 -0.0414
  649ERGO    R310244   2.676  18.742   8.621  0.0179 -0.0406 -0.0329
  649ERGO    R410245   2.495  18.599   8.440  0.0989 -0.1379 -0.0459
  649ERGO    R510246   2.653  18.511   8.562  0.1457 -0.0545 -0.0402
  649ERGO    C110247   2.769  18.402   8.215  0.2166  0.0214 -0.0406
  649ERGO    C210248   2.901  18.321   7.932 -0.5010  0.2813  0.3917
  650ERGO   ROH10249  14.637   9.735   9.476  0.1380  0.0865 -0.0111
  650ERGO    R110250  14.755   9.856   9.249  0.2878 -0.0450 -0.0048
  650ERGO    R210251  14.935   9.723   9.086  0.0588 -0.2902 -0.0630
  650ERGO    R310252  14.760   9.795   8.890  0.1328  0.0211 -0.0191
  650ERGO    R410253  15.022   9.790   8.758  0.1569  0.0286  0.0249
  650ERGO    R510254  14.881   9.956   8.759  0.2444  0.1052  0.1814
  650ERGO    C110255  14.909   9.897   8.384  0.2836  0.5065  0.1172
  650ERGO    C210256  14.892   9.836   8.147 -0.2853  0.1014  0.0934
  651ERGO   ROH10257  10.089  16.245   9.856 -0.2504  0.1922 -0.0415
  651ERGO    R110258  10.049  16.329   9.588 -0.1280  0.1966 -0.0587
  651ERGO    R210259  10.251  16.440   9.435 -0.0561  0.1874  0.0326
  651ERGO    R310260  10.183  16.242   9.262  0.0118  0.1944 -0.0024
  651ERGO    R410261  10.315  16.444   9.096  0.3165  0.0912  0.0972
  651ERGO    R510262  10.118  16.357   9.062  0.2947  0.2015 -0.0979
  651ERGO    C110263  10.289  16.261   8.735  0.5973  0.0418  0.1019
  651ERGO    C210264  10.392  16.309   8.494 -0.2172 -0.2646  0.0339
  652ERGO   ROH10265  11.543   4.667   9.596  0.0442 -0.1345 -0.0963
  652ERGO    R110266  11.424   4.610   9.346  0.0667 -0.0324 -0.1309
  652ERGO    R210267  11.470   4.762   9.120  0.2057 -0.0297 -0.0997
  652ERGO    R310268  11.539   4.522   9.012  0.0906 -0.0553 -0.1172
  652ERGO    R410269  11.484   4.695   8.781  0.1915 -0.0028 -0.1057
  652ERGO    R510270  11.395   4.500   8.821  0.0890  0.0367 -0.1285
  652ERGO    C110271  11.556   4.431   8.482  0.0751 -0.0113 -0.1255
  652ERGO    C210272  11.562   4.276   8.241 -0.0350  0.0983  0.0899
  653ERGO   ROH10273   6.498  14.186   9.506 -0.1138 -0.2171 -0.2978
  653ERGO    R110274   6.546  14.338   9.273  0.1557 -0.1832 -0.2251
  653ERGO    R210275   6.698  14.244   9.062 -0.0622 -0.3872 -0.3053
  653ERGO    R310276   6.477  14.305   8.917  0.0220  0.1387 -0.2307
  653ERGO    R410277   6.681  14.234   8.717 -0.2360 -0.4380 -0.2947
  653ERGO    R510278   6.563  14.418   8.723  0.2300 -0.1294 -0.2951
  653ERGO    C110279   6.463  14.286   8.380 -0.2581  0.0261 -0.2186
  653ERGO    C210280   6.440  14.193   8.072  0.2872  0.2600 -0.0579
  654ERGO   ROH10281   6.742   2.210   9.502  0.0493 -0.0536  0.0282
  654ERGO    R110282   6.631   2.312   9.263  0.0982  0.0351  0.0423
  654ERGO    R210283   6.730   2.248   9.013  0.0828  0.0419  0.0330
  654ERGO    R310284   6.473   2.174   8.965  0.0555  0.1516  0.0108
  654ERGO    R410285   6.574   2.265   8.705  0.1520  0.0029 -0.0040
  654ERGO    R510286   6.394   2.334   8.806  0.1666  0.1308 -0.0659
  654ERGO    C110287   6.242   2.205   8.481  0.1667  0.0831 -0.0465
  654ERGO    C210288   6.263   2.146   8.242  0.1271  0.1216  0.0426
  655ERGO   ROH10289   7.682  18.054   9.451 -0.1788  0.0904 -0.1080
  655ERGO    R110290   7.561  17.945   9.219 -0.2859  0.1710 -0.0919
  655ERGO    R210291   7.474  18.102   9.009 -0.0522  0.2214 -0.1570
  655ERGO    R310292   7.633  17.938   8.862 -0.2381 -0.0340 -0.0794
  655ERGO    R410293   7.463  18.071   8.665 -0.0932  0.0651 -0.1416
  655ERGO    R510294   7.491  17.856   8.688 -0.3354  0.0411 -0.0357
  655ERGO    C110295   7.606  17.899   8.327 -0.2917 -0.2654 -0.0598
  655ERGO    C210296   7.630  17.838   8.008 -0.0415  0.3131  0.0582
  656ERGO   ROH10297   8.558   7.312   9.939 -0.1363 -0.2073  0.0505
  656ERGO    R110298   8.609   7.415   9.681 -0.0806 -0.0387  0.1270
  656ERGO    R210299   8.686   7.255   9.469  0.1302  0.1193  0.0771
  656ERGO    R310300   8.472   7.370   9.346  0.1084  0.0392  0.0390
  656ERGO    R410301   8.631   7.257   9.128  0.1578  0.0693  0.0719
  656ERGO    R510302   8.562   7.463   9.145  0.0942  0.0449  0.0398
  656ERGO    C110303   8.399   7.366   8.814  0.1536 -0.0351  0.0332
  656ERGO    C210304   8.279   7.409   8.514 -0.0659 -0.0766 -0.2534
  657ERGO   ROH10305   3.769   3.022   9.348 -0.2082  0.1238  0.1989
  657ERGO    R110306   3.601   3.148   9.159  0.0155  0.2908  0.1073
  657ERGO    R210307   3.698   3.314   8.960  0.3292 -0.0864 -0.0670
  657ERGO    R310308   3.561   3.146   8.797 -0.0402  0.0276  0.1134
  657ERGO    R410309   3.597   3.390   8.638  0.4224 -0.1803 -0.1192
  657ERGO    R510310   3.409   3.288   8.679  0.2184  0.2285  0.0122
  657ERGO    C110311   3.410   3.275   8.298  0.1299 -0.1279  0.0197
  657ERGO    C210312   3.352   3.032   7.977  0.0904 -0.3645 -0.4345
  658ERGO   ROH10313   5.608   8.297   9.283  0.1925 -0.3182 -0.0782
  658ERGO    R110314   5.563   8.189   9.026 -0.1406 -0.1259 -0.1071
  658ERGO    R210315   5.381   8.297   8.849 -0.0166  0.3153  0.0176
  658ERGO    R310316   5.595   8.304   8.682 -0.0691 -0.0386 -0.0709
  658ERGO    R410317   5.366   8.373   8.512 -0.0165  0.4198  0.0411
  658ERGO    R510318   5.512   8.215   8.475 -0.3175  0.1584 -0.0574
  658ERGO    C110319   5.559   8.424   8.159 -0.0656  0.1485 -0.0285
  658ERGO    C210320   5.629   8.661   7.929 -0.2070 -0.1400  0.1116
  659ERGO   ROH10321   0.280  15.279   9.311  0.1890 -0.2437 -0.2564
  659ERGO    R110322   0.272  15.322   9.031  0.2408 -0.0602 -0.2324
  659ERGO    R210323   0.043  15.405   8.900  0.1897 -0.2171 -0.2571
  659ERGO    R310324   0.205  15.602   8.809  0.0123  0.0255 -0.0572
  659ERGO    R410325   0.036  15.534   8.579  0.2965 -0.1143 -0.2175
  659ERGO    R510326   0.254  15.540   8.583  0.2840  0.1674 -0.0369
  659ERGO    C110327   0.185  15.795   8.307  0.1921  0.1732 -0.0067
  659ERGO    C210328   0.322  16.040   8.166  0.0630  0.0464  0.1469
  660ERGO   ROH10329  16.421  14.551   9.498  0.1285 -0.2063 -0.1253
  660ERGO    R110330  16.464  14.317   9.345  0.1683 -0.1324 -0.2292
  660ERGO    R210331  16.291  14.101   9.352  0.3436 -0.2741 -0.1196
  660ERGO    R310332  16.287  14.137   9.083  0.0563 -0.2005 -0.1075
  660ERGO    R410333  16.195  13.861   9.122  0.2420 -0.2591 -0.0925
  660ERGO    R510334  16.358  13.927   8.993  0.0796 -0.1367 -0.2378
  660ERGO    C110335  16.135  13.756   8.736 -0.0871 -0.1812 -0.0652
  660ERGO    C210336  16.109  13.542   8.552  0.0198  0.2256  0.0084
  661ERGO   ROH10337   9.692  18.803   9.846 -0.0562  0.0054  0.0197
  661ERGO    R110338   9.827  18.947   9.644  0.0811 -0.0401  0.0775
  661ERGO    R210339  10.072  18.868   9.543  0.0112 -0.2284  0.0487
  661ERGO    R310340   9.941  18.884   9.305  0.0249 -0.0149  0.0543
  661ERGO    R410341  10.224  18.855   9.233 -0.0065 -0.2975  0.0432
  661ERGO    R510342  10.088  19.011   9.165  0.1606 -0.1298  0.0919
  661ERGO    C110343  10.190  18.862   8.829 -0.0040 -0.1375  0.0451
  661ERGO    C210344  10.310  18.515   8.755 -0.1287 -0.0547  0.1164
  662ERGO   ROH10345  14.672  13.172   9.333 -0.0423 -0.1526  0.1533
  662ERGO    R110346  14.590  13.133   9.065  0.1468 -0.0773  0.0839
  662ERGO    R210347  14.770  13.090   8.859  0.2744 -0.4928  0.2784
  662ERGO    R310348  14.618  12.869   8.817 -0.1191 -0.2169  0.1969
  662ERGO    R410349  14.688  12.963   8.549  0.2640 -0.3685  0.2289
  662ERGO    R510350  14.487  12.923   8.623  0.1195  0.0168  0.0896
  662ERGO    C110351  14.496  12.682   8.328 -0.1115 -0.0371  0.1236
  662ERGO    C210352  14.546  12.625   8.095 -0.1369 -0.0358  0.1103
  663ERGO   ROH10353   4.283   9.404   9.782  0.0713  0.1934  0.0540
  663ERGO    R110354   4.360   9.288   9.535  0.1089  0.1272  0.0962
  663ERGO    R210355   4.180   9.239   9.331  0.0995 -0.1211  0.1580
  663ERGO    R310356   4.356   9.385   9.184 -0.0476 -0.0531  0.0467
  663ERGO    R410357   4.208   9.226   8.987 -0.0207 -0.2026  0.1508
  663ERGO    R510358   4.425   9.236   9.010 -0.0196 -0.0594  0.0653
  663ERGO    C110359   4.390   9.355   8.649 -0.2287 -0.1864  0.0422
  663ERGO    C210360   4.307   9.385   8.258 -0.0292 -0.1551 -0.0274
  664ERGO   ROH10361   2.921  17.878   9.344 -0.1748  0.0916  0.0510
  664ERGO    R110362   3.016  17.776   9.097 -0.0745  0.1281  0.0736
  664ERGO    R210363   3.038  17.505   9.046  0.0641  0.1354  0.0857
  664ERGO    R310364   2.885  17.567   8.830  0.0802  0.0574  0.0525
  664ERGO    R410365   3.072  17.362   8.734  0.1706  0.1131  0.1076
  664ERGO    R510366   3.038  17.558   8.645  0.1159  0.0916  0.0805
  664ERGO    C110367   2.949  17.336   8.348  0.2478  0.0270  0.0892
  664ERGO    C210368   2.805  17.253   8.089 -0.0220  0.1871  0.0391
  665ERGO   ROH10369  12.566   9.356   9.429 -0.2102 -0.1378 -0.1552
  665ERGO    R110370  12.528   9.220   9.184 -0.0299 -0.1310 -0.1898
  665ERGO    R210371  12.394   9.333   8.970 -0.1854 -0.2531 -0.1638
  665ERGO    R310372  12.622   9.269   8.836 -0.0955  0.0848 -0.1772
  665ERGO    R410373  12.436   9.364   8.629 -0.3528 -0.4550 -0.2042
  665ERGO    R510374  12.544   9.174   8.630  0.0270 -0.2450 -0.0748
  665ERGO    C110375  12.674   9.323   8.303 -0.3658 -0.2555 -0.2402
  665ERGO    C210376  12.770   9.219   8.052  0.0561 -0.1751 -0.1786
  666ERGO   ROH10377  18.047  10.123   9.366 -0.1851 -0.1337  0.1235
  666ERGO    R110378  18.085  10.002   9.113 -0.4120 -0.0689  0.0567
  666ERGO    R210379  17.909  10.037   8.903 -0.3205  0.4343  0.0535
  666ERGO    R310380  18.132  10.115   8.770 -0.1287  0.0401  0.1283
  666ERGO    R410381  17.961   9.998   8.564 -0.2986  0.3873  0.0616
  666ERGO    R510382  18.168   9.944   8.607 -0.4023 -0.0077  0.1125
  666ERGO    C110383  18.202  10.049   8.242 -0.1058 -0.0100  0.1365
  666ERGO    C210384  18.184  10.218   8.035 -0.0691  0.0203 -0.0770
  667ERGO   ROH10385  16.564   0.426   9.002  0.1751  0.0157 -0.0031
  667ERGO    R110386  16.481   0.278   8.776  0.0648  0.1887 -0.0776
  667ERGO    R210387  16.474   0.385   8.522  0.3096  0.2701 -0.0483
  667ERGO    R310388  16.629   0.169   8.462  0.0457  0.0761 -0.0495
  667ERGO    R410389  16.497   0.239   8.209  0.2201  0.3289 -0.0831
  667ERGO    R510390  16.497   0.043   8.306 -0.0756  0.2942 -0.1328
  667ERGO    C110391  16.655  -0.049   7.972 -0.0799  0.1811 -0.1045
  667ERGO    C210392  16.777  -0.159   7.785 -0.3229 -0.2119 -0.2138
  668ERGO   ROH10393  13.945  12.140   9.380 -0.1014  0.3325 -0.0065
  668ERGO    R110394  13.725  12.061   9.220 -0.0936  0.1912  0.0483
  668ERGO    R210395  13.522  12.235   9.151 -0.1623  0.1005 -0.0098
  668ERGO    R310396  13.584  12.157   8.898 -0.1525  0.0097  0.0214
  668ERGO    R410397  13.305  12.247   8.882 -0.1800 -0.1268 -0.0072
  668ERGO    R510398  13.384  12.055   8.817 -0.1048 -0.1155  0.0791
  668ERGO    C110399  13.238  12.182   8.488 -0.1810 -0.3445  0.0236
  668ERGO    C210400  13.088  12.176   8.130  0.0806 -0.1098 -0.1124
  669ERGO   ROH10401   3.591   8.640   9.783 -0.2433  0.0714  0.1176
  669ERGO    R110402   3.669   8.588   9.515 -0.0893 -0.0296  0.1800
  669ERGO    R210403   3.614   8.349   9.388 -0.2033 -0.0015  0.1704
  669ERGO    R310404   3.501   8.511   9.202  0.0727  0.0762  0.0663
  669ERGO    R410405   3.621   8.294   9.047  0.0540 -0.0094  0.1760
  669ERGO    R510406   3.654   8.507   9.018  0.2298 -0.0338  0.1988
  669ERGO    C110407   3.520   8.415   8.674  0.4630  0.0589  0.0815
  669ERGO    C210408   3.412   8.456   8.315 -0.0928  0.0626 -0.0532
  670ERGO   ROH10409   0.416   8.857   9.552  0.0895 -0.1958 -0.0555
  670ERGO    R110410   0.406   9.042   9.338 -0.1416 -0.2100 -0.0592
  670ERGO    R210411   0.628   9.107   9.187 -0.1937  0.1460  0.0114
  670ERGO    R310412   0.467   9.036   8.980 -0.0174 -0.1148 -0.0410
  670ERGO    R410413   0.639   9.248   8.872 -0.3480  0.2040  0.0307
  670ERGO    R510414   0.421   9.242   8.867 -0.3455 -0.1750 -0.0301
  670ERGO    C110415   0.495   9.264   8.494 -0.2723 -0.0070 -0.0073
  670ERGO    C210416   0.547   9.315   8.206  0.2080 -0.0559 -0.0024
  671ERGO   ROH10417   6.556   4.191   9.326  0.0224  0.0183 -0.0739
  671ERGO    R110418   6.678   4.192   9.071 -0.1490  0.0009 -0.1569
  671ERGO    R210419   6.905   4.044   9.014 -0.0037  0.2402 -0.2078
  671ERGO    R310420   6.751   3.946   8.813 -0.0231 -0.0830 -0.0424
  671ERGO    R410421   7.027   3.914   8.719 -0.0435  0.0161 -0.1277
  671ERGO    R510422   6.864   4.013   8.613 -0.1609 -0.2101 -0.1646
  671ERGO    C110423   6.953   3.745   8.357 -0.0850 -0.4178  0.0740
  671ERGO    C210424   7.128   3.586   8.042  0.0527 -0.2260 -0.0068
  672ERGO   ROH10425   7.015  13.294   9.230 -0.0275 -0.2155  0.0659
  672ERGO    R110426   6.830  13.380   9.033  0.0180 -0.0589  0.0905
  672ERGO    R210427   6.894  13.392   8.765  0.0792  0.1509  0.1110
  672ERGO    R310428   6.672  13.238   8.738  0.0837  0.1721 -0.0585
  672ERGO    R410429   6.728  13.334   8.467  0.2445  0.2379  0.0007
  672ERGO    R510430   6.539  13.352   8.574  0.1846  0.2214 -0.1046
  672ERGO    C110431   6.424  13.155   8.268  0.3448  0.3086 -0.2225
  672ERGO    C210432   6.165  12.990   8.204  0.3948  0.0319  0.0847
  673ERGO   ROH10433  17.104   9.506   9.579 -0.0143 -0.1679  0.0212
  673ERGO    R110434  17.213   9.514   9.318 -0.2055  0.1918 -0.0536
  673ERGO    R210435  17.345   9.299   9.205  0.3874  0.5861 -0.1579
  673ERGO    R310436  17.164   9.334   9.006  0.1269  0.0566 -0.0324
  673ERGO    R410437  17.410   9.255   8.869  0.2380  0.6430 -0.1952
  673ERGO    R510438  17.290   9.432   8.827 -0.2572  0.3299 -0.1667
  673ERGO    C110439  17.278   9.263   8.485 -0.0938  0.1790 -0.0990
  673ERGO    C210440  17.440   9.122   8.156  0.1153 -0.0751 -0.2500
  674loPI    C110441  10.846  14.947   4.936 -0.0050 -0.1189 -0.1630
  674loPI    C210442  10.538  15.193   4.869 -0.0745 -0.2287 -0.2509
  674loPI    C310443  10.779  15.088   4.567 -0.1362 -0.3889 -0.2454
  674loPI   PO410444  10.955  15.007   5.193 -0.0368 -0.0555  0.1844
  674loPI   GL110445  11.198  15.370   5.477 -0.0165  0.0849 -0.1542
  674loPI   GL210446  10.969  15.093   5.650  0.0283 -0.3217  0.0267
  674loPI   C1A10447  11.457  15.147   5.750  0.1884  0.0100  0.0893
  674loPI   C2A10448  11.615  14.811   6.041 -0.2393  0.1103 -0.3481
  674loPI   C3A10449  11.791  14.678   6.380  0.0980 -0.2677  0.1246
  674loPI   C4A10450  11.849  14.552   6.816 -0.0495  0.0957  0.2581
  674loPI   C5A10451  11.993  14.390   7.332  0.0053  0.2946  0.0903
  674loPI   C6A10452  12.155  14.525   7.767  0.1130  0.3214  0.0219
  674loPI   C1B10453  11.106  14.871   6.015 -0.2843  0.3157 -0.1814
  674loPI   C2B10454  11.239  14.880   6.426  0.4886 -0.0204 -0.0360
  674loPI   C3B10455  11.045  14.968   6.873 -0.0575 -0.0424  0.0290
  674loPI   C4B10456  10.869  15.140   7.314  0.0606  0.0863  0.1790
  675loPI    C110457  12.633  17.944   4.986  0.0904  0.0410 -0.0806
  675loPI    C210458  12.384  17.892   4.677 -0.0944  0.5325 -0.0229
  675loPI    C310459  12.780  17.873   4.621 -0.1327 -0.0328 -0.1577
  675loPI   PO410460  12.594  17.773   5.159  0.1847 -0.1733  0.1378
  675loPI   GL110461  12.433  17.625   5.450  0.2857  0.0258 -0.0698
  675loPI   GL210462  12.484  17.332   5.626 -0.0113 -0.2487 -0.1613
  675loPI   C1A10463  12.170  17.622   5.874 -0.0835  0.0428 -0.2626
  675loPI   C2A10464  12.095  17.649   6.360 -0.0311  0.3027  0.3780
  675loPI   C3A10465  12.100  17.804   6.722  0.1383  0.0611  0.1722
  675loPI   C4A10466  11.983  17.723   7.092  0.0381  0.3627  0.1401
  675loPI   C5A10467  12.264  17.467   7.436  0.1291  0.0510  0.4303
  675loPI   C6A10468  12.370  17.030   7.508 -0.0556  0.2982  0.1954
  675loPI   C1B10469  12.577  17.204   6.065  0.2272  0.1522  0.4957
  675loPI   C2B10470  12.955  17.312   6.238  0.0903  0.0570 -0.1598
  675loPI   C3B10471  12.934  17.201   6.714  0.2727 -0.2335  0.1544
  675loPI   C4B10472  12.718  17.207   7.107 -0.0517 -0.2663 -0.1037
  676loPI    C110473   4.481   8.364   4.637  0.0888 -0.1344  0.0732
  676loPI    C210474   4.451   8.705   4.844 -0.1558 -0.0696 -0.0659
  676loPI    C310475   4.557   8.714   4.458 -0.4590 -0.1209 -0.1536
  676loPI   PO410476   4.217   8.271   4.774 -0.0967 -0.2743  0.1870
  676loPI   GL110477   4.222   8.301   5.309  0.0483 -0.0583  0.0027
  676loPI   GL210478   4.287   8.038   5.455 -0.1544 -0.2684  0.0622
  676loPI   C1A10479   4.139   8.550   5.719  0.1049  0.1617  0.1987
  676loPI   C2A10480   4.175   8.846   6.072  0.1425  0.1793  0.2003
  676loPI   C3A10481   4.032   9.035   6.470 -0.1675  0.2096 -0.0884
  676loPI   C4A10482   4.121   9.097   6.872 -0.0117 -0.0146  0.2850
  676loPI   C5A10483   4.410   9.244   7.201  0.0677 -0.0643  0.2824
  676loPI   C6A10484   4.489   9.386   7.541 -0.2105 -0.0610 -0.1874
  676loPI   C1B10485   3.941   7.749   5.680 -0.3137  0.0850 -0.4410
  676loPI   C2B10486   3.877   7.866   6.052 -0.3674  0.3136 -0.1468
  676loPI   C3B10487   3.951   8.332   6.157  0.2997 -0.0576 -0.0971
  676loPI   C4B10488   4.174   8.559   6.473  0.1819  0.0822 -0.5028
  677loPI    C110489  12.184   2.305   4.811  0.3471  0.1797  0.0745
  677loPI    C210490  11.921   2.607   4.808  0.0405 -0.0825 -0.0898
  677loPI    C310491  12.182   2.565   4.507 -0.2148 -0.2314 -0.2949
  677loPI   PO410492  12.332   2.223   5.066 -0.1747  0.0298  0.1856
  677loPI   GL110493  12.298   2.187   5.488  0.1810 -0.1653  0.1130
  677loPI   GL210494  12.509   2.358   5.604 -0.4040  0.0924  0.0647
  677loPI   C1A10495  12.345   1.958   5.861  0.1231  0.1862  0.0393
  677loPI   C2A10496  12.514   1.999   6.222  0.0264 -0.0801  0.2923
  677loPI   C3A10497  12.640   2.236   6.589 -0.2738  0.1059  0.2108
  677loPI   C4A10498  12.994   2.073   6.729  0.0818 -0.1164  0.2150
  677loPI   C5A10499  13.456   2.127   6.931  0.3504  0.0038  0.0412
  677loPI   C6A10500  13.573   2.207   7.347  0.3314 -0.2744 -0.0173
  677loPI   C1B10501  12.405   2.740   5.827 -0.0316 -0.3433  0.1397
  677loPI   C2B10502  12.128   2.909   6.035  0.1544  0.1409  0.0857
  677loPI   C3B10503  11.985   2.999   6.351  0.0047 -0.0950  0.2764
  677loPI   C4B10504  12.052   3.197   6.751  0.0440 -0.0419  0.2955
  678loPI    C110505  16.141  17.080   4.664 -0.0043  0.1274  0.0570
  678loPI    C210506  16.425  17.358   4.710  0.0970  0.0271  0.0430
  678loPI    C310507  16.437  17.110   4.396  0.1192 -0.1242  0.1621
  678loPI   PO410508  15.861  17.175   4.822  0.1032 -0.1036  0.1221
  678loPI   GL110509  15.718  17.131   5.254 -0.0100 -0.1971 -0.2788
  678loPI   GL210510  15.789  16.791   5.174 -0.1799  0.0526 -0.0410
  678loPI   C1A10511  15.585  17.122   5.665 -0.0126 -0.0263 -0.1732
  678loPI   C2A10512  15.353  17.322   5.931  0.3092  0.0910  0.0401
  678loPI   C3A10513  15.289  17.493   6.290  0.0808  0.0960  0.0249
  678loPI   C4A10514  15.254  17.379   6.691  0.0604  0.0110  0.1467
  678loPI   C5A10515  15.436  17.235   7.030 -0.0569  0.0151 -0.1316
  678loPI   C6A10516  15.739  16.906   7.243 -0.0983  0.0899  0.2848
  678loPI   C1B10517  15.959  16.443   5.481 -0.0094  0.2040  0.1399
  678loPI   C2B10518  15.807  16.051   5.664 -0.1727 -0.1362 -0.1760
  678loPI   C3B10519  15.699  15.967   6.124 -0.0838 -0.1208  0.1538
  678loPI   C4B10520  15.559  15.980   6.615  0.0041  0.0449  0.0092
  679loPI    C110521   6.525   4.636   4.888  0.1016 -0.2932  0.1911
  679loPI    C210522   6.542   4.508   4.510  0.0005 -0.2433  0.1693
  679loPI    C310523   6.868   4.662   4.684  0.0381 -0.2343  0.0915
  679loPI   PO410524   6.325   4.441   5.019 -0.1066  0.1225  0.3248
  679loPI   GL110525   5.978   4.273   5.269 -0.0259 -0.0877  0.2158
  679loPI   GL210526   5.625   4.447   5.285  0.2189 -0.0720 -0.0372
  679loPI   C1A10527   6.099   4.221   5.635 -0.1694 -0.0762  0.0004
  679loPI   C2A10528   5.860   4.250   6.006  0.0435  0.1671 -0.0878
  679loPI   C3A10529   5.893   4.057   6.415  0.1738 -0.0901 -0.2532
  679loPI   C4A10530   5.923   3.979   6.888  0.0486  0.0869  0.0507
  679loPI   C5A10531   5.731   3.834   7.241 -0.1696 -0.2380 -0.2504
  679loPI   C6A10532   5.926   3.546   7.520  0.2428  0.1016  0.2408
  679loPI   C1B10533   5.803   4.710   5.619  0.0054 -0.1336  0.3251
  679loPI   C2B10534   5.932   4.798   6.038  0.1486  0.1774 -0.0517
  679loPI   C3B10535   6.070   4.877   6.500 -0.1503 -0.0239 -0.0980
  679loPI   C4B10536   6.281   4.644   6.835 -0.2018 -0.0672  0.0436
  680loPI    C110537   3.125  16.231   4.883  0.0070 -0.3426 -0.1121
  680loPI    C210538   3.330  16.480   4.647  0.1399 -0.1144  0.2351
  680loPI    C310539   2.948  16.396   4.564  0.1404  0.0799  0.0253
  680loPI   PO410540   3.217  16.270   5.093 -0.1264  0.0511  0.1555
  680loPI   GL110541   3.215  16.399   5.512 -0.0602  0.1097 -0.2716
  680loPI   GL210542   3.287  16.124   5.600  0.0393 -0.2185  0.1343
  680loPI   C1A10543   3.382  16.530   5.845 -0.2714  0.1017 -0.1123
  680loPI   C2A10544   3.431  16.533   6.253  0.1998 -0.1699 -0.2715
  680loPI   C3A10545   3.494  16.390   6.649 -0.2429  0.4649  0.1935
  680loPI   C4A10546   3.375  16.463   6.972  0.1814  0.0007 -0.0456
  680loPI   C5A10547   3.442  16.451   7.416  0.1839  0.0427  0.1005
  680loPI   C6A10548   3.598  16.757   7.741  0.3418  0.1580 -0.1613
  680loPI   C1B10549   3.335  16.033   6.075 -0.1740  0.1506 -0.1114
  680loPI   C2B10550   3.445  15.901   6.462 -0.0194 -0.0824  0.1418
  680loPI   C3B10551   3.387  15.931   6.816 -0.1354 -0.1430 -0.1758
  680loPI   C4B10552   3.429  15.937   7.207 -0.0423  0.1491  0.3206
  681loPI    C110553   0.814  12.202   4.849  0.2469 -0.0123 -0.0141
  681loPI    C210554   0.743  11.891   4.607 -0.0047  0.0861 -0.0697
  681loPI    C310555   0.713  12.265   4.467 -0.1153  0.1433  0.1027
  681loPI   PO410556   0.626  12.123   5.124  0.0778 -0.3048  0.1067
  681loPI   GL110557   0.571  12.350   5.448 -0.0938 -0.0433  0.1466
  681loPI   GL210558   0.234  12.408   5.279 -0.1927 -0.2808  0.0683
  681loPI   C1A10559   0.578  12.638   5.786 -0.1021  0.2606  0.0724
  681loPI   C2A10560   0.545  12.813   6.206  0.1287 -0.0895  0.0058
  681loPI   C3A10561   0.358  12.879   6.624  0.1418 -0.2381 -0.0291
  681loPI   C4A10562   0.028  12.914   6.975  0.2300 -0.2213 -0.3068
  681loPI   C5A10563  -0.339  12.870   7.061 -0.0541 -0.1727  0.3745
  681loPI   C6A10564  -0.671  12.772   7.374  0.1283 -0.3078  0.0123
  681loPI   C1B10565   0.105  12.190   5.689  0.1433 -0.0813 -0.1380
  681loPI   C2B10566   0.365  12.149   6.045 -0.0465 -0.3115 -0.0871
  681loPI   C3B10567   0.272  12.028   6.469 -0.1032  0.1868  0.1061
  681loPI   C4B10568   0.427  12.313   6.687  0.2425  0.0203  0.2241
  682loPI    C110569   3.570   1.265   4.838  0.3325  0.2212 -0.1696
  682loPI    C210570   3.226   1.289   4.636  0.1237 -0.2390  0.1152
  682loPI    C310571   3.556   1.158   4.453  0.0755 -0.1007 -0.0749
  682loPI   PO410572   3.654   1.539   4.938 -0.0898  0.2199  0.4496
  682loPI   GL110573   3.609   1.635   5.398 -0.2764  0.0167  0.2505
  682loPI   GL210574   3.985   1.669   5.320  0.0979  0.1857  0.3994
  682loPI   C1A10575   3.317   1.875   5.546 -0.1098  0.1332 -0.1309
  682loPI   C2A10576   3.227   2.198   5.950 -0.1225 -0.0400 -0.0325
  682loPI   C3A10577   3.102   2.314   6.343  0.3558 -0.1397 -0.0400
  682loPI   C4A10578   3.068   2.440   6.752 -0.1715 -0.3643  0.1213
  682loPI   C5A10579   3.145   2.476   7.128  0.1528 -0.0764 -0.1524
  682loPI   C6A10580   3.345   2.694   7.518  0.3227 -0.0188  0.1271
  682loPI   C1B10581   4.006   1.504   5.729  0.0569  0.0714 -0.0204
  682loPI   C2B10582   3.670   1.471   6.079  0.1686  0.0370  0.0208
  682loPI   C3B10583   3.646   1.458   6.534 -0.0528 -0.0300  0.1114
  682loPI   C4B10584   3.388   1.504   6.888 -0.1371 -0.0719  0.1963
  683loPI    C110585   7.973  18.424   4.688 -0.2234 -0.1114 -0.1746
  683loPI    C210586   7.789  18.761   4.575  0.0327  0.0300 -0.1791
  683loPI    C310587   8.095  18.619   4.361  0.0252 -0.1224 -0.0904
  683loPI   PO410588   8.013  18.356   4.937 -0.2833 -0.2877  0.5332
  683loPI   GL110589   8.007  18.585   5.405 -0.0440  0.1015  0.1339
  683loPI   GL210590   8.067  18.290   5.436  0.0287 -0.0625  0.3031
  683loPI   C1A10591   7.601  18.237   5.639  0.0286 -0.2094  0.0211
  683loPI   C2A10592   7.578  18.209   6.063 -0.1182 -0.0232  0.0366
  683loPI   C3A10593   7.675  18.066   6.473 -0.0228 -0.0934  0.4122
  683loPI   C4A10594   7.624  18.023   6.864  0.3460 -0.1614 -0.1095
  683loPI   C5A10595   7.582  18.087   7.154  0.3501  0.0076 -0.2093
  683loPI   C6A10596   7.798  18.000   7.589  0.0830  0.1112 -0.0791
  683loPI   C1B10597   8.120  18.395   5.794  0.1810  0.0983 -0.0148
  683loPI   C2B10598   8.097  18.214   6.207 -0.2100  0.0131 -0.0504
  683loPI   C3B10599   8.125  18.250   6.722  0.1084 -0.0397 -0.2202
  683loPI   C4B10600   8.140  18.135   7.151  0.1478 -0.1746  0.0161
  684loPI    C110601  14.149  18.143   4.798 -0.4679 -0.0163 -0.0669
  684loPI    C210602  14.032  17.818   4.596  0.1318 -0.2139 -0.1159
  684loPI    C310603  14.200  18.125   4.401 -0.4048  0.1256 -0.0659
  684loPI   PO410604  14.108  18.063   5.025 -0.0942 -0.0454  0.1622
  684loPI   GL110605  13.960  18.246   5.459  0.2293  0.0076  0.1921
  684loPI   GL210606  14.220  18.172   5.541  0.0865  0.1833  0.0319
  684loPI   C1A10607  13.870  18.457   5.788  0.0420 -0.2045 -0.1216
  684loPI   C2A10608  13.762  18.745   6.038 -0.0906  0.1591  0.1088
  684loPI   C3A10609  14.017  18.983   6.385  0.0862  0.0494  0.2808
  684loPI   C4A10610  14.130  19.002   6.740  0.0771 -0.2341  0.0544
  684loPI   C5A10611  13.877  18.901   7.157  0.1190 -0.1990  0.0380
  684loPI   C6A10612  13.593  18.912   7.498 -0.1230  0.0553  0.1353
  684loPI   C1B10613  14.295  18.107   5.898 -0.0244  0.0911  0.0416
  684loPI   C2B10614  14.346  18.027   6.363 -0.1530  0.0371 -0.1198
  684loPI   C3B10615  14.298  17.858   6.706 -0.2094  0.2290  0.2042
  684loPI   C4B10616  14.051  17.879   7.123  0.0748  0.3368 -0.3414
  685loPI    C110617  19.033  17.480   4.667  0.1158  0.0115  0.0839
  685loPI    C210618  19.157  17.859   4.635 -0.2014  0.0951 -0.2178
  685loPI    C310619  19.424  17.561   4.635  0.0472  0.3125 -0.0320
  685loPI   PO410620  18.879  17.568   4.905  0.1951 -0.0169  0.0417
  685loPI   GL110621  18.882  17.549   5.324 -0.2591  0.0367  0.0523
  685loPI   GL210622  19.191  17.669   5.482  0.2163  0.0427  0.0359
  685loPI   C1A10623  19.144  17.129   5.561 -0.3809 -0.3105 -0.1137
  685loPI   C2A10624  19.411  16.842   5.841 -0.1344 -0.1651 -0.3842
  685loPI   C3A10625  19.698  16.553   5.970  0.0344  0.1708 -0.1296
  685loPI   C4A10626  19.816  16.399   6.304  0.2480  0.1804  0.0138
  685loPI   C5A10627  19.868  16.372   6.734 -0.1338 -0.0379  0.1935
  685loPI   C6A10628  19.948  16.156   7.089  0.2777 -0.0325 -0.0135
  685loPI   C1B10629  19.518  17.406   5.678  0.0473 -0.2630 -0.0254
  685loPI   C2B10630  19.704  17.256   6.083 -0.2136 -0.0584  0.2191
  685loPI   C3B10631  19.817  17.326   6.520  0.3624 -0.1574  0.1476
  685loPI   C4B10632  19.865  16.955   6.795 -0.1281 -0.0585 -0.0887
  686loPI    C110633  13.169   8.178   4.599 -0.2394  0.4030  0.1059
  686loPI    C210634  12.864   8.338   4.396 -0.0040  0.2173 -0.4115
  686loPI    C310635  12.957   7.952   4.346  0.0507  0.1612  0.0725
  686loPI   PO410636  13.170   8.279   4.838 -0.0514 -0.1978  0.0507
  686loPI   GL110637  12.830   8.256   5.225  0.0051  0.1212  0.2601
  686loPI   GL210638  13.040   8.027   5.354  0.1234 -0.2440  0.0355
  686loPI   C1A10639  12.965   8.602   5.555  0.1830  0.1085  0.0154
  686loPI   C2A10640  12.772   8.611   5.936  0.1682  0.0570  0.0890
  686loPI   C3A10641  12.798   8.641   6.301  0.0008 -0.2250 -0.0212
  686loPI   C4A10642  12.780   8.294   6.610 -0.0698 -0.1105 -0.2288
  686loPI   C5A10643  12.614   8.146   6.891 -0.3460  0.0041 -0.2880
  686loPI   C6A10644  12.320   8.181   7.294 -0.1614  0.0416 -0.1292
  686loPI   C1B10645  13.020   8.072   5.818 -0.0925 -0.1568  0.0707
  686loPI   C2B10646  13.001   7.980   6.287 -0.0505  0.4300  0.0708
  686loPI   C3B10647  12.996   7.773   6.720 -0.0765 -0.0610 -0.0292
  686loPI   C4B10648  12.890   7.772   7.140 -0.2841 -0.0461  0.3425
  687loPI    C110649   7.268  12.029   4.858  0.1269 -0.0676  0.0778
  687loPI    C210650   7.286  11.670   5.032  0.0013 -0.0984  0.0282
  687loPI    C310651   7.283  11.699   4.633  0.0688 -0.0393  0.0318
  687loPI   PO410652   7.124  12.164   5.172  0.1031 -0.3521  0.1019
  687loPI   GL110653   6.744  12.055   5.434 -0.1903  0.0551  0.3002
  687loPI   GL210654   6.408  11.778   5.314  0.3180 -0.0047 -0.3201
  687loPI   C1A10655   6.706  12.128   5.896 -0.1230  0.1762 -0.2476
  687loPI   C2A10656   6.923  12.277   6.196 -0.0912 -0.0348  0.1531
  687loPI   C3A10657   7.030  12.541   6.504  0.0043  0.2164  0.1640
  687loPI   C4A10658   6.910  12.918   6.940 -0.1715 -0.3355  0.1388
  687loPI   C5A10659   6.778  12.872   7.351 -0.0009  0.2319 -0.1860
  687loPI   C6A10660   6.602  12.962   7.731  0.1520 -0.0162 -0.1886
  687loPI   C1B10661   6.471  11.616   5.679 -0.3286  0.2112  0.3041
  687loPI   C2B10662   6.306  11.738   6.132 -0.2120 -0.1311  0.0079
  687loPI   C3B10663   6.194  11.697   6.586  0.1463  0.0427  0.2219
  687loPI   C4B10664   6.542  11.672   6.839 -0.0315 -0.0264 -0.0569
  688loPI    C110665  13.499   6.803   4.994  0.0602 -0.1572  0.1107
  688loPI    C210666  13.281   6.774   4.660 -0.1495 -0.0280  0.2338
  688loPI    C310667  13.654   6.630   4.669 -0.1637 -0.0868 -0.0359
  688loPI   PO410668  13.450   7.011   5.086  0.2817  0.3073 -0.0684
  688loPI   GL110669  13.273   7.224   5.351  0.1511  0.0847  0.0704
  688loPI   GL210670  13.117   7.502   5.177  0.1028  0.1265 -0.2078
  688loPI   C1A10671  13.345   7.078   5.834  0.0971 -0.1129  0.2018
  688loPI   C2A10672  13.477   6.995   6.225  0.0045  0.1665  0.1729
  688loPI   C3A10673  13.572   7.038   6.650 -0.0538 -0.0375  0.4486
  688loPI   C4A10674  13.507   6.994   7.156  0.3079 -0.0765 -0.4143
  688loPI   C5A10675  13.764   7.053   7.467 -0.2879 -0.0042  0.0831
  688loPI   C6A10676  13.972   7.199   7.832 -0.0472 -0.2291  0.1299
  688loPI   C1B10677  12.989   7.510   5.616  0.0472  0.0345  0.2152
  688loPI   C2B10678  13.121   7.531   5.985  0.3379 -0.0623  0.0663
  688loPI   C3B10679  13.236   7.404   6.456  0.0868  0.1216 -0.2951
  688loPI   C4B10680  13.323   7.452   6.956 -0.2050 -0.1018 -0.0708
  689loPI    C110681   1.771   5.324   4.734  0.0976  0.1416 -0.2110
  689loPI    C210682   2.009   5.402   4.422  0.1292  0.0510 -0.2099
  689loPI    C310683   1.632   5.284   4.361  0.2025 -0.1836 -0.2186
  689loPI   PO410684   2.017   5.410   4.943  0.0950 -0.0687 -0.0827
  689loPI   GL110685   1.925   5.628   5.382  0.0989 -0.0002 -0.0772
  689loPI   GL210686   2.140   5.354   5.440 -0.2769  0.0402  0.2604
  689loPI   C1A10687   1.681   5.628   5.732 -0.2026  0.0328 -0.0214
  689loPI   C2A10688   1.656   5.657   6.209 -0.2741 -0.2908  0.4650
  689loPI   C3A10689   1.729   5.699   6.565 -0.2017 -0.2691  0.2179
  689loPI   C4A10690   1.765   5.800   7.010 -0.1269  0.0608 -0.3306
  689loPI   C5A10691   2.052   5.488   7.217  0.2820 -0.0669 -0.1312
  689loPI   C6A10692   2.252   5.247   7.579  0.1837  0.2608 -0.1210
  689loPI   C1B10693   2.079   5.320   5.884 -0.1413  0.0499 -0.1575
  689loPI   C2B10694   2.149   5.479   6.252  0.1525 -0.2380  0.0894
  689loPI   C3B10695   2.199   5.495   6.701  0.2581  0.1293 -0.0616
  689loPI   C4B10696   2.328   5.852   7.031  0.0035 -0.2047  0.1572
  690loPI    C110697   8.230  13.615   4.847 -0.0294 -0.1289  0.1795
  690loPI    C210698   7.863  13.696   4.711  0.0022 -0.0603  0.1348
  690loPI    C310699   8.046  13.358   4.603  0.0011 -0.0368  0.0584
  690loPI   PO410700   8.171  13.803   5.101 -0.5331  0.1749 -0.4483
  690loPI   GL110701   8.315  13.866   5.455 -0.1527  0.0243 -0.0258
  690loPI   GL210702   8.029  14.125   5.441  0.0448 -0.0011 -0.0357
  690loPI   C1A10703   8.451  14.161   5.780  0.3449  0.0528 -0.0255
  690loPI   C2A10704   8.449  14.279   6.222 -0.2839  0.2641 -0.3397
  690loPI   C3A10705   8.341  14.198   6.737 -0.2739 -0.0457 -0.2144
  690loPI   C4A10706   8.651  14.380   6.978  0.0486 -0.0794 -0.3582
  690loPI   C5A10707   8.902  14.329   7.265  0.2358  0.0573  0.0225
  690loPI   C6A10708   9.088  14.361   7.616  0.0219  0.1737  0.2967
  690loPI   C1B10709   7.907  14.183   5.936 -0.1952  0.0767  0.1166
  690loPI   C2B10710   7.576  14.454   6.183 -0.2196 -0.0052 -0.1872
  690loPI   C3B10711   7.160  14.502   6.363  0.0597 -0.3947  0.1474
  690loPI   C4B10712   6.790  14.358   6.524  0.1947  0.1293 -0.2123
  691loPI    C110713   1.650  14.155   5.089  0.0589  0.0410  0.1291
  691loPI    C210714   1.617  14.554   5.087  0.2751  0.0602  0.0811
  691loPI    C310715   1.542  14.345   4.754 -0.0675  0.0387  0.1681
  691loPI   PO410716   1.462  14.136   5.300  0.1989  0.1360 -0.2360
  691loPI   GL110717   1.555  14.390   5.721 -0.0839 -0.0198  0.2759
  691loPI   GL210718   1.409  14.179   5.823  0.0317  0.1167  0.0457
  691loPI   C1A10719   1.890  14.184   6.044 -0.1334 -0.0974 -0.0144
  691loPI   C2A10720   1.973  14.010   6.407  0.3491  0.0374  0.0298
  691loPI   C3A10721   1.881  14.069   6.842 -0.0497  0.1358 -0.4060
  691loPI   C4A10722   1.805  14.087   7.333  0.1629  0.1189 -0.1152
  691loPI   C5A10723   1.622  14.371   7.604 -0.1772 -0.2027  0.1777
  691loPI   C6A10724   1.794  14.803   7.743 -0.0411  0.2078 -0.0059
  691loPI   C1B10725   1.341  14.370   6.212  0.2576 -0.0044 -0.1547
  691loPI   C2B10726   1.520  14.347   6.576 -0.3260  0.0529  0.4866
  691loPI   C3B10727   1.445  14.310   7.015 -0.2771  0.1153  0.0775
  691loPI   C4B10728   1.265  14.119   7.415  0.0089  0.1906 -0.1112
  692loPI    C110729  14.437  10.728   4.682 -0.0378 -0.1167 -0.3675
  692loPI    C210730  14.106  10.509   4.631 -0.1551 -0.0126 -0.0779
  692loPI    C310731  14.198  10.796   4.368 -0.2474 -0.0995 -0.2065
  692loPI   PO410732  14.424  10.875   4.998  0.0206 -0.2860 -0.0658
  692loPI   GL110733  14.515  10.695   5.436  0.0677  0.0213 -0.3412
  692loPI   GL210734  14.329  10.973   5.476  0.2061  0.0603  0.0158
  692loPI   C1A10735  14.288  10.422   5.792  0.0707 -0.0752 -0.0329
  692loPI   C2A10736  14.313  10.015   5.920 -0.1399 -0.1846  0.2507
  692loPI   C3A10737  14.274   9.912   6.361  0.3056 -0.0480  0.0237
  692loPI   C4A10738  14.276   9.673   6.741  0.2578  0.0017 -0.2324
  692loPI   C5A10739  14.414   9.395   6.876 -0.0693 -0.1179 -0.2301
  692loPI   C6A10740  14.587   9.115   7.142 -0.0594 -0.2090  0.0001
  692loPI   C1B10741  14.436  10.910   5.922  0.1588 -0.0720  0.1359
  692loPI   C2B10742  14.358  10.813   6.324  0.3149 -0.2879 -0.0163
  692loPI   C3B10743  14.343  10.446   6.495  0.1578  0.3827 -0.2473
  692loPI   C4B10744  14.540  10.070   6.725 -0.0384 -0.0355 -0.1817
  693loPI    C110745   1.294  12.137   4.901 -0.1128  0.1916  0.3319
  693loPI    C210746   1.218  11.864   4.618  0.2434  0.1053  0.3153
  693loPI    C310747   1.215  12.254   4.527  0.2654  0.0819  0.2134
  693loPI   PO410748   1.375  11.960   5.071 -0.0346 -0.2741  0.0974
  693loPI   GL110749   1.532  12.010   5.391  0.1176 -0.0253  0.1373
  693loPI   GL210750   1.692  12.267   5.602  0.0011 -0.1171  0.0230
  693loPI   C1A10751   1.443  11.858   5.813 -0.3314 -0.0579 -0.0963
  693loPI   C2A10752   1.160  11.671   6.072 -0.0125  0.0932 -0.0544
  693loPI   C3A10753   1.117  11.426   6.456 -0.1774 -0.2386 -0.0377
  693loPI   C4A10754   1.248  11.448   6.763 -0.3088 -0.2231  0.1790
  693loPI   C5A10755   1.014  11.291   7.172 -0.1464  0.0761  0.1704
  693loPI   C6A10756   0.593  11.092   7.271  0.2641  0.1461 -0.1735
  693loPI   C1B10757   1.486  12.353   5.984 -0.0845  0.0385  0.1242
  693loPI   C2B10758   1.368  12.107   6.230  0.0072 -0.2341  0.2186
  693loPI   C3B10759   1.198  11.928   6.537  0.1058 -0.0665 -0.1848
  693loPI   C4B10760   0.996  11.843   6.998 -0.1791  0.1762  0.3446
  694loPI    C110761  17.759   8.111   4.294  0.0356 -0.0033  0.0938
  694loPI    C210762  17.778   7.713   4.257 -0.0178 -0.0145  0.1846
  694loPI    C310763  17.775   7.945   3.931 -0.1087 -0.0942  0.1283
  694loPI   PO410764  17.872   8.181   4.470 -0.0076 -0.0926  0.0946
  694loPI   GL110765  17.870   8.279   4.870 -0.1301 -0.2526 -0.0116
  694loPI   GL210766  18.162   8.261   5.015 -0.2468 -0.0285  0.1936
  694loPI   C1A10767  17.717   8.164   5.306  0.2344  0.0436 -0.0744
  694loPI   C2A10768  17.593   7.868   5.636  0.0793  0.1699  0.1596
  694loPI   C3A10769  17.533   7.789   6.094  0.0569  0.2324  0.1642
  694loPI   C4A10770  17.603   7.752   6.590  0.0288 -0.2057  0.0851
  694loPI   C5A10771  17.811   7.960   6.892  0.1486  0.1098  0.0025
  694loPI   C6A10772  17.764   7.961   7.297 -0.1085 -0.0547 -0.2740
  694loPI   C1B10773  18.051   8.509   5.397 -0.0221 -0.1385 -0.0170
  694loPI   C2B10774  17.845   8.667   5.611 -0.1209  0.1369 -0.0598
  694loPI   C3B10775  17.928   8.490   6.029 -0.3651  0.1177  0.1893
  694loPI   C4B10776  17.888   8.701   6.483  0.1204  0.2996  0.0446
  695loPI    C110777   8.773  18.199   4.747 -0.0555 -0.1410  0.2271
  695loPI    C210778   8.822  18.278   4.358 -0.0151 -0.1990  0.2201
  695loPI    C310779   9.034  18.479   4.631 -0.0274 -0.1737  0.2112
  695loPI   PO410780   8.856  18.017   4.776  0.1768  0.1983 -0.1237
  695loPI   GL110781   8.968  17.913   5.160 -0.2615 -0.0440 -0.4677
  695loPI   GL210782   9.073  17.992   5.390  0.1534  0.0662  0.1802
  695loPI   C1A10783   8.819  17.640   5.574 -0.1899 -0.2188 -0.0276
  695loPI   C2A10784   8.913  17.555   6.004 -0.0225 -0.0110  0.1790
  695loPI   C3A10785   8.876  17.586   6.429 -0.0635 -0.1238 -0.0161
  695loPI   C4A10786   8.935  17.547   6.762  0.1205 -0.1004  0.0560
  695loPI   C5A10787   8.968  17.410   7.243 -0.2933  0.1920 -0.0054
  695loPI   C6A10788   9.088  17.555   7.582 -0.1018  0.0582  0.1482
  695loPI   C1B10789   9.027  18.109   5.801 -0.0758 -0.0889 -0.1839
  695loPI   C2B10790   9.014  18.021   6.144  0.0556  0.0267 -0.0651
  695loPI   C3B10791   8.994  18.053   6.616  0.3599  0.0283 -0.2664
  695loPI   C4B10792   8.998  18.029   7.089 -0.0731  0.1406 -0.0924
  696loPI    C110793  16.369  14.617   4.620 -0.0975 -0.0163  0.0860
  696loPI    C210794  16.557  14.352   4.385 -0.1397 -0.3131  0.3797
  696loPI    C310795  16.671  14.735   4.385 -0.1040 -0.3180 -0.0805
  696loPI   PO410796  16.459  14.449   4.854  0.0239  0.2035 -0.0044
  696loPI   GL110797  16.598  14.464   5.218 -0.2208  0.1031  0.1979
  696loPI   GL210798  16.681  14.732   5.474 -0.2407  0.2983  0.3061
  696loPI   C1A10799  16.351  14.316   5.580  0.3834  0.2723 -0.2556
  696loPI   C2A10800  16.193  14.408   5.950 -0.1996 -0.1602  0.0326
  696loPI   C3A10801  16.039  14.346   6.397  0.0399 -0.0001  0.2628
  696loPI   C4A10802  16.068  14.247   6.875  0.0544  0.5653 -0.2182
  696loPI   C5A10803  16.059  14.091   7.172  0.2092 -0.2989  0.1537
  696loPI   C6A10804  15.791  13.952   7.527  0.0052  0.0532  0.1093
  696loPI   C1B10805  16.632  14.824   5.956  0.2443 -0.0319 -0.0606
  696loPI   C2B10806  16.676  14.809   6.374 -0.2154 -0.0678 -0.2714
  696loPI   C3B10807  16.603  15.074   6.815  0.3991  0.1753  0.0500
  696loPI   C4B10808  16.167  15.171   6.963  0.0151  0.2131  0.3126
  697loPI    C110809  12.520   4.738   4.854  0.0760 -0.0792  0.2934
  697loPI    C210810  12.877   4.752   4.674  0.0028 -0.1077  0.1443
  697loPI    C310811  12.547   4.856   4.473 -0.0649 -0.0068  0.3052
  697loPI   PO410812  12.593   4.706   5.095  0.0056 -0.0214 -0.1558
  697loPI   GL110813  12.534   5.035   5.420  0.1807 -0.3103 -0.0688
  697loPI   GL210814  12.275   4.749   5.525  0.0071  0.2413 -0.0124
  697loPI   C1A10815  12.466   5.110   5.912 -0.0214 -0.1051 -0.1794
  697loPI   C2A10816  12.582   5.241   6.292  0.0694  0.1477  0.0263
  697loPI   C3A10817  12.590   5.107   6.650  0.2509  0.1931  0.1789
  697loPI   C4A10818  12.513   5.027   7.063 -0.0476 -0.0722 -0.2725
  697loPI   C5A10819  12.540   5.080   7.568 -0.4244 -0.1076 -0.2836
  697loPI   C6A10820  12.585   4.791   7.916  0.0398  0.0623 -0.2772
  697loPI   C1B10821  12.044   4.884   5.928  0.0240 -0.0442 -0.1261
  697loPI   C2B10822  12.152   4.938   6.347 -0.1051 -0.2252  0.0236
  697loPI   C3B10823  12.060   4.999   6.743 -0.0774  0.0451  0.0744
  697loPI   C4B10824  11.952   5.046   7.239 -0.1237 -0.1943 -0.3377
  698loPI    C110825  11.411  11.935   4.770 -0.1531 -0.0430 -0.0441
  698loPI    C210826  11.287  12.271   4.591 -0.3860 -0.1059 -0.0042
  698loPI    C310827  11.260  11.921   4.399 -0.2387 -0.1160 -0.0071
  698loPI   PO410828  11.308  11.967   5.133 -0.0305  0.0391  0.0792
  698loPI   GL110829  11.376  12.276   5.473  0.3114  0.0128  0.0455
  698loPI   GL210830  11.706  12.020   5.431  0.0039 -0.0790 -0.2485
  698loPI   C1A10831  11.427  12.466   5.880  0.1185  0.0003 -0.1875
  698loPI   C2A10832  11.278  12.789   6.101 -0.0550 -0.1530  0.0676
  698loPI   C3A10833  11.332  12.837   6.460 -0.1173  0.0280  0.2146
  698loPI   C4A10834  11.240  12.737   6.980  0.1691  0.0588  0.2019
  698loPI   C5A10835  11.163  12.680   7.389  0.0137  0.2693 -0.0330
  698loPI   C6A10836  10.813  12.354   7.536 -0.0180 -0.3368  0.0305
  698loPI   C1B10837  11.560  11.998   5.889  0.1324 -0.0629  0.0466
  698loPI   C2B10838  11.597  12.182   6.247 -0.0323  0.0956  0.1179
  698loPI   C3B10839  11.256  12.281   6.608  0.1496  0.0523 -0.1214
  698loPI   C4B10840  10.934  12.258   6.944 -0.2388  0.1794 -0.0764
  699loPI    C110841   9.884   5.598   4.938 -0.2039 -0.1282  0.0939
  699loPI    C210842   9.841   5.964   4.783 -0.2137 -0.0284  0.3297
  699loPI    C310843  10.078   5.697   4.602 -0.1422  0.1203  0.2012
  699loPI   PO410844   9.896   5.647   5.166  0.1893  0.4469 -0.2823
  699loPI   GL110845  10.177   5.561   5.509  0.0909  0.1102 -0.0695
  699loPI   GL210846   9.947   5.826   5.627 -0.0925 -0.0869 -0.1257
  699loPI   C1A10847   9.850   5.426   5.951  0.1920  0.0808 -0.3778
  699loPI   C2A10848   9.799   5.540   6.449 -0.2341  0.1309 -0.4054
  699loPI   C3A10849   9.937   5.483   6.915 -0.1325  0.1305  0.1731
  699loPI   C4A10850  10.026   5.670   7.299  0.2401 -0.0417 -0.0458
  699loPI   C5A10851  10.364   5.808   7.559 -0.3602  0.1261  0.0503
  699loPI   C6A10852  10.874   5.774   7.534 -0.1471 -0.3505 -0.1499
  699loPI   C1B10853   9.852   5.916   6.071  0.1427 -0.0748  0.0680
  699loPI   C2B10854   9.721   6.183   6.444 -0.3484  0.0927 -0.2592
  699loPI   C3B10855   9.741   6.323   6.873  0.1790 -0.0920 -0.1936
  699loPI   C4B10856   9.724   6.338   7.427 -0.1671 -0.2425  0.0803
  700loPI    C110857  13.793  16.602   5.240  0.1839  0.1725 -0.1272
  700loPI    C210858  13.464  16.636   5.016  0.1816  0.1028 -0.1348
  700loPI    C310859  13.651  16.964   5.148  0.0153  0.1423  0.0073
  700loPI   PO410860  13.732  16.219   5.336 -0.1124  0.2347 -0.0780
  700loPI   GL110861  13.849  16.099   5.737 -0.1505  0.2553  0.1022
  700loPI   GL210862  13.473  16.139   5.903 -0.1174 -0.1121  0.3156
  700loPI   C1A10863  13.680  15.727   6.024  0.0015 -0.2605  0.0539
  700loPI   C2A10864  13.663  15.715   6.435  0.1263  0.3568  0.0979
  700loPI   C3A10865  13.797  15.637   6.872 -0.0536 -0.0437  0.0253
  700loPI   C4A10866  13.846  15.539   7.315 -0.2801  0.0905 -0.0378
  700loPI   C5A10867  13.667  15.492   7.625  0.1518 -0.2256  0.1888
  700loPI   C6A10868  13.710  15.649   7.997  0.0879  0.2921  0.0535
  700loPI   C1B10869  13.764  16.143   6.233  0.0600  0.0110 -0.1340
  700loPI   C2B10870  14.008  16.308   6.600  0.2096 -0.0129  0.2469
  700loPI   C3B10871  13.946  16.407   7.021 -0.1317  0.3575 -0.1611
  700loPI   C4B10872  13.877  16.519   7.411  0.2003  0.1020 -0.1328
  701loPI    C110873  16.130   5.269   4.585 -0.2349 -0.1293  0.0797
  701loPI    C210874  16.004   5.188   4.214 -0.1677 -0.1607  0.0635
  701loPI    C310875  16.175   4.901   4.434  0.0980 -0.0577 -0.0043
  701loPI   PO410876  15.862   5.453   4.751 -0.0703  0.2500  0.2960
  701loPI   GL110877  15.640   5.283   5.085 -0.1687  0.1661 -0.1340
  701loPI   GL210878  16.022   5.316   5.215 -0.1954 -0.0310  0.1195
  701loPI   C1A10879  15.555   5.378   5.494  0.0019 -0.0393 -0.1831
  701loPI   C2A10880  15.248   5.690   5.769  0.0126  0.1747 -0.1248
  701loPI   C3A10881  15.236   5.797   6.192 -0.1126  0.1081 -0.2320
  701loPI   C4A10882  14.880   5.835   6.487 -0.2740  0.0588  0.2433
  701loPI   C5A10883  14.748   6.013   6.857  0.0239 -0.0045  0.2153
  701loPI   C6A10884  14.692   6.376   7.164  0.2670 -0.1073  0.2058
  701loPI   C1B10885  15.967   5.098   5.590 -0.1272  0.3610 -0.0876
  701loPI   C2B10886  16.025   5.180   6.091 -0.0858  0.1868  0.0563
  701loPI   C3B10887  16.020   5.156   6.568 -0.1966 -0.1523 -0.0002
  701loPI   C4B10888  16.022   5.281   7.084  0.0897 -0.1461 -0.1606
  702loPI    C110889   0.798   1.917   4.600  0.0649 -0.1998  0.3245
  702loPI    C210890   1.090   1.652   4.529  0.1623 -0.0233  0.0492
  702loPI    C310891   0.715   1.526   4.586  0.1720 -0.2100 -0.2797
  702loPI   PO410892   0.901   2.081   4.668  0.0745  0.4271  0.1094
  702loPI   GL110893   0.965   2.215   4.966 -0.0703  0.2995  0.1784
  702loPI   GL210894   1.156   2.143   5.242  0.0594  0.0544  0.0222
  702loPI   C1A10895   0.664   2.212   5.313 -0.0302  0.1455  0.2715
  702loPI   C2A10896   0.545   2.199   5.718 -0.0310 -0.0472  0.1020
  702loPI   C3A10897   0.419   2.529   6.107  0.0997 -0.4268 -0.0124
  702loPI   C4A10898   0.299   2.565   6.530  0.0298  0.2062  0.1466
  702loPI   C5A10899   0.539   2.544   6.878 -0.2430  0.2747 -0.3517
  702loPI   C6A10900   0.945   2.448   7.038  0.0279  0.0039  0.1894
  702loPI   C1B10901   1.485   2.492   5.461 -0.0205 -0.0376  0.0393
  702loPI   C2B10902   1.469   2.549   5.910  0.1270  0.0099  0.1914
  702loPI   C3B10903   1.455   2.543   6.328  0.2686  0.0760 -0.1701
  702loPI   C4B10904   1.343   2.410   6.709 -0.2276 -0.2763  0.1210
  703loPI    C110905  17.286   3.304   4.613  0.0328  0.3343 -0.0918
  703loPI    C210906  17.409   3.453   4.263  0.1333  0.0824 -0.1661
  703loPI    C310907  17.151   3.148   4.271  0.1694  0.0550 -0.0208
  703loPI   PO410908  17.282   3.589   4.739 -0.2192 -0.2433 -0.0225
  703loPI   GL110909  17.164   3.659   5.025 -0.0052  0.1555 -0.0401
  703loPI   GL210910  16.859   3.711   5.155 -0.0586  0.0584 -0.0104
  703loPI   C1A10911  17.208   3.900   5.439 -0.3945  0.0269 -0.2031
  703loPI   C2A10912  17.048   3.928   5.841 -0.1222  0.1988 -0.2112
  703loPI   C3A10913  17.007   3.990   6.232  0.2011  0.0528  0.0215
  703loPI   C4A10914  17.031   4.070   6.620 -0.1455 -0.0093 -0.1028
  703loPI   C5A10915  17.317   4.374   6.988 -0.1256  0.0192  0.3308
  703loPI   C6A10916  17.465   4.659   7.346  0.0133 -0.2340  0.0124
  703loPI   C1B10917  16.615   3.898   5.474 -0.1572 -0.0585 -0.4431
  703loPI   C2B10918  16.378   3.896   5.816 -0.2092  0.0182 -0.1774
  703loPI   C3B10919  16.250   4.255   6.204  0.2960 -0.0065  0.3164
  703loPI   C4B10920  15.885   4.431   6.444  0.2134 -0.2445 -0.1277
  704loPI    C110921  12.263  10.916   4.585  0.1483  0.1929  0.3862
  704loPI    C210922  12.523  10.961   4.284 -0.2695  0.0757 -0.0027
  704loPI    C310923  12.356  11.282   4.454  0.0390  0.1462  0.1741
  704loPI   PO410924  12.322  10.778   4.766 -0.1277  0.0787  0.1776
  704loPI   GL110925  12.246  10.684   5.127  0.0300 -0.0316  0.0747
  704loPI   GL210926  11.981  10.694   5.278  0.1856 -0.0673 -0.2172
  704loPI   C1A10927  12.435  10.546   5.533 -0.1435  0.1472 -0.0254
  704loPI   C2A10928  12.364  10.364   5.985 -0.2566  0.2296  0.2188
  704loPI   C3A10929  12.425  10.112   6.433 -0.1049  0.0033 -0.0750
  704loPI   C4A10930  12.312  10.023   6.779 -0.3587 -0.1174 -0.1487
  704loPI   C5A10931  12.153  10.241   7.132  0.2557 -0.3794  0.0643
  704loPI   C6A10932  11.893  10.244   7.476  0.0315 -0.0869 -0.1330
  704loPI   C1B10933  12.087  10.917   5.650  0.3359  0.0301  0.1306
  704loPI   C2B10934  11.910  10.735   6.035  0.1669 -0.1319  0.1736
  704loPI   C3B10935  11.725  10.836   6.399  0.0673  0.4034  0.0342
  704loPI   C4B10936  11.376  10.872   6.681  0.1089  0.3879 -0.1234
  705loPI    C110937  12.570   3.276   4.889  0.0191  0.0673 -0.0634
  705loPI    C210938  12.496   3.669   4.908  0.0750  0.0856 -0.2077
  705loPI    C310939  12.847   3.539   4.769  0.0961 -0.0136 -0.0635
  705loPI   PO410940  12.469   3.161   5.097 -0.0380 -0.3379  0.2817
  705loPI   GL110941  12.663   3.164   5.613 -0.3379  0.1560 -0.0372
  705loPI   GL210942  12.905   3.145   5.640  0.0018 -0.3295  0.2663
  705loPI   C1A10943  12.531   3.173   6.058 -0.0329  0.3550  0.1576
  705loPI   C2A10944  12.468   3.163   6.428  0.2144 -0.3969 -0.2615
  705loPI   C3A10945  12.574   3.200   6.839  0.0367 -0.2266  0.2152
  705loPI   C4A10946  12.659   3.528   7.173 -0.2771 -0.3493 -0.0922
  705loPI   C5A10947  13.024   4.011   7.308 -0.0576  0.0395  0.1686
  705loPI   C6A10948  13.371   4.023   7.452 -0.2120 -0.3123 -0.1993
  705loPI   C1B10949  13.061   3.290   6.036 -0.1578 -0.0538 -0.1272
  705loPI   C2B10950  12.976   3.074   6.454 -0.0073  0.0980  0.0829
  705loPI   C3B10951  12.867   2.807   6.708  0.0455 -0.0880 -0.0231
  705loPI   C4B10952  12.645   2.639   6.988  0.2835 -0.0039 -0.0625
  706loPI    C110953   4.053   7.553   4.565  0.0590  0.1218 -0.0845
  706loPI    C210954   3.799   7.852   4.488  0.1070  0.1842 -0.0016
  706loPI    C310955   3.951   7.637   4.188 -0.0879  0.1097 -0.0481
  706loPI   PO410956   4.053   7.429   4.807  0.2843  0.1063 -0.2454
  706loPI   GL110957   3.937   7.438   5.234  0.0206  0.0072  0.0305
  706loPI   GL210958   4.301   7.423   5.343 -0.2408 -0.1447 -0.1262
  706loPI   C1A10959   3.705   7.340   5.589  0.1726 -0.1354  0.4860
  706loPI   C2A10960   3.769   7.344   6.068 -0.4067  0.0904 -0.2001
  706loPI   C3A10961   3.765   7.580   6.431 -0.2319  0.1784 -0.1341
  706loPI   C4A10962   3.767   7.984   6.727  0.3087 -0.0838  0.2974
  706loPI   C5A10963   3.783   7.987   7.164  0.4020  0.0716 -0.3594
  706loPI   C6A10964   3.812   8.282   7.385  0.3026 -0.3785  0.0512
  706loPI   C1B10965   4.198   7.294   5.739 -0.1634 -0.2083 -0.1438
  706loPI   C2B10966   4.303   7.586   6.064 -0.3102  0.0397 -0.1231
  706loPI   C3B10967   4.634   7.733   6.339  0.0194  0.0553 -0.1453
  706loPI   C4B10968   4.810   7.842   6.677 -0.1164  0.0759 -0.2739
  707loPI    C110969   6.310  12.186   4.839  0.1838  0.1628 -0.0876
  707loPI    C210970   6.168  11.813   4.863 -0.1175  0.2868  0.1154
  707loPI    C310971   6.399  11.919   4.555 -0.1950 -0.0110 -0.0497
  707loPI   PO410972   6.478  12.269   5.112  0.1210 -0.1172  0.1324
  707loPI   GL110973   6.490  12.489   5.468  0.0110 -0.1445  0.2512
  707loPI   GL210974   6.225  12.230   5.621  0.1823 -0.0871 -0.2722
  707loPI   C1A10975   6.765  12.649   5.836 -0.0120 -0.1642 -0.1180
  707loPI   C2A10976   6.765  12.935   6.147  0.0913 -0.0009  0.1690
  707loPI   C3A10977   7.156  13.072   6.482 -0.1619 -0.4102  0.0886
  707loPI   C4A10978   7.495  13.330   6.551 -0.2971 -0.0051 -0.1438
  707loPI   C5A10979   7.523  13.622   6.876  0.1621 -0.0526  0.1389
  707loPI   C6A10980   7.742  13.682   7.238  0.0303  0.0550 -0.1970
  707loPI   C1B10981   6.256  12.520   5.886 -0.2511  0.0970 -0.5868
  707loPI   C2B10982   6.363  12.644   6.267 -0.2521 -0.0196 -0.1692
  707loPI   C3B10983   6.458  12.605   6.755 -0.0784  0.1669 -0.0128
  707loPI   C4B10984   6.554  12.497   7.212  0.2133 -0.3782  0.1385
  708loPI    C110985  12.058  12.330   4.786  0.0836 -0.0351  0.1146
  708loPI    C210986  11.784  12.177   4.538  0.1971  0.0627 -0.0738
  708loPI    C310987  11.798  12.571   4.600  0.1947  0.0424  0.0591
  708loPI   PO410988  12.126  12.143   5.042  0.0608  0.0186 -0.0120
  708loPI   GL110989  12.227  12.113   5.435 -0.2255 -0.1904 -0.0754
  708loPI   GL210990  12.342  12.395   5.569 -0.0584  0.0015 -0.1146
  708loPI   C1A10991  12.081  11.886   5.884 -0.0796  0.1145 -0.2494
  708loPI   C2A10992  11.979  11.784   6.190 -0.1801  0.1318  0.2720
  708loPI   C3A10993  11.959  11.717   6.624  0.2693  0.2216  0.2742
  708loPI   C4A10994  12.136  11.956   7.065  0.1558 -0.1228  0.1717
  708loPI   C5A10995  12.175  12.081   7.448  0.2027  0.4767 -0.1663
  708loPI   C6A10996  12.318  12.433   7.676  0.2235 -0.0743  0.4084
  708loPI   C1B10997  12.461  12.547   5.957 -0.1875 -0.0666 -0.3071
  708loPI   C2B10998  12.455  12.553   6.363 -0.2478  0.0563  0.0708
  708loPI   C3B10999  12.185  12.640   6.744  0.0219 -0.0313 -0.1332
  708loPI   C4B11000  12.028  12.433   7.104 -0.2179 -0.3263 -0.0832
  709loPI    C111001   2.532  11.184   4.634 -0.0215  0.0596  0.0053
  709loPI    C211002   2.808  11.071   4.368  0.2248  0.4114  0.1039
  709loPI    C311003   2.420  11.012   4.291  0.3135  0.1191 -0.1380
  709loPI   PO411004   2.622  11.002   4.908 -0.1942 -0.0401  0.0771
  709loPI   GL111005   2.509  11.000   5.417  0.2070 -0.1875 -0.0241
  709loPI   GL211006   2.821  10.927   5.380 -0.0709  0.1386 -0.1667
  709loPI   C1A11007   2.561  11.307   5.644  0.0653 -0.0402  0.0169
  709loPI   C2A11008   2.605  11.227   6.040  0.0862  0.2611  0.1373
  709loPI   C3A11009   2.662  11.185   6.466 -0.1390  0.0949 -0.1968
  709loPI   C4A11010   2.430  11.389   6.793  0.3528  0.1247 -0.0749
  709loPI   C5A11011   2.325  11.358   7.301  0.1187 -0.0042 -0.0746
  709loPI   C6A11012   1.939  11.135   7.447  0.2875 -0.0410  0.0568
  709loPI   C1B11013   2.939  10.985   5.771 -0.0032  0.0476 -0.0204
  709loPI   C2B11014   3.058  11.007   6.268 -0.1472  0.3120  0.1737
  709loPI   C3B11015   3.084  10.757   6.605  0.0081  0.1830  0.1284
  709loPI   C4B11016   3.068  10.839   7.063  0.0121  0.5299 -0.0879
  710loPI    C111017  14.550  13.601   4.671 -0.3350  0.1123 -0.1175
  710loPI    C211018  14.529  13.209   4.596  0.0677  0.0012  0.3065
  710loPI    C311019  14.826  13.427   4.439 -0.1802  0.1506  0.0359
  710loPI   PO411020  14.394  13.636   5.010  0.0555  0.0658  0.2412
  710loPI   GL111021  14.500  13.615   5.408 -0.1171  0.3090  0.0252
  710loPI   GL211022  14.608  13.825   5.586 -0.0475  0.3239 -0.0033
  710loPI   C1A11023  14.679  13.146   5.645 -0.1498 -0.1729  0.0080
  710loPI   C2A11024  14.808  13.110   6.077 -0.3188  0.3828  0.0488
  710loPI   C3A11025  14.928  12.820   6.382 -0.2824  0.3516  0.1164
  710loPI   C4A11026  15.259  12.568   6.635  0.1061 -0.0472  0.0129
  710loPI   C5A11027  15.479  12.555   7.051 -0.2308 -0.0837 -0.0799
  710loPI   C6A11028  15.764  12.516   7.320 -0.1635  0.2365  0.0512
  710loPI   C1B11029  14.637  13.583   5.936  0.1882  0.1972  0.3965
  710loPI   C2B11030  14.884  13.530   6.260  0.0374 -0.1233  0.1532
  710loPI   C3B11031  14.961  13.276   6.617 -0.2636  0.0093  0.0449
  710loPI   C4B11032  15.315  13.075   6.839 -0.3091  0.3692  0.0205
  711loPI    C111033  14.183  13.112   5.007  0.0216 -0.0185 -0.1248
  711loPI    C211034  14.332  12.759   5.123  0.0766  0.1166  0.2305
  711loPI    C311035  14.579  13.061   5.035  0.0259  0.1137  0.0748
  711loPI   PO411036  14.023  13.225   5.163 -0.1838 -0.1855  0.0473
  711loPI   GL111037  14.198  13.268   5.634  0.1531  0.0654 -0.1050
  711loPI   GL211038  14.146  13.682   5.768  0.0561 -0.2915 -0.3716
  711loPI   C1A11039  14.259  13.174   5.981  0.0002  0.1623  0.1941
  711loPI   C2A11040  14.457  13.272   6.357 -0.2043  0.1287 -0.1596
  711loPI   C3A11041  14.445  13.258   6.861  0.0103 -0.1410  0.1284
  711loPI   C4A11042  14.701  13.277   7.252 -0.1354 -0.0035  0.0462
  711loPI   C5A11043  14.881  13.345   7.658 -0.3117 -0.0803  0.1634
  711loPI   C6A11044  15.128  13.551   7.895 -0.0514 -0.1202  0.1768
  711loPI   C1B11045  14.239  13.679   6.189 -0.2109 -0.0892 -0.2127
  711loPI   C2B11046  14.523  13.718   6.574 -0.2057 -0.2687 -0.2170
  711loPI   C3B11047  14.616  13.743   7.049  0.0859  0.0149  0.3753
  711loPI   C4B11048  14.385  13.664   7.345  0.3577 -0.1615 -0.0551
  712loPI    C111049   8.770   2.067   5.162 -0.1282  0.0420 -0.0641
  712loPI    C211050   8.893   1.833   4.862 -0.1506  0.2704 -0.2543
  712loPI    C311051   8.990   2.221   4.865  0.0206  0.2284  0.1395
  712loPI   PO411052   8.856   1.892   5.434 -0.1371  0.0339 -0.1262
  712loPI   GL111053   8.803   1.823   5.821  0.0930  0.2391 -0.0375
  712loPI   GL211054   9.003   2.178   5.838  0.1200  0.1497 -0.1806
  712loPI   C1A11055   8.764   1.826   6.189  0.2416  0.0081 -0.3210
  712loPI   C2A11056   8.695   1.751   6.651 -0.1287  0.0127 -0.2483
  712loPI   C3A11057   8.777   1.415   7.031 -0.1194 -0.2632 -0.0429
  712loPI   C4A11058   8.552   1.055   7.244 -0.1400 -0.1175  0.1572
  712loPI   C5A11059   8.239   0.852   7.439  0.1369  0.2682  0.0338
  712loPI   C6A11060   8.424   0.557   7.572  0.2641  0.0054  0.1039
  712loPI   C1B11061   8.852   2.300   6.220  0.0806 -0.3500 -0.0156
  712loPI   C2B11062   8.705   2.477   6.602 -0.0143  0.0469  0.1548
  712loPI   C3B11063   8.829   2.265   6.867  0.0419  0.1485  0.1551
  712loPI   C4B11064   8.757   1.950   7.256  0.3186 -0.0531  0.0907
  713loPI    C111065  18.711   7.870   4.857 -0.3233 -0.0920  0.0427
  713loPI    C211066  18.540   7.512   4.805 -0.2911 -0.1046  0.0228
  713loPI    C311067  18.627   7.739   4.488 -0.0590 -0.1975  0.0180
  713loPI   PO411068  18.537   7.991   5.013 -0.2779 -0.1245 -0.2710
  713loPI   GL111069  18.605   7.994   5.450  0.0922 -0.1449 -0.0468
  713loPI   GL211070  18.894   7.851   5.556  0.0211  0.1665 -0.1257
  713loPI   C1A11071  18.482   8.244   5.740  0.1375 -0.1332 -0.0985
  713loPI   C2A11072  18.427   8.282   6.132  0.1938  0.4389  0.0062
  713loPI   C3A11073  18.363   8.503   6.551  0.0036  0.1876  0.1149
  713loPI   C4A11074  18.176   8.365   6.886 -0.0529  0.2275  0.0837
  713loPI   C5A11075  18.283   7.931   7.167 -0.0085  0.0700  0.3358
  713loPI   C6A11076  18.405   7.606   7.519  0.1984  0.0614 -0.0475
  713loPI   C1B11077  18.854   7.975   6.001  0.2662 -0.1953 -0.2074
  713loPI   C2B11078  18.936   7.751   6.405 -0.0393  0.1242  0.0174
  713loPI   C3B11079  18.699   7.580   6.705 -0.1691 -0.1800 -0.2292
  713loPI   C4B11080  18.723   7.799   7.188  0.0540 -0.2159 -0.1547
  714loPI    C111081   9.671  13.550   4.630 -0.1407 -0.2663 -0.1314
  714loPI    C211082   9.948  13.404   4.380  0.0575  0.3051 -0.2605
  714loPI    C311083   9.580  13.488   4.245 -0.0981 -0.1756 -0.1562
  714loPI   PO411084   9.832  13.646   4.882  0.2469 -0.0830 -0.2435
  714loPI   GL111085  10.042  13.567   5.213 -0.2019  0.0752 -0.2180
  714loPI   GL211086   9.936  13.875   5.353 -0.2968  0.1980 -0.4887
  714loPI   C1A11087  10.149  13.486   5.675 -0.0903 -0.1869  0.0812
  714loPI   C2A11088  10.235  13.550   6.107  0.1154  0.2308  0.4699
  714loPI   C3A11089  10.246  13.536   6.511  0.3200 -0.1889 -0.4416
  714loPI   C4A11090  10.385  13.756   7.003 -0.3489 -0.0863 -0.1316
  714loPI   C5A11091  10.412  14.042   7.317  0.4085  0.0087  0.0830
  714loPI   C6A11092  10.441  14.066   7.745  0.0463  0.2540 -0.0027
  714loPI   C1B11093   9.947  13.915   5.873  0.0683 -0.1465  0.2191
  714loPI   C2B11094   9.962  13.990   6.310  0.0348 -0.0569  0.0169
  714loPI   C3B11095   9.883  13.992   6.724  0.0636  0.2390  0.1869
  714loPI   C4B11096   9.958  14.031   7.139 -0.0942 -0.0663  0.3365
  715loPI    C111097   3.590  14.413   4.798  0.0847  0.0275  0.0287
  715loPI    C211098   3.795  14.726   4.654 -0.0345  0.0549 -0.0831
  715loPI    C311099   3.720  14.410   4.419  0.0053 -0.0180  0.0017
  715loPI   PO411100   3.589  14.348   5.004  0.2179  0.0684  0.0098
  715loPI   GL111101   3.451  14.282   5.379  0.4250  0.0063 -0.0943
  715loPI   GL211102   3.200  14.075   5.503 -0.1431 -0.1452 -0.0813
  715loPI   C1A11103   3.293  14.583   5.756 -0.0589 -0.2327 -0.0959
  715loPI   C2A11104   3.238  14.724   6.091  0.0518 -0.2015  0.1013
  715loPI   C3A11105   3.278  14.885   6.490  0.1611 -0.1020  0.0363
  715loPI   C4A11106   3.156  14.985   6.962 -0.1321  0.0780  0.2383
  715loPI   C5A11107   3.344  15.093   7.323 -0.3125  0.1713 -0.0876
  715loPI   C6A11108   3.620  15.058   7.667  0.1023 -0.0511 -0.0416
  715loPI   C1B11109   3.265  13.767   5.848 -0.2305 -0.1195 -0.0726
  715loPI   C2B11110   3.341  13.649   6.251  0.0228  0.1800 -0.2765
  715loPI   C3B11111   3.268  13.553   6.671 -0.0195  0.0402  0.0195
  715loPI   C4B11112   3.228  13.470   7.057  0.0050 -0.0663 -0.0859
  716loPI    C111113   8.450  18.634   4.826  0.1788  0.1959  0.2321
  716loPI    C211114   8.335  18.959   4.623  0.0126 -0.0322 -0.0479
  716loPI    C311115   8.610  18.714   4.468  0.0534 -0.0878  0.1096
  716loPI   PO411116   8.431  18.716   5.076 -0.0836 -0.0959 -0.0007
  716loPI   GL111117   8.571  18.613   5.403 -0.1736 -0.2604  0.2044
  716loPI   GL211118   8.676  18.406   5.527 -0.0756 -0.1827 -0.1710
  716loPI   C1A11119   8.307  18.826   5.776 -0.1289  0.1734 -0.0695
  716loPI   C2A11120   8.229  18.756   6.169  0.1313 -0.2578 -0.0337
  716loPI   C3A11121   8.164  18.726   6.573  0.4610  0.0709 -0.3054
  716loPI   C4A11122   8.189  18.592   7.046  0.2694 -0.0919  0.0962
  716loPI   C5A11123   8.253  18.730   7.478  0.3563  0.1924 -0.0666
  716loPI   C6A11124   8.224  19.013   7.820 -0.2856 -0.0074  0.1243
  716loPI   C1B11125   8.629  18.370   5.979  0.1636  0.0247 -0.2141
  716loPI   C2B11126   8.517  18.348   6.346  0.0494  0.1828  0.2144
  716loPI   C3B11127   8.624  18.369   6.768 -0.0976  0.0329  0.1255
  716loPI   C4B11128   8.589  18.342   7.229 -0.1759 -0.0309  0.3182
  717loPI    C111129  14.299  11.700   4.541  0.0265  0.3682  0.1329
  717loPI    C211130  13.989  11.883   4.367  0.0865  0.2489 -0.1036
  717loPI    C311131  14.289  11.741   4.143 -0.0449 -0.2994  0.0528
  717loPI   PO411132  14.314  11.792   4.740  0.1421 -0.2887 -0.0446
  717loPI   GL111133  14.494  11.755   5.247 -0.2251  0.2175  0.3606
  717loPI   GL211134  14.397  11.557   5.467 -0.0890  0.0507 -0.1044
  717loPI   C1A11135  14.617  11.933   5.665 -0.0400 -0.1152 -0.0483
  717loPI   C2A11136  14.796  12.187   6.012 -0.2873 -0.2019  0.0156
  717loPI   C3A11137  14.876  12.341   6.406 -0.0041  0.0861  0.3348
  717loPI   C4A11138  14.710  12.459   6.704 -0.3725  0.0879 -0.5613
  717loPI   C5A11139  14.857  12.380   7.091 -0.0993  0.0602 -0.2317
  717loPI   C6A11140  15.156  12.242   7.382  0.2213  0.0312  0.1700
  717loPI   C1B11141  14.586  11.384   5.878 -0.0267 -0.0868  0.1537
  717loPI   C2B11142  14.531  11.293   6.254  0.1223 -0.1799 -0.0692
  717loPI   C3B11143  14.640  11.488   6.613  0.3707  0.1334 -0.1115
  717loPI   C4B11144  14.581  11.955   6.656  0.0484 -0.0747  0.0433
  718loPI    C111145  16.955   5.794   4.283 -0.0090 -0.1880 -0.1474
  718loPI    C211146  16.615   5.882   4.092  0.0636  0.1545 -0.1267
  718loPI    C311147  16.898   6.161   4.132  0.2437 -0.0536  0.0755
  718loPI   PO411148  16.842   5.707   4.542 -0.1856  0.1773 -0.0581
  718loPI   GL111149  16.772   5.709   4.984  0.0360 -0.0013  0.0797
  718loPI   GL211150  16.924   5.528   5.071 -0.1011  0.0428  0.3204
  718loPI   C1A11151  16.751   5.784   5.443  0.0718  0.2772  0.0531
  718loPI   C2A11152  16.727   5.701   5.903  0.2100  0.0477 -0.2401
  718loPI   C3A11153  16.420   5.633   6.246 -0.2369  0.0132  0.5133
  718loPI   C4A11154  16.333   5.643   6.755 -0.4606  0.1702  0.0332
  718loPI   C5A11155  16.496   5.618   7.183  0.1125 -0.2516 -0.3562
  718loPI   C6A11156  16.653   6.051   7.409  0.1646 -0.1141  0.3602
  718loPI   C1B11157  16.955   5.341   5.470 -0.2002  0.0315  0.1760
  718loPI   C2B11158  17.100   5.297   5.899  0.1379  0.1322  0.0960
  718loPI   C3B11159  16.933   5.475   6.336  0.0315  0.1355 -0.0141
  718loPI   C4B11160  17.196   5.768   6.559 -0.0669  0.0211 -0.1491
  719loPI    C111161  15.936  17.767   4.699  0.0869  0.0899  0.2779
  719loPI    C211162  15.607  17.560   4.602  0.0339  0.1710  0.2832
  719loPI    C311163  15.947  17.502   4.400  0.0090  0.1070  0.2596
  719loPI   PO411164  15.903  17.717   4.989 -0.2792 -0.0706 -0.0719
  719loPI   GL111165  16.110  17.447   5.214 -0.2767  0.0025 -0.2442
  719loPI   GL211166  16.220  17.210   5.206  0.0959 -0.1561 -0.0677
  719loPI   C1A11167  16.004  17.441   5.607  0.2633  0.0612 -0.2898
  719loPI   C2A11168  15.857  17.287   6.016 -0.2530 -0.2660  0.0436
  719loPI   C3A11169  15.682  17.121   6.321  0.2412 -0.1312  0.1708
  719loPI   C4A11170  15.408  16.920   6.541  0.1470 -0.0118  0.2156
  719loPI   C5A11171  15.246  16.815   6.969 -0.2005 -0.1629  0.0347
  719loPI   C6A11172  15.303  16.495   7.272 -0.2064 -0.1662 -0.3805
  719loPI   C1B11173  16.074  16.952   5.559 -0.0660  0.0583 -0.1395
  719loPI   C2B11174  15.907  16.811   5.994 -0.0534  0.2707  0.0262
  719loPI   C3B11175  16.048  16.823   6.457 -0.2709 -0.0366 -0.1628
  719loPI   C4B11176  15.701  16.650   6.822  0.0365 -0.0794  0.0146
  720loPI    C111177   9.944  18.860   5.254  0.2178 -0.1056  0.0303
  720loPI    C211178   9.973  18.744   4.872  0.1685 -0.0201  0.0001
  720loPI    C311179  10.113  19.102   4.984 -0.2336  0.1520 -0.0320
  720loPI   PO411180  10.076  18.703   5.415  0.5423 -0.3486  0.1856
  720loPI   GL111181  10.210  18.816   5.749 -0.0012 -0.0644 -0.1222
  720loPI   GL211182  10.079  18.539   5.905 -0.1030  0.2362  0.1986
  720loPI   C1A11183  10.076  18.997   6.154  0.0492 -0.1546 -0.2320
  720loPI   C2A11184  10.060  19.000   6.657  0.0063 -0.1092 -0.0981
  720loPI   C3A11185  10.005  18.810   7.130 -0.1595  0.4091 -0.0138
  720loPI   C4A11186  10.171  19.022   7.413  0.0068 -0.0675 -0.1966
  720loPI   C5A11187  10.135  19.469   7.583  0.1418  0.1575  0.1592
  720loPI   C6A11188  10.136  19.788   7.837 -0.0635  0.0455 -0.1306
  720loPI   C1B11189   9.909  18.467   6.430 -0.1412 -0.3149  0.2407
  720loPI   C2B11190   9.929  18.377   6.854  0.0952  0.2726  0.1631
  720loPI   C3B11191  10.146  18.385   7.243 -0.1390 -0.1437 -0.1313
  720loPI   C4B11192  10.260  18.297   7.727  0.0628 -0.0813  0.3730
  721loPI    C111193  15.312   6.036   4.513 -0.0441 -0.0829 -0.1553
  721loPI    C211194  15.211   6.417   4.582 -0.1554 -0.1515  0.0698
  721loPI    C311195  15.305   6.300   4.211  0.1733  0.1615  0.0487
  721loPI   PO411196  15.329   5.934   4.745  0.0574 -0.1409 -0.0523
  721loPI   GL111197  15.175   5.758   5.127 -0.0716  0.1935 -0.2294
  721loPI   GL211198  14.972   5.697   5.374 -0.0840 -0.1539 -0.3748
  721loPI   C1A11199  15.550   5.967   5.424 -0.1525 -0.1818 -0.0843
  721loPI   C2A11200  15.533   6.094   5.933 -0.0287 -0.2696 -0.1725
  721loPI   C3A11201  15.596   6.114   6.349  0.0060 -0.2017  0.0761
  721loPI   C4A11202  15.435   5.854   6.696  0.2686  0.2269 -0.1279
  721loPI   C5A11203  15.217   5.792   7.020  0.2825  0.1328 -0.1995
  721loPI   C6A11204  14.893   5.634   7.377 -0.1757 -0.0575  0.0680
  721loPI   C1B11205  14.765   5.755   5.751  0.0247  0.0875  0.0421
  721loPI   C2B11206  14.632   6.008   6.121  0.1676 -0.2145  0.3754
  721loPI   C3B11207  14.493   6.217   6.476 -0.0018  0.2203  0.0802
  721loPI   C4B11208  14.676   6.532   6.622  0.2813  0.1496  0.1418
  722loPI    C111209   1.594   1.188   4.723 -0.1431 -0.0112  0.0585
  722loPI    C211210   1.640   1.244   4.330  0.0380  0.1272  0.0983
  722loPI    C311211   1.409   0.947   4.463 -0.0229  0.0784 -0.1124
  722loPI   PO411212   1.429   1.418   4.882  0.1275 -0.2506  0.0335
  722loPI   GL111213   1.193   1.600   5.171 -0.0125 -0.0019  0.1495
  722loPI   GL211214   0.915   1.728   5.167 -0.1672 -0.0645  0.0822
  722loPI   C1A11215   1.429   1.912   5.528  0.0513 -0.2042 -0.1126
  722loPI   C2A11216   1.498   2.078   5.837 -0.0502 -0.1407 -0.0269
  722loPI   C3A11217   1.328   2.039   6.236  0.1961 -0.2231 -0.1220
  722loPI   C4A11218   1.146   1.926   6.699  0.2552  0.0517  0.1064
  722loPI   C5A11219   1.042   2.026   7.180 -0.0702 -0.1703 -0.1792
  722loPI   C6A11220   1.320   1.867   7.519 -0.1439  0.1771  0.1858
  722loPI   C1B11221   0.915   1.826   5.526 -0.0066 -0.1162 -0.2046
  722loPI   C2B11222   1.068   1.605   5.933  0.2153  0.3021  0.2402
  722loPI   C3B11223   1.424   1.315   5.976 -0.0476  0.0808  0.2905
  722loPI   C4B11224   1.389   1.044   6.355  0.2550 -0.0427 -0.3861
  723loPI    C111225   4.494  10.005   4.951 -0.1734  0.0768  0.4278
  723loPI    C211226   4.893   9.978   4.952 -0.1621  0.2311  0.5324
  723loPI    C311227   4.714  10.294   4.784 -0.2500  0.0575  0.2923
  723loPI   PO411228   4.462   9.732   5.034  0.0661  0.0491 -0.2042
  723loPI   GL111229   4.617   9.567   5.375 -0.2407  0.1863 -0.0176
  723loPI   GL211230   4.852   9.857   5.472 -0.1757 -0.0713  0.0747
  723loPI   C1A11231   4.203   9.613   5.633  0.1320 -0.0642  0.0994
  723loPI   C2A11232   4.080   9.671   6.125  0.1218  0.0481  0.0170
  723loPI   C3A11233   4.122   9.534   6.602  0.3544  0.0508  0.0695
  723loPI   C4A11234   4.088   9.630   6.989 -0.2112  0.1389 -0.0132
  723loPI   C5A11235   4.108   9.696   7.495  0.2472 -0.0450 -0.0893
  723loPI   C6A11236   4.283   9.770   7.867  0.0263 -0.0102 -0.2562
  723loPI   C1B11237   4.848   9.640   5.869 -0.0015 -0.2186  0.1695
  723loPI   C2B11238   4.990   9.665   6.298 -0.2617  0.1960  0.0015
  723loPI   C3B11239   5.130   9.658   6.815  0.0941 -0.1280  0.1888
  723loPI   C4B11240   5.404   9.746   7.182  0.0088 -0.2344  0.0640
  724loPI    C111241   1.424   8.521   4.675  0.0581 -0.1050  0.2196
  724loPI    C211242   1.082   8.446   4.481  0.0218  0.0793  0.2108
  724loPI    C311243   1.404   8.219   4.413  0.0700  0.2671 -0.2245
  724loPI   PO411244   1.267   8.512   4.950  0.0558 -0.1049 -0.1938
  724loPI   GL111245   1.382   8.458   5.271 -0.2432  0.0939 -0.1568
  724loPI   GL211246   1.234   8.145   5.236  0.1204 -0.0486 -0.2721
  724loPI   C1A11247   1.448   8.552   5.671  0.0901 -0.2454  0.1958
  724loPI   C2A11248   1.435   8.498   6.199  0.2707  0.0260 -0.2182
  724loPI   C3A11249   1.533   8.542   6.633  0.0500  0.2270 -0.0502
  724loPI   C4A11250   1.365   8.399   7.084  0.2245  0.1479 -0.0213
  724loPI   C5A11251   1.207   8.388   7.489  0.1287  0.1572 -0.1746
  724loPI   C6A11252   1.016   8.629   7.796 -0.3224 -0.1119 -0.3215
  724loPI   C1B11253   1.088   8.188   5.688  0.0900 -0.3888 -0.0233
  724loPI   C2B11254   1.017   8.177   6.187 -0.2435  0.2197 -0.0404
  724loPI   C3B11255   1.037   8.323   6.583 -0.0760  0.2232 -0.0821
  724loPI   C4B11256   0.868   8.460   6.983  0.0658  0.0466 -0.0032
  725loPI    C111257  13.861  12.933   4.650  0.1321 -0.2268 -0.0626
  725loPI    C211258  13.716  13.249   4.452 -0.1086 -0.3080 -0.0193
  725loPI    C311259  14.090  13.124   4.384 -0.0578 -0.0971 -0.1349
  725loPI   PO411260  13.688  12.929   4.881  0.0212  0.1480  0.1300
  725loPI   GL111261  13.656  12.804   5.292  0.0267  0.3055 -0.1841
  725loPI   GL211262  13.915  12.843   5.444  0.0755  0.1095 -0.0288
  725loPI   C1A11263  13.436  12.908   5.695  0.0458 -0.0958 -0.1652
  725loPI   C2A11264  13.363  12.982   6.121  0.3134  0.0889 -0.0545
  725loPI   C3A11265  13.270  12.713   6.444  0.4294 -0.2789  0.0988
  725loPI   C4A11266  13.286  12.578   6.858 -0.0168 -0.0657  0.0057
  725loPI   C5A11267  13.312  12.786   7.252  0.1592 -0.2013  0.0657
  725loPI   C6A11268  13.559  13.009   7.504  0.0460 -0.0340  0.1099
  725loPI   C1B11269  14.185  12.788   5.679  0.0913 -0.1504  0.0036
  725loPI   C2B11270  14.559  12.570   5.762  0.0642  0.1492  0.0784
  725loPI   C3B11271  14.935  12.672   5.916  0.0922 -0.1011  0.0035
  725loPI   C4B11272  15.355  12.783   6.106 -0.2654  0.2534  0.1818
  726loPI    C111273   6.203   5.681   4.314 -0.0725 -0.1276  0.2544
  726loPI    C211274   6.031   5.607   3.960  0.0005 -0.1385  0.2208
  726loPI    C311275   5.981   5.962   4.137  0.1996 -0.0292  0.0617
  726loPI   PO411276   6.121   5.488   4.512 -0.0407 -0.2336 -0.1107
  726loPI   GL111277   5.999   5.272   4.982 -0.0459 -0.2538 -0.2045
  726loPI   GL211278   6.324   5.197   4.887 -0.0378 -0.3538 -0.2010
  726loPI   C1A11279   5.998   5.207   5.414  0.2934 -0.0891 -0.3557
  726loPI   C2A11280   5.898   5.266   5.790 -0.3474  0.1391 -0.0851
  726loPI   C3A11281   5.824   5.247   6.232  0.4103  0.1235 -0.2696
  726loPI   C4A11282   5.777   5.393   6.675  0.2882  0.1207  0.0347
  726loPI   C5A11283   5.670   5.452   7.101  0.1075 -0.0259 -0.3819
  726loPI   C6A11284   5.474   5.447   7.543 -0.1877  0.3686 -0.0750
  726loPI   C1B11285   6.504   5.067   5.335 -0.1688 -0.2967  0.0166
  726loPI   C2B11286   6.411   4.931   5.772  0.4486 -0.2289 -0.0229
  726loPI   C3B11287   6.488   4.939   6.231  0.0280 -0.2345 -0.0319
  726loPI   C4B11288   6.737   4.849   6.557  0.1091  0.3787 -0.2120
  727loPI    C111289  17.986  17.747   4.956 -0.0291  0.1547  0.1994
  727loPI    C211290  18.012  18.037   4.682 -0.0475  0.1438  0.1862
  727loPI    C311291  18.131  17.666   4.592 -0.1284  0.1224  0.1667
  727loPI   PO411292  18.073  17.750   5.202  0.0924  0.1861  0.2233
  727loPI   GL111293  18.343  17.537   5.414 -0.0064  0.0352 -0.2277
  727loPI   GL211294  18.192  17.783   5.687  0.2230  0.1571  0.0460
  727loPI   C1A11295  18.590  17.432   5.718 -0.0939  0.0094  0.1569
  727loPI   C2A11296  18.946  17.488   6.021  0.1143  0.0055 -0.4071
  727loPI   C3A11297  19.105  17.508   6.455 -0.0628  0.1201 -0.1317
  727loPI   C4A11298  19.282  17.156   6.733 -0.1155  0.1831 -0.0583
  727loPI   C5A11299  19.432  16.766   6.986  0.2289 -0.1646 -0.0574
  727loPI   C6A11300  19.792  16.666   7.286  0.0286  0.0956 -0.1892
  727loPI   C1B11301  18.414  17.700   6.112 -0.1044  0.1026  0.0641
  727loPI   C2B11302  18.580  17.516   6.391 -0.1521 -0.2021 -0.0698
  727loPI   C3B11303  18.765  17.169   6.588 -0.0186 -0.3655  0.0497
  727loPI   C4B11304  18.859  17.087   6.960  0.2590 -0.0237 -0.1106
  728loPI    C111305  11.357  11.246   4.746 -0.2519 -0.1694  0.0510
  728loPI    C211306  11.285  11.321   4.359  0.2448  0.0997  0.0021
  728loPI    C311307  11.486  10.992   4.464  0.0852  0.0121  0.0365
  728loPI   PO411308  11.438  11.439   4.850  0.0209 -0.1683  0.0639
  728loPI   GL111309  11.417  11.535   5.333  0.3761 -0.2896 -0.2714
  728loPI   GL211310  11.279  11.785   5.562  0.2195  0.4111  0.0763
  728loPI   C1A11311  11.759  11.516   5.675  0.0341  0.3279  0.1023
  728loPI   C2A11312  11.997  11.352   5.929 -0.1483 -0.0538 -0.0136
  728loPI   C3A11313  12.085  11.194   6.394 -0.4366 -0.0249  0.2270
  728loPI   C4A11314  12.222  10.987   6.811  0.2347  0.0899 -0.1435
  728loPI   C5A11315  12.463  10.830   7.126  0.0719 -0.0353  0.0017
  728loPI   C6A11316  12.608  10.458   7.165  0.3074  0.0099  0.4185
  728loPI   C1B11317  11.287  11.511   5.862  0.3885  0.0066 -0.1718
  728loPI   C2B11318  11.546  11.578   6.163  0.0385 -0.0984  0.3017
  728loPI   C3B11319  11.610  11.322   6.567  0.1274  0.0450 -0.3899
  728loPI   C4B11320  11.719  11.052   6.976  0.0793 -0.0968  0.1247
  729loPI    C111321   7.779  16.670   4.942  0.0652 -0.1979 -0.0954
  729loPI    C211322   7.425  16.503   5.022  0.0161  0.0353  0.1893
  729loPI    C311323   7.474  16.717   4.688  0.0481 -0.4449 -0.1226
  729loPI   PO411324   7.841  16.876   5.136  0.0596 -0.0873 -0.2111
  729loPI   GL111325   7.745  16.824   5.626 -0.0529  0.0119  0.2426
  729loPI   GL211326   7.743  17.189   5.564 -0.0682  0.0511  0.0108
  729loPI   C1A11327   7.723  16.845   6.054  0.0058 -0.3248  0.3217
  729loPI   C2A11328   7.748  16.730   6.532 -0.0377  0.0289  0.0548
  729loPI   C3A11329   7.815  16.717   6.897  0.1993  0.3155  0.3613
  729loPI   C4A11330   7.821  16.700   7.356 -0.2477 -0.0187 -0.0981
  729loPI   C5A11331   7.943  16.839   7.769 -0.0082 -0.0996 -0.1812
  729loPI   C6A11332   8.158  16.523   8.042  0.2465 -0.1228  0.1597
  729loPI   C1B11333   7.883  17.308   6.023 -0.0477 -0.1397 -0.2206
  729loPI   C2B11334   7.857  17.214   6.519  0.1809 -0.0005  0.2612
  729loPI   C3B11335   7.837  17.237   6.930 -0.0753 -0.0064 -0.0892
  729loPI   C4B11336   7.958  17.151   7.301  0.0166  0.0235  0.1639
  730loPI    C111337   3.993  11.756   5.059  0.0928 -0.4326  0.0432
  730loPI    C211338   4.071  11.748   4.667  0.0678 -0.2905  0.0348
  730loPI    C311339   3.699  11.820   4.795  0.1485  0.0475  0.0892
  730loPI   PO411340   4.167  11.578   5.139  0.1960 -0.1901  0.1592
  730loPI   GL111341   4.261  11.695   5.547  0.1448 -0.0106  0.0347
  730loPI   GL211342   4.141  11.409   5.618 -0.3163  0.0226  0.0377
  730loPI   C1A11343   4.398  11.833   5.940  0.3826 -0.1433  0.5044
  730loPI   C2A11344   4.612  11.905   6.318  0.1471  0.0346 -0.0061
  730loPI   C3A11345   4.695  11.802   6.786 -0.2002 -0.0097 -0.0372
  730loPI   C4A11346   4.800  12.182   7.019  0.1266 -0.0840  0.0324
  730loPI   C5A11347   5.055  12.469   7.051  0.0362 -0.1927  0.1418
  730loPI   C6A11348   5.247  12.837   7.056  0.1178 -0.1777  0.0895
  730loPI   C1B11349   4.425  11.353   5.930 -0.0827  0.2673 -0.0728
  730loPI   C2B11350   4.507  11.335   6.366 -0.1764  0.1833  0.1096
  730loPI   C3B11351   4.770  11.180   6.680  0.3668 -0.4315 -0.3091
  730loPI   C4B11352   4.807  11.295   7.038  0.0402  0.0246  0.1164
  731loPI    C111353  17.266  18.152   4.922 -0.0352 -0.0231 -0.0015
  731loPI    C211354  17.659  18.156   4.997 -0.0115 -0.3991 -0.0867
  731loPI    C311355  17.524  18.241   4.630 -0.0360  0.0577  0.0223
  731loPI   PO411356  17.157  18.179   5.153  0.0657  0.0662 -0.0438
  731loPI   GL111357  16.922  17.927   5.404  0.1467  0.0461 -0.3158
  731loPI   GL211358  16.655  18.031   5.427 -0.0093 -0.0945  0.2356
  731loPI   C1A11359  17.052  17.884   5.814  0.1332 -0.0653 -0.1270
  731loPI   C2A11360  17.142  18.184   6.126  0.1004  0.1225  0.0951
  731loPI   C3A11361  16.959  18.476   6.504 -0.1355 -0.0333 -0.0977
  731loPI   C4A11362  16.698  18.874   6.670  0.3718 -0.2544  0.2610
  731loPI   C5A11363  16.530  18.847   7.091 -0.2715 -0.1914 -0.2017
  731loPI   C6A11364  16.311  19.038   7.430  0.0648 -0.1481  0.1419
  731loPI   C1B11365  16.460  17.783   5.788 -0.1396  0.0185 -0.2582
  731loPI   C2B11366  16.277  17.551   6.015 -0.2159 -0.2432 -0.1264
  731loPI   C3B11367  16.092  17.362   6.431  0.0735 -0.1783  0.1177
  731loPI   C4B11368  15.903  17.197   6.811  0.0990  0.0186 -0.2193
  732loPI    C111369  11.496   2.638   5.073 -0.0074 -0.0870 -0.0028
  732loPI    C211370  11.389   2.378   4.788 -0.1170  0.0701 -0.1069
  732loPI    C311371  11.116   2.621   4.950 -0.0391  0.0367  0.0769
  732loPI   PO411372  11.729   2.374   5.215  0.3416  0.1611  0.3357
  732loPI   GL111373  11.791   2.172   5.595  0.2498  0.5092 -0.0235
  732loPI   GL211374  11.903   1.921   5.749 -0.3962  0.1168 -0.1675
  732loPI   C1A11375  11.991   2.433   5.855  0.0153 -0.4832 -0.0752
  732loPI   C2A11376  12.239   2.408   6.135  0.1124 -0.2372 -0.2320
  732loPI   C3A11377  12.163   2.208   6.514 -0.1220 -0.0306 -0.2065
  732loPI   C4A11378  12.085   2.237   6.943 -0.1209  0.1684  0.0919
  732loPI   C5A11379  12.024   2.253   7.356  0.0253  0.1665 -0.1081
  732loPI   C6A11380  11.913   2.076   7.791 -0.0140 -0.3279  0.3902
  732loPI   C1B11381  11.751   2.055   6.146 -0.0153 -0.2871 -0.3563
  732loPI   C2B11382  11.703   1.990   6.563 -0.0050 -0.2526 -0.0657
  732loPI   C3B11383  11.634   2.103   6.965 -0.0968  0.0312  0.0199
  732loPI   C4B11384  11.580   2.152   7.426  0.2038 -0.0722  0.4699
  733loPI    C111385  16.303   7.806   4.963  0.1669 -0.0699 -0.0196
  733loPI    C211386  16.122   7.763   4.609  0.1419 -0.0610 -0.0079
  733loPI    C311387  16.520   7.799   4.627  0.1146  0.3042 -0.0650
  733loPI   PO411388  16.101   8.053   5.042 -0.1931  0.1671  0.3024
  733loPI   GL111389  15.706   8.129   5.118 -0.0618 -0.0699 -0.1555
  733loPI   GL211390  15.358   8.242   5.155  0.1560  0.3873  0.0490
  733loPI   C1A11391  15.618   7.896   5.531 -0.0336 -0.2544 -0.1076
  733loPI   C2A11392  15.903   7.810   5.939 -0.0485 -0.3336 -0.0384
  733loPI   C3A11393  16.223   7.677   6.317  0.2240  0.0951 -0.1751
  733loPI   C4A11394  16.338   7.447   6.742 -0.3552 -0.1936 -0.1557
  733loPI   C5A11395  16.353   7.457   7.174 -0.1462 -0.1287 -0.0627
  733loPI   C6A11396  16.415   7.827   7.512  0.0523  0.2857  0.0424
  733loPI   C1B11397  15.444   8.476   5.544  0.1029  0.0857  0.0357
  733loPI   C2B11398  15.415   8.665   5.867  0.0686 -0.0523 -0.0957
  733loPI   C3B11399  15.113   8.484   6.169  0.0928 -0.2329  0.1150
  733loPI   C4B11400  14.933   8.292   6.495 -0.0997 -0.1381 -0.1219
  734loPI    C111401  14.900   0.140   4.798  0.0398  0.0196  0.1089
  734loPI    C211402  15.075   0.499   4.774  0.0557  0.0128  0.1242
  734loPI    C311403  15.174   0.211   4.515 -0.1885  0.1186 -0.0910
  734loPI   PO411404  14.832   0.103   5.041 -0.2576 -0.1564 -0.0053
  734loPI   GL111405  14.874   0.306   5.484 -0.0236  0.3679 -0.2357
  734loPI   GL211406  15.069   0.031   5.561  0.0246 -0.3210  0.2248
  734loPI   C1A11407  14.753   0.639   5.688 -0.2476 -0.1719 -0.0437
  734loPI   C2A11408  14.738   0.973   5.948  0.0013 -0.2221 -0.0637
  734loPI   C3A11409  14.874   1.032   6.476  0.0852  0.1431 -0.0081
  734loPI   C4A11410  15.003   1.208   6.824  0.1804  0.0660  0.2189
  734loPI   C5A11411  15.356   1.043   7.101  0.0060 -0.0598 -0.0403
  734loPI   C6A11412  15.290   0.826   7.514 -0.0331 -0.0170 -0.0054
  734loPI   C1B11413  14.833  -0.023   5.843 -0.0928  0.0617  0.0896
  734loPI   C2B11414  14.875  -0.206   6.254 -0.2698  0.2039 -0.2722
  734loPI   C3B11415  14.827  -0.419   6.508  0.1335 -0.0209  0.2343
  734loPI   C4B11416  14.446  -0.525   6.603  0.2123  0.1297  0.1131
  735loPI    C111417  11.996  17.709   4.994  0.1806 -0.1845 -0.1049
  735loPI    C211418  11.849  17.409   5.213 -0.0779 -0.0936 -0.1504
  735loPI    C311419  11.613  17.603   4.956  0.0357  0.2739  0.0164
  735loPI   PO411420  12.072  17.925   5.128 -0.1588  0.2975  0.1941
  735loPI   GL111421  12.088  17.964   5.558 -0.1718  0.0115  0.1160
  735loPI   GL211422  12.005  18.329   5.631 -0.0536  0.0018  0.0586
  735loPI   C1A11423  11.977  18.030   6.078  0.1556 -0.3069  0.1171
  735loPI   C2A11424  11.961  18.224   6.512 -0.0908  0.0228 -0.0037
  735loPI   C3A11425  11.888  18.178   6.991 -0.2342 -0.1126  0.1131
  735loPI   C4A11426  11.797  18.042   7.447 -0.0741 -0.0639 -0.0228
  735loPI   C5A11427  11.600  17.877   7.761 -0.0042 -0.2124  0.2189
  735loPI   C6A11428  11.350  17.980   7.971 -0.0534 -0.4994 -0.1739
  735loPI   C1B11429  11.856  18.553   5.986 -0.1058 -0.1620  0.3441
  735loPI   C2B11430  11.561  18.564   6.395 -0.0577  0.0911 -0.3355
  735loPI   C3B11431  11.776  18.768   6.782  0.0309 -0.0857 -0.1695
  735loPI   C4B11432  11.745  18.942   7.100  0.0146  0.2653  0.0179
  736loPI    C111433  10.088  16.500   4.782  0.1604  0.0365  0.1050
  736loPI    C211434  10.474  16.401   4.805  0.1587 -0.0385 -0.1593
  736loPI    C311435  10.230  16.200   4.559 -0.0705 -0.0557  0.0785
  736loPI   PO411436  10.050  16.603   5.087 -0.2503  0.0667 -0.3027
  736loPI   GL111437   9.650  16.588   5.346  0.0505  0.3063 -0.0024
  736loPI   GL211438   9.592  16.224   5.273 -0.0213 -0.0087  0.0696
  736loPI   C1A11439   9.753  16.776   5.737 -0.1433  0.2402 -0.3062
  736loPI   C2A11440   9.998  16.968   6.070 -0.1080 -0.0725  0.0232
  736loPI   C3A11441  10.111  17.101   6.501  0.0659  0.4751 -0.0156
  736loPI   C4A11442  10.146  17.108   6.922  0.1876 -0.1592 -0.1396
  736loPI   C5A11443  10.116  17.101   7.433  0.1857 -0.1181 -0.2500
  736loPI   C6A11444  10.025  17.507   7.630  0.3977  0.1730  0.1716
  736loPI   C1B11445   9.634  16.266   5.747  0.1604  0.5219 -0.0519
  736loPI   C2B11446   9.535  16.336   6.181 -0.1510  0.1421  0.2894
  736loPI   C3B11447   9.428  16.386   6.583  0.0231  0.0166  0.1722
  736loPI   C4B11448   9.561  16.182   6.943  0.3236  0.1549  0.1111
  737loPI    C111449  14.439   0.035   4.640 -0.0909  0.2687  0.2788
  737loPI    C211450  14.060   0.034   4.513 -0.0426  0.0638  0.1295
  737loPI    C311451  14.354  -0.076   4.265  0.1186  0.2462  0.2363
  737loPI   PO411452  14.342  -0.038   4.926  0.1929  0.1551 -0.2227
  737loPI   GL111453  14.418  -0.063   5.307 -0.3239  0.0197 -0.1798
  737loPI   GL211454  14.583  -0.232   5.367 -0.0775 -0.0471 -0.1196
  737loPI   C1A11455  14.368   0.327   5.638  0.1313  0.4274  0.3067
  737loPI   C2A11456  14.523   0.394   6.066 -0.0041  0.1602  0.0415
  737loPI   C3A11457  14.455   0.795   6.349 -0.2672  0.0889  0.0522
  737loPI   C4A11458  14.479   0.746   6.851 -0.1624 -0.3318 -0.1747
  737loPI   C5A11459  14.671   0.996   7.140  0.0002  0.2241 -0.1807
  737loPI   C6A11460  14.954   1.276   7.322 -0.1729 -0.1150  0.1766
  737loPI   C1B11461  14.348  -0.505   5.650 -0.0820  0.0637 -0.0494
  737loPI   C2B11462  14.251  -0.555   6.125  0.0735 -0.4484 -0.1550
  737loPI   C3B11463  13.986  -0.784   6.342 -0.2864  0.0138  0.1906
  737loPI   C4B11464  14.044  -0.853   6.829  0.0131  0.2692  0.1060
  738loPI    C111465  10.214  14.466   4.592 -0.0543  0.1403  0.0213
  738loPI    C211466  10.476  14.669   4.368 -0.0133 -0.0647 -0.1193
  738loPI    C311467  10.101  14.616   4.239 -0.0646  0.0436 -0.0168
  738loPI   PO411468  10.363  14.525   4.814 -0.1472  0.1369 -0.1084
  738loPI   GL111469  10.421  14.411   5.247  0.0916  0.3111  0.0448
  738loPI   GL211470  10.470  14.857   5.268  0.0834 -0.2061  0.1023
  738loPI   C1A11471  10.338  14.361   5.804  0.1006 -0.3256  0.2432
  738loPI   C2A11472  10.270  14.389   6.193 -0.1820 -0.1386 -0.1050
  738loPI   C3A11473  10.236  14.330   6.642  0.0353 -0.1636  0.1208
  738loPI   C4A11474  10.133  14.422   6.936 -0.3612 -0.4772  0.1104
  738loPI   C5A11475  10.011  14.388   7.456 -0.2516  0.0373  0.2111
  738loPI   C6A11476   9.650  14.165   7.464 -0.1517  0.2123 -0.1029
  738loPI   C1B11477  10.514  14.877   5.667 -0.1771  0.1159 -0.0124
  738loPI   C2B11478  10.572  14.994   6.066  0.0692  0.2667  0.1805
  738loPI   C3B11479  10.836  15.156   6.369 -0.1193  0.2829 -0.2173
  738loPI   C4B11480  11.076  15.408   6.612  0.2966  0.1517 -0.0267
  739loPI    C111481  18.851   0.344   5.019  0.0486 -0.0532  0.0195
  739loPI    C211482  18.671   0.029   5.188 -0.1122  0.0150 -0.0230
  739loPI    C311483  18.645   0.086   4.793  0.0783 -0.0236 -0.0417
  739loPI   PO411484  19.096   0.337   5.203 -0.1455 -0.4071 -0.1038
  739loPI   GL111485  19.155   0.602   5.469  0.0103 -0.1979 -0.2655
  739loPI   GL211486  19.458   0.399   5.547  0.0373 -0.1059  0.0166
  739loPI   C1A11487  19.152   0.757   5.803 -0.1890  0.2974  0.1714
  739loPI   C2A11488  19.086   0.655   6.182  0.1823  0.0096 -0.1941
  739loPI   C3A11489  19.193   0.534   6.498  0.0972 -0.0472  0.1407
  739loPI   C4A11490  19.154   0.365   6.847  0.1722  0.0287  0.3377
  739loPI   C5A11491  19.144   0.631   7.152 -0.0840  0.0459 -0.2640
  739loPI   C6A11492  19.201   0.946   7.617 -0.1140  0.0447 -0.1588
  739loPI   C1B11493  19.509   0.394   5.964  0.0389  0.1242 -0.2993
  739loPI   C2B11494  19.645   0.506   6.310  0.0602  0.0226  0.2499
  739loPI   C3B11495  19.768   0.547   6.740  0.1995  0.0489 -0.0567
  739loPI   C4B11496  19.650   0.726   7.133  0.2640 -0.2278  0.0826
  740loPI    C111497   4.461  15.136   5.068  0.1168  0.2809 -0.0126
  740loPI    C211498   4.241  14.980   4.772 -0.2185  0.0709  0.3376
  740loPI    C311499   4.217  15.371   4.854  0.1015  0.1900 -0.0960
  740loPI   PO411500   4.458  14.921   5.270  0.2930 -0.0498 -0.1293
  740loPI   GL111501   4.498  14.689   5.647  0.1202 -0.1946 -0.1240
  740loPI   GL211502   4.204  14.869   5.660 -0.1454 -0.1049  0.1321
  740loPI   C1A11503   4.589  14.509   5.952 -0.1368 -0.1899  0.2514
  740loPI   C2A11504   4.557  14.244   6.270  0.0338  0.1215 -0.0816
  740loPI   C3A11505   4.424  14.298   6.724  0.0635  0.2709  0.1997
  740loPI   C4A11506   4.694  14.371   7.087  0.3628  0.0327 -0.0880
  740loPI   C5A11507   5.045  14.240   7.277 -0.2602  0.2373  0.1531
  740loPI   C6A11508   5.347  14.086   7.664  0.2825 -0.1255  0.0191
  740loPI   C1B11509   4.179  14.769   6.103  0.2799 -0.0294 -0.1318
  740loPI   C2B11510   4.442  14.704   6.447 -0.2510  0.1564  0.2228
  740loPI   C3B11511   4.648  14.843   6.834  0.1076  0.3043  0.2745
  740loPI   C4B11512   5.092  14.726   7.050  0.1137  0.0731  0.0116
  741loPI    C111513   1.123  17.717   4.733  0.4288 -0.1883 -0.2360
  741loPI    C211514   0.818  17.531   4.552  0.1665 -0.1332  0.1369
  741loPI    C311515   1.008  17.831   4.367  0.2541 -0.4234 -0.2572
  741loPI   PO411516   1.186  17.596   5.005  0.1655 -0.2958 -0.0032
  741loPI   GL111517   0.970  17.510   5.340  0.2843 -0.0256 -0.0383
  741loPI   GL211518   0.724  17.728   5.514 -0.1211  0.1128 -0.0912
  741loPI   C1A11519   1.246  17.288   5.595 -0.2917  0.1939 -0.1218
  741loPI   C2A11520   1.477  17.203   5.996  0.2710  0.1982  0.2546
  741loPI   C3A11521   1.645  17.267   6.395  0.0976  0.0859  0.0578
  741loPI   C4A11522   1.605  17.071   6.725 -0.0285 -0.1818 -0.0131
  741loPI   C5A11523   1.545  17.139   7.178  0.2134 -0.3070  0.1931
  741loPI   C6A11524   1.395  17.165   7.587 -0.4789 -0.0772 -0.1530
  741loPI   C1B11525   0.831  17.649   5.941  0.0129  0.2810 -0.0575
  741loPI   C2B11526   0.848  17.790   6.363 -0.1821 -0.0290 -0.0526
  741loPI   C3B11527   0.923  18.127   6.574  0.0797 -0.0064 -0.2775
  741loPI   C4B11528   0.983  18.481   6.563 -0.1506  0.0616 -0.1321
  742loPI    C111529  13.951  11.100   5.148 -0.0535 -0.0973  0.0434
  742loPI    C211530  13.621  11.129   4.923 -0.0019  0.1900  0.0008
  742loPI    C311531  13.972  11.038   4.754 -0.0156  0.1203  0.0095
  742loPI   PO411532  13.993  11.327   5.235 -0.0845  0.0583  0.1391
  742loPI   GL111533  13.879  11.501   5.618  0.1927 -0.1843 -0.0088
  742loPI   GL211534  13.958  11.156   5.732  0.2043  0.0732  0.0360
  742loPI   C1A11535  14.174  11.630   6.012 -0.0046 -0.0874  0.1037
  742loPI   C2A11536  14.623  11.759   6.155  0.1858  0.0569  0.1005
  742loPI   C3A11537  15.105  11.878   6.340  0.0013 -0.0886 -0.0307
  742loPI   C4A11538  15.210  12.100   6.774  0.0206 -0.3280  0.2603
  742loPI   C5A11539  15.507  11.949   7.114  0.3289 -0.0836 -0.1666
  742loPI   C6A11540  15.883  11.983   7.325  0.1736 -0.1081  0.0774
  742loPI   C1B11541  14.039  11.201   6.119 -0.1007  0.2490  0.2206
  742loPI   C2B11542  14.100  11.550   6.508 -0.0029  0.3951 -0.1532
  742loPI   C3B11543  14.249  11.674   6.936 -0.0829 -0.0754  0.3659
  742loPI   C4B11544  14.600  11.974   7.222 -0.2461  0.0763  0.0926
  743loPI    C111545   1.319  14.850   4.797 -0.0240 -0.1751 -0.2070
  743loPI    C211546   1.138  15.152   4.606  0.0840  0.0665  0.0648
  743loPI    C311547   1.537  15.135   4.620  0.0783 -0.0852  0.0594
  743loPI   PO411548   1.182  14.932   5.073 -0.0979 -0.0511 -0.2688
  743loPI   GL111549   1.300  14.725   5.437  0.2088  0.0762  0.1064
  743loPI   GL211550   1.432  14.983   5.573  0.0036  0.1013 -0.0949
  743loPI   C1A11551   1.015  14.653   5.751 -0.0549 -0.2174 -0.1055
  743loPI   C2A11552   0.860  14.552   6.190  0.0711  0.2652  0.0321
  743loPI   C3A11553   0.901  14.390   6.549  0.0912 -0.1125 -0.2084
  743loPI   C4A11554   1.058  14.102   6.813 -0.0931 -0.4495 -0.0937
  743loPI   C5A11555   0.926  13.862   7.151  0.0872  0.1307  0.1246
  743loPI   C6A11556   1.236  13.587   7.431  0.0537  0.0087  0.0000
  743loPI   C1B11557   1.333  14.930   5.968  0.0978  0.1639  0.1597
  743loPI   C2B11558   1.212  14.840   6.356  0.1615  0.1716 -0.2413
  743loPI   C3B11559   1.275  14.769   6.831 -0.1008  0.1886  0.0293
  743loPI   C4B11560   1.427  14.809   7.224  0.0755  0.1241 -0.1246
  744loPI    C111561   3.127  10.142   4.994  0.0676  0.0114 -0.0427
  744loPI    C211562   3.242   9.879   4.716 -0.1509  0.0785 -0.1995
  744loPI    C311563   3.467  10.200   4.793  0.0910 -0.1250 -0.0432
  744loPI   PO411564   3.078  10.114   5.172 -0.0988  0.0892  0.0275
  744loPI   GL111565   2.966   9.913   5.504 -0.0180 -0.0979  0.0847
  744loPI   GL211566   3.113   9.652   5.608  0.1140 -0.4898 -0.0525
  744loPI   C1A11567   2.631   9.753   5.697 -0.0151  0.0870 -0.0072
  744loPI   C2A11568   2.537   9.409   5.947 -0.1194 -0.3225  0.0698
  744loPI   C3A11569   2.575   9.455   6.348  0.1277 -0.3787 -0.1159
  744loPI   C4A11570   2.626   9.509   6.865  0.0811  0.1606 -0.0442
  744loPI   C5A11571   2.646  10.002   7.154 -0.0016  0.2699  0.3954
  744loPI   C6A11572   2.835  10.124   7.530 -0.3253  0.2279  0.2951
  744loPI   C1B11573   3.056   9.575   6.057 -0.1244  0.0140 -0.1489
  744loPI   C2B11574   3.127   9.439   6.477  0.0877 -0.0305 -0.3642
  744loPI   C3B11575   3.147   9.418   6.935  0.1057  0.1171 -0.0910
  744loPI   C4B11576   3.262   9.237   7.301  0.0933 -0.1778  0.3177
  745loPI    C111577  15.646  12.039   4.243 -0.0523  0.0145  0.3194
  745loPI    C211578  15.798  11.705   4.083 -0.0727  0.1158  0.0839
  745loPI    C311579  16.007  12.045   4.070 -0.1914  0.1871  0.0279
  745loPI   PO411580  15.636  11.983   4.482  0.0448 -0.1243  0.1188
  745loPI   GL111581  15.676  12.264   4.910  0.1240 -0.0059  0.0400
  745loPI   GL211582  15.849  12.075   4.916  0.0782  0.0938  0.1268
  745loPI   C1A11583  15.444  12.278   5.306 -0.1067 -0.0428  0.2325
  745loPI   C2A11584  15.376  12.573   5.654 -0.0519  0.2449 -0.1480
  745loPI   C3A11585  15.758  12.802   5.734 -0.1763  0.2464  0.0101
  745loPI   C4A11586  16.127  12.748   5.428 -0.0612  0.0040 -0.0375
  745loPI   C5A11587  16.440  13.005   5.425 -0.0085  0.0058 -0.0853
  745loPI   C6A11588  16.510  13.269   5.698 -0.0583  0.0692  0.2410
  745loPI   C1B11589  16.070  12.223   5.375 -0.1971 -0.2697  0.0300
  745loPI   C2B11590  16.073  12.262   5.854 -0.1042  0.1670  0.0086
  745loPI   C3B11591  15.713  12.290   5.939  0.0426  0.2109 -0.2000
  745loPI   C4B11592  15.325  12.279   6.225 -0.0644  0.2958  0.2240
  746loPI    C111593   5.966   3.975   4.632  0.0607 -0.0613 -0.0023
  746loPI    C211594   6.116   4.325   4.511 -0.0395  0.0700  0.2446
  746loPI    C311595   6.350   4.000   4.523  0.0681  0.1389  0.0667
  746loPI   PO411596   5.755   4.005   4.866 -0.1311  0.1544 -0.0409
  746loPI   GL111597   5.564   3.890   5.241 -0.3201 -0.0917 -0.2760
  746loPI   GL211598   5.987   3.792   5.358  0.0656 -0.0744  0.0397
  746loPI   C1A11599   5.574   3.979   5.623 -0.2275 -0.1249 -0.3700
  746loPI   C2A11600   5.491   3.914   5.997 -0.1623 -0.3208 -0.2598
  746loPI   C3A11601   5.348   4.028   6.481  0.1715 -0.1647  0.1171
  746loPI   C4A11602   5.264   4.089   6.947  0.0740  0.1984 -0.0757
  746loPI   C5A11603   5.327   4.300   7.395 -0.1578  0.0586 -0.0837
  746loPI   C6A11604   5.284   4.774   7.394 -0.3511 -0.3152  0.3991
  746loPI   C1B11605   6.030   3.755   5.766  0.0391 -0.0339  0.0768
  746loPI   C2B11606   6.003   3.581   6.172 -0.0583  0.0991  0.0161
  746loPI   C3B11607   6.056   3.607   6.575 -0.0606  0.4048  0.1755
  746loPI   C4B11608   6.108   3.536   6.997  0.1560 -0.1124 -0.1928
  747loPI    C111609   5.483   5.414   4.595 -0.0901  0.0724  0.2253
  747loPI    C211610   5.221   5.437   4.294  0.1134  0.2027  0.0554
  747loPI    C311611   5.613   5.462   4.220  0.1620  0.3253  0.3413
  747loPI   PO411612   5.323   5.593   4.777 -0.0407  0.5061  0.1383
  747loPI   GL111613   5.638   5.633   5.120  0.0154 -0.2417  0.1145
  747loPI   GL211614   5.897   5.778   5.066 -0.1122  0.1871  0.1510
  747loPI   C1A11615   5.439   5.663   5.522 -0.0611  0.3726 -0.1235
  747loPI   C2A11616   5.454   5.846   5.965 -0.0817  0.2218 -0.0633
  747loPI   C3A11617   5.282   6.023   6.328  0.2187  0.0547 -0.0490
  747loPI   C4A11618   5.264   6.415   6.623 -0.1530  0.0843 -0.0138
  747loPI   C5A11619   5.339   6.723   6.986 -0.3552  0.1839 -0.0428
  747loPI   C6A11620   5.287   7.066   7.329 -0.1151 -0.1727 -0.2215
  747loPI   C1B11621   5.909   5.709   5.526  0.0181  0.0824 -0.0753
  747loPI   C2B11622   5.966   5.699   5.970 -0.0414  0.1310  0.0225
  747loPI   C3B11623   5.830   5.817   6.360  0.1435  0.2256  0.3670
  747loPI   C4B11624   5.557   5.822   6.706  0.0091  0.0877  0.0139
  748loPI    C111625   6.439   1.000   4.445 -0.0493 -0.0891  0.0158
  748loPI    C211626   6.632   0.670   4.326  0.2307  0.0517  0.0725
  748loPI    C311627   6.796   1.030   4.267 -0.0647  0.1815  0.0273
  748loPI   PO411628   6.435   0.868   4.787  0.0319 -0.1403  0.0720
  748loPI   GL111629   6.176   0.908   5.096 -0.0373 -0.1072 -0.0653
  748loPI   GL211630   6.425   0.725   5.319 -0.2088  0.0807  0.1488
  748loPI   C1A11631   5.821   0.756   5.448  0.1330 -0.1679  0.1966
  748loPI   C2A11632   5.685   0.849   5.830  0.1888 -0.1584 -0.0726
  748loPI   C3A11633   5.706   0.814   6.312  0.4049 -0.3097 -0.1312
  748loPI   C4A11634   5.430   0.893   6.651 -0.2758  0.3719  0.1025
  748loPI   C5A11635   5.424   0.967   7.072  0.0084  0.2909  0.1552
  748loPI   C6A11636   5.713   1.046   7.387  0.4154  0.1495  0.2295
  748loPI   C1B11637   6.453   0.500   5.717 -0.2448 -0.1038 -0.0257
  748loPI   C2B11638   6.663   0.343   6.124  0.0055 -0.1069  0.0691
  748loPI   C3B11639   6.826   0.304   6.552  0.0534  0.1252  0.2148
  748loPI   C4B11640   6.944   0.134   7.029 -0.3575  0.0845  0.1838
  749loPI    C111641   0.182   7.733   4.951  0.0646  0.0944  0.0685
  749loPI    C211642   0.089   7.953   4.630  0.1519  0.1003  0.0470
  749loPI    C311643  -0.015   7.567   4.646  0.2405  0.0728 -0.0344
  749loPI   PO411644   0.113   7.786   5.167  0.1397 -0.1504 -0.1292
  749loPI   GL111645   0.289   7.693   5.556 -0.2071  0.1392 -0.1337
  749loPI   GL211646   0.120   7.483   5.556  0.1617  0.0493 -0.1328
  749loPI   C1A11647   0.197   7.805   6.095  0.2218  0.5517  0.0990
  749loPI   C2A11648   0.323   7.801   6.574 -0.3363  0.3077 -0.2290
  749loPI   C3A11649   0.482   7.410   6.730  0.1041 -0.0756  0.1926
  749loPI   C4A11650   0.610   7.176   7.123 -0.4671 -0.5833 -0.0571
  749loPI   C5A11651   0.995   6.941   7.158  0.1925  0.2709 -0.1862
  749loPI   C6A11652   1.075   6.556   7.313 -0.2699  0.0405 -0.0851
  749loPI   C1B11653  -0.087   7.334   5.888  0.0730  0.0515 -0.1779
  749loPI   C2B11654  -0.436   7.396   6.140 -0.0806  0.4523 -0.0861
  749loPI   C3B11655  -0.631   7.675   6.188 -0.0191  0.2158  0.0846
  749loPI   C4B11656  -0.756   7.998   6.545 -0.0818  0.0641 -0.2791
  750loPI    C111657  17.499   6.687   4.693  0.0976 -0.0648 -0.0506
  750loPI    C211658  17.738   6.635   4.377  0.0836 -0.0274 -0.0672
  750loPI    C311659  17.875   6.824   4.701  0.0474  0.0782 -0.1129
  750loPI   PO411660  17.487   6.407   4.819  0.2865 -0.1995  0.2056
  750loPI   GL111661  17.762   6.333   5.159 -0.3924  0.0711  0.0660
  750loPI   GL211662  17.588   6.096   5.279 -0.1915 -0.3032  0.0442
  750loPI   C1A11663  18.085   6.172   5.459  0.0092  0.5229  0.1184
  750loPI   C2A11664  18.509   6.077   5.819  0.0598  0.2237 -0.2575
  750loPI   C3A11665  18.562   6.144   6.333 -0.1954 -0.0141  0.1799
  750loPI   C4A11666  18.604   6.173   6.651 -0.0209 -0.0359  0.1778
  750loPI   C5A11667  18.571   6.104   7.005  0.0845 -0.0600 -0.1628
  750loPI   C6A11668  18.493   6.431   7.237 -0.1286 -0.2755 -0.2265
  750loPI   C1B11669  17.531   6.147   5.690  0.0169 -0.3599  0.2334
  750loPI   C2B11670  17.808   6.324   6.010 -0.3006 -0.0769 -0.1118
  750loPI   C3B11671  18.104   6.297   6.315 -0.0069  0.0745 -0.0166
  750loPI   C4B11672  18.295   6.668   6.473  0.0303 -0.0801  0.0266
  751loPI    C111673  14.452   6.900   4.742 -0.0894  0.0617 -0.0979
  751loPI    C211674  14.750   7.128   4.604 -0.0981  0.0003 -0.2197
  751loPI    C311675  14.411   7.092   4.394 -0.1008 -0.1164 -0.1963
  751loPI   PO411676  14.450   6.909   4.989 -0.0097 -0.0822  0.1739
  751loPI   GL111677  14.547   6.786   5.277  0.2234 -0.0082  0.2478
  751loPI   GL211678  14.335   6.532   5.411  0.7531 -0.0560 -0.4418
  751loPI   C1A11679  14.439   7.003   5.630 -0.1671 -0.2543  0.0850
  751loPI   C2A11680  14.264   7.295   5.925 -0.0891 -0.0087 -0.3375
  751loPI   C3A11681  14.281   7.426   6.370  0.4027 -0.1252  0.3956
  751loPI   C4A11682  14.363   7.480   6.790 -0.1476  0.2081 -0.2852
  751loPI   C5A11683  14.451   7.590   7.225  0.0323 -0.0160 -0.1521
  751loPI   C6A11684  14.886   7.792   7.370 -0.0754 -0.1916 -0.2622
  751loPI   C1B11685  14.087   6.435   5.751  0.1862 -0.1332 -0.0376
  751loPI   C2B11686  14.127   6.471   6.174  0.1583 -0.0937 -0.0779
  751loPI   C3B11687  14.142   6.561   6.668 -0.1449 -0.0491  0.0316
  751loPI   C4B11688  14.155   6.670   7.202 -0.2753 -0.3199  0.0346
  752loPI    C111689  18.531  17.907   4.759 -0.0370  0.1755 -0.0644
  752loPI    C211690  18.593  17.648   4.461  0.3093 -0.0084  0.1605
  752loPI    C311691  18.699  18.031   4.418  0.0529  0.0399 -0.0700
  752loPI   PO411692  18.506  17.912   5.028 -0.1263 -0.1290  0.0739
  752loPI   GL111693  18.605  18.033   5.407 -0.0796 -0.1852 -0.2102
  752loPI   GL211694  18.347  18.228   5.610 -0.2900 -0.1394  0.0466
  752loPI   C1A11695  18.724  17.884   5.724 -0.2684  0.2226  0.2390
  752loPI   C2A11696  19.137  17.940   5.967 -0.1554  0.1378 -0.2653
  752loPI   C3A11697  19.079  18.098   6.428  0.2940  0.0834  0.0008
  752loPI   C4A11698  19.117  18.023   6.891 -0.3210  0.3702 -0.2684
  752loPI   C5A11699  19.027  18.049   7.296 -0.2889 -0.1291 -0.0754
  752loPI   C6A11700  19.112  18.393   7.679 -0.1909 -0.0885 -0.1259
  752loPI   C1B11701  18.163  18.144   6.093 -0.0003 -0.2427  0.2145
  752loPI   C2B11702  18.058  18.048   6.602  0.3683 -0.1238  0.2076
  752loPI   C3B11703  17.885  18.064   7.031  0.1948 -0.3680  0.2159
  752loPI   C4B11704  17.667  18.103   7.430  0.0087 -0.0508  0.0560
  753loPI    C111705  15.398   9.882   5.048 -0.1681  0.0488  0.0082
  753loPI    C211706  15.573  10.201   4.881 -0.0248 -0.0089  0.0459
  753loPI    C311707  15.236  10.245   5.093 -0.1502  0.0795 -0.1678
  753loPI   PO411708  15.611   9.782   5.172  0.1054  0.0179 -0.1002
  753loPI   GL111709  15.805   9.745   5.538 -0.3539 -0.0126 -0.1639
  753loPI   GL211710  16.098   9.762   5.516 -0.5130 -0.2190  0.3357
  753loPI   C1A11711  16.052   9.418   5.806 -0.3221 -0.0463 -0.0624
  753loPI   C2A11712  16.262   9.158   6.167 -0.0932  0.0716 -0.0662
  753loPI   C3A11713  16.328   9.202   6.645 -0.0824 -0.0048  0.1650
  753loPI   C4A11714  16.479   9.023   7.098 -0.5894  0.1740 -0.0114
  753loPI   C5A11715  16.806   8.767   7.147  0.1409  0.1283  0.2107
  753loPI   C6A11716  17.228   8.593   7.160 -0.0357  0.1360  0.2488
  753loPI   C1B11717  16.083   9.834   6.030  0.0770 -0.2319 -0.1506
  753loPI   C2B11718  16.047   9.705   6.365  0.1518 -0.0704 -0.0351
  753loPI   C3B11719  16.218   9.669   6.783 -0.3088 -0.1271 -0.0249
  753loPI   C4B11720  16.658   9.422   6.961  0.1200  0.1152  0.3657
  754loPI    C111721   8.576   8.728   4.904 -0.1362  0.1884  0.0733
  754loPI    C211722   8.915   8.851   4.731 -0.0051 -0.1852  0.0557
  754loPI    C311723   8.562   8.938   4.564  0.0998 -0.1392 -0.1458
  754loPI   PO411724   8.639   8.767   5.178  0.0703 -0.2279 -0.3094
  754loPI   GL111725   8.889   8.565   5.602  0.2447  0.1440 -0.1814
  754loPI   GL211726   8.793   8.869   5.691  0.2373 -0.3455  0.2447
  754loPI   C1A11727   9.225   8.709   5.881 -0.1125  0.2556 -0.0530
  754loPI   C2A11728   9.537   8.869   6.215 -0.0850  0.0025 -0.0726
  754loPI   C3A11729   9.683   8.931   6.605 -0.1260 -0.0728 -0.0587
  754loPI   C4A11730   9.816   9.367   6.692 -0.1039 -0.1829  0.0495
  754loPI   C5A11731   9.979   9.696   6.932  0.2253 -0.1475  0.1403
  754loPI   C6A11732  10.110   9.599   7.293  0.1577 -0.0878  0.1623
  754loPI   C1B11733   8.757   8.788   6.077 -0.0239  0.3228  0.1479
  754loPI   C2B11734   8.518   8.829   6.460  0.2720  0.1128  0.0998
  754loPI   C3B11735   8.700   8.920   6.815  0.2131  0.2169 -0.1168
  754loPI   C4B11736   8.788   8.708   7.215 -0.1270 -0.0398 -0.1727
  755loPI    C111737  12.309   0.570   5.133  0.0926 -0.1339  0.0311
  755loPI    C211738  12.221   0.708   4.768  0.0169 -0.1119  0.0576
  755loPI    C311739  12.386   0.346   4.810  0.0206 -0.1168  0.0018
  755loPI   PO411740  12.174   0.763   5.262  0.1446 -0.0357 -0.0230
  755loPI   GL111741  12.121   0.879   5.610  0.3288  0.2537  0.2121
  755loPI   GL211742  11.900   0.864   5.901  0.0482 -0.2463 -0.2318
  755loPI   C1A11743  12.314   1.132   5.910 -0.0159  0.0374 -0.0954
  755loPI   C2A11744  12.355   1.255   6.363  0.1703 -0.1688 -0.2325
  755loPI   C3A11745  12.482   1.309   6.768 -0.0831 -0.2499  0.3384
  755loPI   C4A11746  12.648   1.488   7.077 -0.0578  0.1032 -0.2194
  755loPI   C5A11747  13.068   1.397   7.387  0.1487  0.1019  0.0381
  755loPI   C6A11748  13.275   1.183   7.692 -0.0143 -0.0633 -0.0193
  755loPI   C1B11749  11.889   1.041   6.299  0.0712  0.1215  0.0914
  755loPI   C2B11750  11.991   1.287   6.644  0.2432 -0.0067 -0.0143
  755loPI   C3B11751  12.068   1.276   7.037  0.0213 -0.1912  0.1366
  755loPI   C4B11752  11.908   1.083   7.515 -0.1075 -0.0220 -0.2879
  756loPI    C111753  13.386   6.148   4.999 -0.0240  0.1015  0.1129
  756loPI    C211754  13.075   6.354   4.855  0.1321  0.2258 -0.0531
  756loPI    C311755  13.315   6.155   4.605 -0.0568 -0.2226  0.1105
  756loPI   PO411756  13.561   6.304   5.079 -0.2856 -0.2241  0.0426
  756loPI   GL111757  13.633   6.411   5.488  0.2858  0.1203 -0.0278
  756loPI   GL211758  13.622   6.686   5.477  0.1989 -0.1182 -0.1698
  756loPI   C1A11759  13.321   6.150   5.633 -0.0002 -0.0923 -0.1663
  756loPI   C2A11760  13.106   6.082   6.103 -0.2516 -0.0110  0.2987
  756loPI   C3A11761  12.960   5.988   6.449  0.1252 -0.0257  0.0344
  756loPI   C4A11762  12.678   5.992   6.825  0.2945 -0.1685 -0.1308
  756loPI   C5A11763  12.297   6.207   6.881  0.1258 -0.0612  0.0337
  756loPI   C6A11764  12.148   6.646   7.131 -0.0054  0.0305 -0.0158
  756loPI   C1B11765  13.703   6.640   5.935 -0.0335 -0.1105  0.1848
  756loPI   C2B11766  13.672   6.587   6.406  0.0940  0.4580 -0.1905
  756loPI   C3B11767  13.583   6.576   6.812 -0.0322 -0.1231 -0.3322
  756loPI   C4B11768  13.296   6.542   7.191  0.3265 -0.2792 -0.0249
  757loPI    C111769  11.696   4.914   4.865 -0.1308  0.0213  0.0102
  757loPI    C211770  12.055   4.910   4.689 -0.0494 -0.0307  0.1757
  757loPI    C311771  11.725   4.951   4.467  0.0550 -0.0359  0.0173
  757loPI   PO411772  11.702   4.793   4.996 -0.2762 -0.1661 -0.1101
  757loPI   GL111773  11.715   4.872   5.431  0.0455  0.0486 -0.1893
  757loPI   GL211774  11.604   4.959   5.673 -0.2037  0.1640 -0.0316
  757loPI   C1A11775  11.717   4.427   5.608  0.1296  0.0859 -0.2652
  757loPI   C2A11776  11.731   4.019   5.871 -0.1194  0.0253  0.2252
  757loPI   C3A11777  11.727   3.824   6.297 -0.1211 -0.3351 -0.2792
  757loPI   C4A11778  11.831   3.891   6.794 -0.1978  0.0094  0.2153
  757loPI   C5A11779  11.802   4.063   7.168  0.0011  0.1683 -0.0903
  757loPI   C6A11780  11.538   4.118   7.498 -0.0214  0.1170 -0.0298
  757loPI   C1B11781  11.504   5.102   6.045  0.2712  0.2174  0.1905
  757loPI   C2B11782  11.469   5.525   6.160 -0.0185  0.1096  0.1221
  757loPI   C3B11783  11.305   6.015   5.986 -0.0412  0.1864 -0.0710
  757loPI   C4B11784  11.337   6.065   5.603 -0.1019  0.2169 -0.4028
  758loPI    C111785   2.272   2.022   4.810  0.1121  0.2677  0.1020
  758loPI    C211786   2.529   2.149   4.531 -0.1648  0.5700 -0.0220
  758loPI    C311787   2.203   1.942   4.424 -0.0537  0.3161  0.1207
  758loPI   PO411788   2.314   2.255   5.012  0.0009 -0.0582  0.2178
  758loPI   GL111789   2.570   2.446   5.329  0.1658 -0.2127 -0.2986
  758loPI   GL211790   2.444   2.076   5.451 -0.4121  0.0975 -0.0743
  758loPI   C1A11791   2.403   2.537   5.655  0.1589 -0.1220  0.3730
  758loPI   C2A11792   2.251   2.474   6.122 -0.0169 -0.0039 -0.0450
  758loPI   C3A11793   2.384   2.493   6.348 -0.2187  0.1428 -0.1375
  758loPI   C4A11794   2.284   2.254   6.744  0.0935 -0.0823 -0.1639
  758loPI   C5A11795   2.303   2.339   7.255  0.0657 -0.0524 -0.0703
  758loPI   C6A11796   2.685   2.436   7.586  0.1592 -0.1996 -0.0287
  758loPI   C1B11797   2.311   2.022   5.861  0.0334  0.0128 -0.0055
  758loPI   C2B11798   2.234   1.897   6.217 -0.0382  0.1653  0.1913
  758loPI   C3B11799   2.279   1.751   6.526 -0.1305  0.0339  0.1150
  758loPI   C4B11800   2.098   1.830   6.881 -0.1992  0.4000 -0.1229
  759loPI    C111801   5.304   8.252   4.348  0.0975 -0.0410  0.0665
  759loPI    C211802   5.176   8.604   4.208 -0.0123 -0.0925  0.0360
  759loPI    C311803   5.186   8.285   3.967 -0.0454 -0.1429  0.1010
  759loPI   PO411804   5.233   8.189   4.603 -0.0625  0.2285  0.0778
  759loPI   GL111805   5.419   8.130   5.023 -0.1810 -0.0140  0.1294
  759loPI   GL211806   5.139   8.065   5.254  0.0034 -0.3519  0.4888
  759loPI   C1A11807   5.580   7.928   5.490  0.2931  0.0024 -0.0239
  759loPI   C2A11808   5.441   7.915   5.902  0.2250 -0.1352  0.2891
  759loPI   C3A11809   5.360   8.188   6.206  0.0202  0.0247 -0.0025
  759loPI   C4A11810   5.574   8.468   6.519 -0.2660  0.0618 -0.0696
  759loPI   C5A11811   5.635   8.675   6.973  0.1917 -0.2070  0.3232
  759loPI   C6A11812   5.493   8.751   7.412  0.1396  0.0524 -0.1435
  759loPI   C1B11813   4.923   8.306   5.514  0.1408  0.1798  0.2243
  759loPI   C2B11814   4.905   8.257   6.031  0.1897 -0.0128  0.1708
  759loPI   C3B11815   4.995   8.315   6.510  0.3506  0.1497 -0.0622
  759loPI   C4B11816   5.074   8.239   6.920 -0.1288  0.1634 -0.0276
  760loPI    C111817  13.483  18.977   4.966  0.1362  0.1715  0.0329
  760loPI    C211818  13.855  18.853   4.888  0.0886  0.0675 -0.0321
  760loPI    C311819  13.592  18.897   4.590 -0.0503 -0.1873  0.0499
  760loPI   PO411820  13.509  19.137   5.126  0.3150  0.0552 -0.1333
  760loPI   GL111821  13.576  19.063   5.468  0.1627  0.4152  0.2143
  760loPI   GL211822  13.867  18.839   5.384  0.2142  0.0752  0.1279
  760loPI   C1A11823  13.526  19.162   5.884 -0.3554 -0.0835  0.2722
  760loPI   C2A11824  13.592  19.198   6.277  0.2050  0.0523  0.3262
  760loPI   C3A11825  13.659  19.212   6.680  0.1490 -0.0800  0.0355
  760loPI   C4A11826  13.536  19.468   7.087 -0.1002  0.0649 -0.0103
  760loPI   C5A11827  13.332  19.457   7.474 -0.0983 -0.2512  0.1116
  760loPI   C6A11828  13.071  19.546   7.860  0.0885  0.2814 -0.1403
  760loPI   C1B11829  14.159  19.032   5.693 -0.2162 -0.0375  0.0925
  760loPI   C2B11830  14.389  19.034   6.019 -0.0011  0.3528 -0.1334
  760loPI   C3B11831  14.489  19.143   6.378  0.0552  0.2013 -0.1204
  760loPI   C4B11832  14.864  19.053   6.809 -0.1971  0.1901  0.0361
  761loPI    C111833  17.919  17.024   5.084  0.2161  0.0825  0.0532
  761loPI    C211834  18.210  16.967   4.815  0.2049 -0.2855  0.1143
  761loPI    C311835  17.837  16.847   4.734  0.1269 -0.0721  0.1511
  761loPI   PO411836  17.942  17.233   5.118 -0.1804 -0.0821 -0.1634
  761loPI   GL111837  17.757  17.518   5.543  0.4017 -0.0090  0.0529
  761loPI   GL211838  18.038  17.268   5.695 -0.0576 -0.2338 -0.3051
  761loPI   C1A11839  17.748  17.735   5.978 -0.1194 -0.0099  0.1848
  761loPI   C2A11840  17.983  17.664   6.328  0.2747  0.1415 -0.2069
  761loPI   C3A11841  18.062  17.568   6.817  0.2216 -0.1094  0.2160
  761loPI   C4A11842  18.356  17.667   6.967  0.1008 -0.2434 -0.2042
  761loPI   C5A11843  18.791  17.647   6.857 -0.0890  0.3470  0.0323
  761loPI   C6A11844  19.181  17.567   7.040  0.0434 -0.1849 -0.0749
  761loPI   C1B11845  18.184  17.178   6.212  0.0075  0.2656 -0.1980
  761loPI   C2B11846  18.246  17.102   6.572  0.1943 -0.1630  0.1273
  761loPI   C3B11847  18.388  17.185   6.916  0.2945  0.0499 -0.0367
  761loPI   C4B11848  18.480  16.817   7.232  0.0351  0.1094  0.2262
  762loPI    C111849   3.270  10.601   4.964  0.1340 -0.0161 -0.1442
  762loPI    C211850   3.069  10.842   4.717  0.2100  0.0644 -0.1281
  762loPI    C311851   3.451  10.753   4.642  0.1798 -0.0586 -0.1388
  762loPI   PO411852   3.202  10.635   5.193 -0.0797 -0.0689  0.3091
  762loPI   GL111853   3.328  10.755   5.581  0.2096  0.0588  0.2550
  762loPI   GL211854   3.486  10.954   5.737  0.1723  0.1435 -0.0565
  762loPI   C1A11855   3.228  10.539   5.971  0.1299 -0.2059 -0.0703
  762loPI   C2A11856   3.228  10.369   6.285  0.1930  0.2680  0.2334
  762loPI   C3A11857   3.224  10.293   6.719 -0.1506  0.1116  0.3971
  762loPI   C4A11858   2.997  10.314   7.092 -0.1133  0.1779  0.0081
  762loPI   C5A11859   3.173  10.538   7.503 -0.0723  0.1355  0.2337
  762loPI   C6A11860   3.411  10.952   7.614  0.0163 -0.0476 -0.0576
  762loPI   C1B11861   3.603  10.856   6.227 -0.0976 -0.1735 -0.0109
  762loPI   C2B11862   3.627  10.527   6.521 -0.1344 -0.0415  0.0391
  762loPI   C3B11863   3.680  10.199   6.839  0.0276 -0.1369  0.0335
  762loPI   C4B11864   3.824  10.041   7.159 -0.1737 -0.0759 -0.1760
  763loPI    C111865  15.639   4.187   4.693  0.3888 -0.0488  0.1664
  763loPI    C211866  15.786   3.862   4.512 -0.0035 -0.1839  0.0821
  763loPI    C311867  15.528   4.100   4.319  0.0635  0.0227  0.2439
  763loPI   PO411868  15.591   4.176   4.950 -0.0308  0.2425 -0.0392
  763loPI   GL111869  15.557   4.306   5.361  0.2996  0.1009  0.0579
  763loPI   GL211870  15.399   4.290   5.780 -0.1698 -0.0701  0.1464
  763loPI   C1A11871  15.865   4.038   5.648  0.4015  0.2458  0.0646
  763loPI   C2A11872  15.771   4.053   6.074 -0.0201 -0.1370  0.2045
  763loPI   C3A11873  15.623   3.929   6.443  0.0462  0.1063  0.0957
  763loPI   C4A11874  15.523   3.814   6.890 -0.3363 -0.4164  0.0561
  763loPI   C5A11875  15.384   3.920   7.345  0.2012  0.3432  0.1836
  763loPI   C6A11876  15.465   4.113   7.746  0.1463  0.2085  0.0643
  763loPI   C1B11877  15.336   4.502   6.204 -0.3429 -0.3343 -0.1885
  763loPI   C2B11878  15.359   4.358   6.624  0.0194 -0.2922  0.2343
  763loPI   C3B11879  15.224   4.207   6.988 -0.0240  0.0561  0.0661
  763loPI   C4B11880  14.892   4.170   7.200 -0.2679 -0.0544  0.1383
  764loPI    C111881   0.166   4.496   4.461  0.1272  0.2844  0.1333
  764loPI    C211882   0.047   4.626   4.102  0.1502 -0.0732 -0.0087
  764loPI    C311883   0.428   4.670   4.214  0.1394  0.0539 -0.0198
  764loPI   PO411884   0.012   4.688   4.658 -0.1383 -0.0325  0.2734
  764loPI   GL111885  -0.068   4.884   5.014  0.0580  0.1255 -0.3503
  764loPI   GL211886  -0.174   4.603   5.061  0.1639  0.1268  0.3031
  764loPI   C1A11887  -0.162   4.980   5.470 -0.1621  0.1359 -0.1671
  764loPI   C2A11888  -0.267   5.106   5.955  0.0218  0.0966  0.0221
  764loPI   C3A11889  -0.325   5.214   6.327 -0.0523 -0.2029  0.3667
  764loPI   C4A11890   0.005   5.319   6.626 -0.1199  0.0193 -0.2013
  764loPI   C5A11891   0.042   5.524   6.953 -0.0528  0.2982 -0.0113
  764loPI   C6A11892   0.179   5.771   7.361  0.0546  0.0537  0.0232
  764loPI   C1B11893   0.105   4.579   5.441 -0.1908 -0.0660  0.0859
  764loPI   C2B11894   0.342   4.317   5.762 -0.0788 -0.2054 -0.0820
  764loPI   C3B11895   0.378   4.423   6.216  0.2740  0.1904  0.3446
  764loPI   C4B11896   0.321   4.426   6.662  0.2764 -0.0585  0.4380
  765loPI    C111897  10.809  13.558   4.599  0.0583 -0.0095  0.0281
  765loPI    C211898  11.157  13.580   4.403  0.1028  0.1753  0.1256
  765loPI    C311899  10.837  13.776   4.265  0.0076 -0.0782 -0.0214
  765loPI   PO411900  10.830  13.650   4.805  0.3139  0.0081 -0.3317
  765loPI   GL111901  10.543  13.700   5.084 -0.2047 -0.1722  0.1553
  765loPI   GL211902  10.733  13.626   5.293 -0.0163  0.1260 -0.2690
  765loPI   C1A11903  10.422  13.874   5.564 -0.1182  0.3409  0.0794
  765loPI   C2A11904  10.535  13.964   5.995  0.2148  0.1798  0.0958
  765loPI   C3A11905  10.610  14.073   6.410 -0.0822  0.1773 -0.0138
  765loPI   C4A11906  10.617  14.146   6.902  0.1617  0.0670  0.1781
  765loPI   C5A11907  10.980  14.134   7.286  0.4284 -0.3128 -0.0528
  765loPI   C6A11908  11.385  14.211   7.400 -0.2224 -0.0588  0.0187
  765loPI   C1B11909  10.670  13.512   5.794 -0.0205 -0.0646  0.4343
  765loPI   C2B11910  10.713  13.458   6.279 -0.2091 -0.0033 -0.0857
  765loPI   C3B11911  10.779  13.603   6.696  0.4027  0.0522 -0.0563
  765loPI   C4B11912  10.834  13.649   7.153  0.0965 -0.1806 -0.1389
  766loPI    C111913   8.341  15.316   4.608 -0.1247 -0.0667 -0.0755
  766loPI    C211914   8.643  15.455   4.386  0.2452  0.0053  0.4549
  766loPI    C311915   8.619  15.065   4.470 -0.1133 -0.0837 -0.0218
  766loPI   PO411916   8.302  15.434   4.832 -0.1078  0.0914  0.2838
  766loPI   GL111917   8.452  15.389   5.315  0.1786  0.0523 -0.3456
  766loPI   GL211918   8.231  15.642   5.500 -0.2737  0.2648 -0.1025
  766loPI   C1A11919   8.750  15.666   5.466  0.2083 -0.0851  0.0335
  766loPI   C2A11920   8.857  15.827   5.855  0.0164 -0.0825 -0.1269
  766loPI   C3A11921   8.736  15.631   6.229 -0.0399  0.1024  0.3943
  766loPI   C4A11922   8.507  15.616   6.563  0.0493  0.1227  0.2845
  766loPI   C5A11923   8.291  15.458   6.896 -0.1614  0.1937 -0.0378
  766loPI   C6A11924   8.250  15.238   7.270 -0.3571  0.0006  0.0827
  766loPI   C1B11925   8.358  15.596   5.912  0.2654 -0.0108  0.0638
  766loPI   C2B11926   8.090  15.474   6.301 -0.2958  0.0559 -0.0419
  766loPI   C3B11927   7.861  15.386   6.643 -0.1430  0.1562 -0.0802
  766loPI   C4B11928   7.835  15.069   6.936  0.0376 -0.0099 -0.0236
  767loPI    C111929  12.996  11.139   4.954  0.1809 -0.0421  0.0166
  767loPI    C211930  13.220  10.970   4.669  0.1482  0.2076 -0.1599
  767loPI    C311931  12.829  10.890   4.690  0.2643 -0.3092  0.2114
  767loPI   PO411932  13.175  11.045   5.181  0.0789 -0.0274 -0.2672
  767loPI   GL111933  13.519  11.232   5.429  0.1020  0.0614 -0.2553
  767loPI   GL211934  13.353  11.568   5.564 -0.0834 -0.1093  0.0367
  767loPI   C1A11935  13.490  11.009   5.774  0.1594  0.0822 -0.0742
  767loPI   C2A11936  13.437  10.731   6.169  0.1344  0.0311 -0.0660
  767loPI   C3A11937  13.330  10.698   6.515 -0.0808 -0.1089  0.1028
  767loPI   C4A11938  13.446  10.855   6.884  0.1327 -0.2330 -0.2043
  767loPI   C5A11939  13.787  10.801   7.160 -0.2023 -0.0985  0.1145
  767loPI   C6A11940  13.951  10.394   7.443  0.1249  0.0949  0.0047
  767loPI   C1B11941  13.494  11.452   5.971 -0.0704  0.1749 -0.0910
  767loPI   C2B11942  13.572  11.155   6.381  0.1180 -0.2944 -0.0062
  767loPI   C3B11943  13.698  11.295   6.749 -0.0503 -0.0402  0.3090
  767loPI   C4B11944  13.963  11.312   7.121  0.0466  0.2715  0.0983
  768loPI    C111945   9.726  15.767   4.888  0.1011 -0.1474 -0.0694
  768loPI    C211946   9.398  15.987   4.825  0.1193 -0.0684  0.1048
  768loPI    C311947   9.748  16.101   4.670  0.0910 -0.0809  0.0311
  768loPI   PO411948   9.733  15.736   5.174  0.0202 -0.0375  0.0745
  768loPI   GL111949   9.921  15.927   5.515 -0.1259  0.4860  0.0116
  768loPI   GL211950  10.091  15.692   5.634  0.0782 -0.1017 -0.1867
  768loPI   C1A11951  10.082  16.231   5.754  0.1434 -0.0403  0.4625
  768loPI   C2A11952  10.055  16.450   5.959 -0.0040 -0.0253  0.1744
  768loPI   C3A11953  10.027  16.520   6.401  0.0835  0.1705  0.1444
  768loPI   C4A11954   9.983  16.488   6.830  0.1668 -0.0480  0.2192
  768loPI   C5A11955   9.996  16.175   7.241  0.2038 -0.2470 -0.0279
  768loPI   C6A11956  10.228  15.850   7.397  0.1847  0.0655 -0.3591
  768loPI   C1B11957   9.906  15.818   6.012  0.1836  0.0568  0.1489
  768loPI   C2B11958   9.551  15.520   6.288 -0.0356  0.0569  0.1509
  768loPI   C3B11959   9.184  15.488   6.560 -0.1005 -0.0402  0.1132
  768loPI   C4B11960   9.155  15.151   6.917 -0.0762 -0.0102  0.0071
  769loPI    C111961   1.823  15.573   4.683  0.2209  0.0087  0.0944
  769loPI    C211962   2.211  15.599   4.588  0.1737  0.0963 -0.0777
  769loPI    C311963   1.976  15.922   4.560  0.0481 -0.0007 -0.1548
  769loPI   PO411964   1.822  15.482   4.872  0.1631  0.2425  0.1348
  769loPI   GL111965   1.831  15.504   5.334  0.3667 -0.4105  0.1330
  769loPI   GL211966   2.058  15.138   5.484  0.1641  0.0435  0.1164
  769loPI   C1A11967   1.649  15.386   5.715 -0.2080  0.1330  0.0201
  769loPI   C2A11968   1.693  15.201   6.131  0.0450 -0.0782 -0.0278
  769loPI   C3A11969   2.030  15.123   6.453 -0.0532 -0.1530 -0.0878
  769loPI   C4A11970   2.054  15.307   6.856  0.1220 -0.1778  0.0514
  769loPI   C5A11971   2.240  15.246   7.222  0.1430  0.0808  0.2289
  769loPI   C6A11972   2.312  14.975   7.659  0.2039 -0.1849  0.0077
  769loPI   C1B11973   2.108  15.307   5.816  0.1692  0.0116 -0.1112
  769loPI   C2B11974   2.359  15.348   6.190 -0.0659 -0.0688 -0.0404
  769loPI   C3B11975   2.492  15.488   6.573  0.0114  0.0186  0.0166
  769loPI   C4B11976   2.725  15.300   6.924 -0.2987 -0.1736  0.2452
  770loPI    C111977  14.857   5.437   4.736 -0.0242 -0.4346 -0.1780
  770loPI    C211978  15.256   5.455   4.716 -0.0319  0.0743 -0.0098
  770loPI    C311979  15.033   5.624   4.430 -0.1256  0.1019  0.0786
  770loPI   PO411980  14.747   5.532   4.950 -0.0432  0.2137  0.1317
  770loPI   GL111981  14.621   5.288   5.397 -0.0478  0.1316  0.2454
  770loPI   GL211982  14.452   5.701   5.287  0.2957 -0.1932  0.2282
  770loPI   C1A11983  14.487   5.269   5.762 -0.2231  0.1166 -0.3628
  770loPI   C2A11984  14.474   5.499   6.178  0.2173 -0.0249  0.3003
  770loPI   C3A11985  14.431   5.691   6.473 -0.5912  0.1379 -0.1787
  770loPI   C4A11986  14.297   5.719   6.914  0.0837 -0.2756 -0.1044
  770loPI   C5A11987  14.437   5.842   7.371 -0.0090  0.2366  0.4240
  770loPI   C6A11988  14.715   6.018   7.628 -0.2274 -0.0248 -0.2214
  770loPI   C1B11989  14.235   5.798   5.711  0.1263 -0.0228 -0.0932
  770loPI   C2B11990  14.109   5.896   6.139 -0.1781  0.1018 -0.1184
  770loPI   C3B11991  13.993   5.936   6.584 -0.0322 -0.0559  0.3783
  770loPI   C4B11992  13.782   6.024   6.930  0.2153 -0.1811  0.0694
  771loPI    C111993  16.616  13.504   4.616  0.1416  0.0943  0.1927
  771loPI    C211994  16.966  13.620   4.771  0.4265 -0.1561 -0.2405
  771loPI    C311995  16.773  13.858   4.513  0.1350  0.0989  0.1985
  771loPI   PO411996  16.458  13.433   4.839  0.0294  0.0229 -0.0806
  771loPI   GL111997  16.509  13.519   5.269  0.0543 -0.1765 -0.3044
  771loPI   GL211998  16.312  13.769   5.364 -0.2860  0.0235  0.1565
  771loPI   C1A11999  16.868  13.438   5.440 -0.2300  0.1276  0.1872
  771loPI   C2A12000  16.986  13.348   5.889  0.0546 -0.0021 -0.1027
  771loPI   C3A12001  17.007  13.400   6.362  0.5273 -0.0642 -0.2071
  771loPI   C4A12002  17.075  13.420   6.856 -0.0604  0.0682 -0.1303
  771loPI   C5A12003  16.993  13.499   7.304  0.2469  0.0453 -0.0219
  771loPI   C6A12004  16.726  13.578   7.625  0.0867  0.3355  0.0769
  771loPI   C1B12005  16.511  13.788   5.785 -0.3981 -0.2386  0.1489
  771loPI   C2B12006  16.784  13.840   6.109 -0.1732 -0.3186  0.0925
  771loPI   C3B12007  16.910  13.867   6.541 -0.0490  0.0361  0.0975
  771loPI   C4B12008  17.011  13.936   6.999 -0.3060  0.0604  0.0030
  772loPI    C112009  18.025  12.238   4.734 -0.0039  0.4019  0.1627
  772loPI    C212010  18.267  12.545   4.650  0.1005  0.1812 -0.3822
  772loPI    C312011  18.351  12.179   4.511 -0.2712 -0.0045 -0.1358
  772loPI   PO412012  17.969  12.134   4.946  0.1823  0.0621  0.0836
  772loPI   GL112013  17.948  12.211   5.475  0.0648  0.2500  0.5724
  772loPI   GL212014  17.644  12.277   5.618  0.2189 -0.2758 -0.1710
  772loPI   C1A12015  17.964  12.056   5.920  0.0339  0.1044  0.0924
  772loPI   C2A12016  17.692  12.208   6.303 -0.2240 -0.2149 -0.1674
  772loPI   C3A12017  17.706  12.395   6.709 -0.2036 -0.1049 -0.2416
  772loPI   C4A12018  17.507  12.651   7.093  0.0680  0.2712  0.1680
  772loPI   C5A12019  17.122  12.538   7.194 -0.1367  0.2998 -0.1296
  772loPI   C6A12020  17.004  12.473   7.637 -0.2422  0.3147 -0.3155
  772loPI   C1B12021  17.410  12.409   5.969 -0.0174  0.0894 -0.3966
  772loPI   C2B12022  17.284  12.490   6.413 -0.2388 -0.0544 -0.2660
  772loPI   C3B12023  16.978  12.439   6.635 -0.2163 -0.1915 -0.0472
  772loPI   C4B12024  16.814  12.114   6.907  0.1487 -0.2097  0.1697
  773loPI    C112025  16.391   2.952   4.866 -0.0858 -0.1490 -0.1375
  773loPI    C212026  16.184   2.814   5.180 -0.0120 -0.0305 -0.0357
  773loPI    C312027  16.111   3.181   5.037  0.3025  0.1145  0.1647
  773loPI   PO412028  16.656   2.840   4.984  0.3036  0.1195 -0.1350
  773loPI   GL112029  16.963   2.877   5.342  0.0036  0.2643 -0.3047
  773loPI   GL212030  16.726   2.512   5.374 -0.0351 -0.0251  0.0766
  773loPI   C1A12031  16.841   3.006   5.676 -0.2461 -0.0977  0.0102
  773loPI   C2A12032  16.955   3.078   6.183  0.1138 -0.1334 -0.0856
  773loPI   C3A12033  17.136   3.182   6.574 -0.0396 -0.2937  0.5025
  773loPI   C4A12034  17.488   3.136   6.767 -0.1841 -0.0924  0.1150
  773loPI   C5A12035  17.823   3.149   7.044  0.0061  0.0920 -0.0065
  773loPI   C6A12036  18.145   2.927   6.900  0.3631 -0.1213 -0.0637
  773loPI   C1B12037  16.444   2.601   5.633  0.0010  0.3251  0.0289
  773loPI   C2B12038  16.415   2.935   5.986 -0.0440 -0.1833  0.0760
  773loPI   C3B12039  16.496   3.077   6.351  0.2115  0.1931  0.0027
  773loPI   C4B12040  16.350   3.351   6.547  0.0233 -0.1199  0.1353
  774loPI    C112041   2.167  12.507   4.854  0.0976 -0.1598 -0.1237
  774loPI    C212042   2.376  12.321   5.140 -0.1132 -0.1086  0.0667
  774loPI    C312043   2.479  12.276   4.755  0.3080 -0.0040  0.1615
  774loPI   PO412044   2.065  12.748   4.958 -0.0595 -0.1308 -0.0523
  774loPI   GL112045   1.734  12.797   5.238 -0.2378 -0.2931 -0.1561
  774loPI   GL212046   1.944  12.631   5.421  0.1069 -0.3522 -0.0812
  774loPI   C1A12047   1.578  12.845   5.674 -0.2288 -0.0296  0.0603
  774loPI   C2A12048   1.568  12.856   6.141 -0.0444  0.1376 -0.1905
  774loPI   C3A12049   1.706  12.596   6.474  0.1267 -0.0094  0.1456
  774loPI   C4A12050   1.404  12.414   6.728  0.0666  0.0586 -0.0991
  774loPI   C5A12051   1.276  12.237   7.215  0.3780 -0.2860  0.0821
  774loPI   C6A12052   1.284  12.191   7.683  0.2778  0.1633  0.4157
  774loPI   C1B12053   2.045  12.640   5.895 -0.1500  0.0975 -0.0209
  774loPI   C2B12054   2.144  12.467   6.185  0.1039 -0.0093  0.3120
  774loPI   C3B12055   1.949  12.179   6.399 -0.2224 -0.0189  0.2288
  774loPI   C4B12056   1.877  12.249   6.867 -0.1845 -0.1703  0.3305
  775loPI    C112057   9.402  15.069   4.527 -0.0032 -0.1547 -0.1816
  775loPI    C212058   9.144  15.339   4.382  0.0785 -0.0576 -0.1483
  775loPI    C312059   9.399  15.153   4.136 -0.0078 -0.1376 -0.1780
  775loPI   PO412060   9.461  14.993   4.802  0.2562  0.1362 -0.1289
  775loPI   GL112061   9.270  14.805   5.194  0.1057 -0.2077 -0.0735
  775loPI   GL212062   9.550  14.832   5.292  0.1983 -0.2073  0.1603
  775loPI   C1A12063   9.177  14.804   5.596  0.3023 -0.2840 -0.1588
  775loPI   C2A12064   9.256  14.596   6.051 -0.1231 -0.4288 -0.1280
  775loPI   C3A12065   9.177  14.743   6.518  0.3806 -0.2379 -0.0872
  775loPI   C4A12066   8.913  14.809   6.728 -0.1967 -0.2203  0.0878
  775loPI   C5A12067   8.822  14.849   7.183 -0.0225 -0.3187 -0.3002
  775loPI   C6A12068   9.140  15.007   7.440 -0.1753  0.0744  0.4172
  775loPI   C1B12069   9.610  14.861   5.759 -0.0015 -0.0517  0.0811
  775loPI   C2B12070   9.527  14.997   6.173  0.1145  0.0454 -0.0732
  775loPI   C3B12071   9.629  15.066   6.558 -0.1216  0.2636  0.1113
  775loPI   C4B12072   9.812  15.442   6.725  0.0944  0.0414 -0.2835
  776loPI    C112073  15.805   0.792   4.903  0.2539  0.0906 -0.3221
  776loPI    C212074  16.065   0.729   5.200  0.1213  0.0257 -0.2188
  776loPI    C312075  16.169   0.957   4.888  0.2573  0.1045 -0.1174
  776loPI   PO412076  15.579   0.743   5.170  0.1953 -0.0716  0.1054
  776loPI   GL112077  15.412   0.648   5.495 -0.0812  0.0687  0.3481
  776loPI   GL212078  15.723   0.639   5.675 -0.1704 -0.0116  0.0807
  776loPI   C1A12079  15.171   0.423   5.880  0.4483 -0.0224  0.0579
  776loPI   C2A12080  14.956   0.596   6.207 -0.0356  0.1123  0.1121
  776loPI   C3A12081  14.748   0.421   6.616 -0.4343  0.1653  0.0816
  776loPI   C4A12082  14.550   0.268   6.978 -0.1135 -0.0044 -0.2228
  776loPI   C5A12083  14.332   0.133   7.320  0.1109  0.2530 -0.0758
  776loPI   C6A12084  13.905   0.213   7.435 -0.2386 -0.3261 -0.4984
  776loPI   C1B12085  15.648   0.468   6.027  0.1029 -0.3860 -0.0196
  776loPI   C2B12086  15.496   0.451   6.358  0.3884  0.0700 -0.1493
  776loPI   C3B12087  15.241   0.463   6.602 -0.0700  0.0979  0.0726
  776loPI   C4B12088  15.051   0.697   6.891  0.1777  0.0915 -0.1806
  777loPI    C112089   0.304  18.192   4.932  0.0157 -0.1658 -0.0767
  777loPI    C212090   0.573  18.042   4.676 -0.1348 -0.1010 -0.2751
  777loPI    C312091   0.474  18.429   4.657 -0.0162 -0.0550 -0.0019
  777loPI   PO412092   0.408  18.053   5.266  0.2730  0.1767 -0.2312
  777loPI   GL112093   0.632  18.195   5.658 -0.1045  0.1681  0.1714
  777loPI   GL212094   0.520  18.009   5.883  0.2360  0.0910 -0.0818
  777loPI   C1A12095   0.552  18.618   5.937 -0.5154 -0.0084 -0.0942
  777loPI   C2A12096   0.569  18.753   6.314 -0.1589  0.4164  0.0451
  777loPI   C3A12097   0.768  18.880   6.648 -0.2587  0.0784 -0.1422
  777loPI   C4A12098   0.845  19.148   7.068 -0.0634 -0.4674 -0.0280
  777loPI   C5A12099   0.720  19.440   7.325 -0.0898  0.3343 -0.0997
  777loPI   C6A12100   0.780  19.833   7.603  0.0591  0.1140 -0.0460
  777loPI   C1B12101   0.368  17.701   6.253  0.2618  0.0077  0.1352
  777loPI   C2B12102   0.395  17.731   6.675  0.4991  0.0800  0.0379
  777loPI   C3B12103   0.426  17.840   7.151  0.4476  0.1367  0.2254
  777loPI   C4B12104   0.745  17.870   7.292 -0.1153 -0.3091 -0.2029
  778loPI    C112105   8.768   4.573   4.625 -0.0316 -0.1255  0.3229
  778loPI    C212106   8.631   4.279   4.391  0.1355 -0.0400  0.1149
  778loPI    C312107   9.019   4.295   4.486  0.0737 -0.0587  0.3781
  778loPI   PO412108   8.508   4.534   4.845 -0.2216  0.0833 -0.0130
  778loPI   GL112109   8.432   4.620   5.219 -0.2707 -0.0044  0.0963
  778loPI   GL212110   8.579   4.887   5.267 -0.1826 -0.3459 -0.0068
  778loPI   C1A12111   8.298   4.744   5.620  0.2335  0.2360 -0.0594
  778loPI   C2A12112   7.995   4.630   5.931 -0.1393  0.1056  0.1050
  778loPI   C3A12113   7.673   4.696   6.312  0.0495 -0.1149 -0.1213
  778loPI   C4A12114   7.444   4.837   6.701  0.1906 -0.0019  0.4786
  778loPI   C5A12115   7.067   5.190   6.885 -0.1667  0.0818 -0.1083
  778loPI   C6A12116   6.727   5.209   7.018  0.1668  0.5032  0.0859
  778loPI   C1B12117   8.695   5.087   5.658 -0.0759 -0.0854 -0.3280
  778loPI   C2B12118   8.994   5.127   6.023  0.1164  0.0660  0.1808
  778loPI   C3B12119   9.003   5.035   6.471 -0.0399 -0.4076  0.0570
  778loPI   C4B12120   8.559   4.912   6.660 -0.0712 -0.2348  0.0048
  779loPI    C112121   5.262   7.394   4.436 -0.0301 -0.0899  0.1603
  779loPI    C212122   5.444   7.038   4.439 -0.1733 -0.1633  0.2411
  779loPI    C312123   5.280   7.177   4.101  0.0005 -0.1123  0.1765
  779loPI   PO412124   5.037   7.395   4.631 -0.2134  0.1177  0.0211
  779loPI   GL112125   5.030   7.619   5.090 -0.0058  0.2046  0.0304
  779loPI   GL212126   4.772   7.740   5.217  0.1535 -0.2614  0.1665
  779loPI   C1A12127   5.138   7.544   5.540  0.3002 -0.0194 -0.3080
  779loPI   C2A12128   5.030   7.623   5.991  0.3116  0.0979 -0.0252
  779loPI   C3A12129   5.197   7.690   6.345 -0.0115  0.1185  0.0017
  779loPI   C4A12130   5.298   7.934   6.627  0.1053  0.0804 -0.0499
  779loPI   C5A12131   5.447   7.901   7.015 -0.0186 -0.0615  0.1693
  779loPI   C6A12132   5.398   8.213   7.281  0.2404  0.0395  0.0797
  779loPI   C1B12133   4.608   7.710   5.644  0.1930  0.0767 -0.1097
  779loPI   C2B12134   4.474   8.046   5.907 -0.0014  0.1660 -0.1058
  779loPI   C3B12135   4.491   8.202   6.338  0.1120  0.1335  0.0500
  779loPI   C4B12136   4.605   8.275   6.782 -0.0945  0.1455  0.2813
  780loPI    C112137  10.522  11.576   4.845 -0.2213 -0.1334 -0.0168
  780loPI    C212138  10.447  11.368   5.178 -0.3551 -0.0834 -0.0151
  780loPI    C312139  10.524  11.177   4.836 -0.0124 -0.1362  0.0879
  780loPI   PO412140  10.422  11.873   4.942 -0.0145  0.1054  0.0531
  780loPI   GL112141  10.287  11.895   5.294  0.0255 -0.1710  0.0023
  780loPI   GL212142  10.097  12.156   5.407 -0.0098 -0.0885 -0.4365
  780loPI   C1A12143  10.225  11.601   5.624 -0.2178  0.3021  0.1658
  780loPI   C2A12144  10.202  11.186   5.824  0.0714 -0.1852 -0.3364
  780loPI   C3A12145  10.002  11.105   6.207  0.1069  0.0644  0.3274
  780loPI   C4A12146   9.911  11.099   6.571  0.2130  0.0743 -0.2454
  780loPI   C5A12147  10.134  11.092   6.963  0.0760 -0.1225 -0.4234
  780loPI   C6A12148  10.278  11.327   7.294  0.0559  0.0261  0.0471
  780loPI   C1B12149  10.169  12.093   5.828 -0.1820 -0.3800  0.2024
  780loPI   C2B12150  10.236  12.013   6.219 -0.1120  0.0681 -0.0450
  780loPI   C3B12151  10.133  11.967   6.627  0.0233  0.1514  0.0452
  780loPI   C4B12152  10.181  11.799   7.143 -0.0789  0.5326  0.2568
  781loPI    C112153  14.477   6.414   4.643 -0.2037  0.0279 -0.2619
  781loPI    C212154  14.117   6.563   4.552 -0.2851 -0.0437 -0.0618
  781loPI    C312155  14.252   6.237   4.363 -0.2845  0.0385 -0.2040
  781loPI   PO412156  14.497   6.414   4.893 -0.1449 -0.0389  0.0534
  781loPI   GL112157  14.773   6.315   5.214 -0.1466 -0.1278 -0.1762
  781loPI   GL212158  15.077   6.269   5.090  0.1015  0.0099  0.0434
  781loPI   C1A12159  14.572   6.169   5.590 -0.2628 -0.1441  0.4463
  781loPI   C2A12160  14.557   6.539   5.927 -0.0294  0.1025 -0.1177
  781loPI   C3A12161  14.455   6.805   6.240  0.0560 -0.1004  0.1544
  781loPI   C4A12162  14.554   7.032   6.561 -0.2647  0.1232  0.1116
  781loPI   C5A12163  14.524   6.945   6.931  0.1608 -0.3077 -0.1212
  781loPI   C6A12164  14.712   6.888   7.337 -0.1193  0.0625 -0.2065
  781loPI   C1B12165  15.118   6.150   5.518  0.0447  0.1511  0.0874
  781loPI   C2B12166  15.082   6.274   5.969  0.0805  0.3903  0.1047
  781loPI   C3B12167  15.156   6.329   6.401  0.1602  0.1800  0.1021
  781loPI   C4B12168  15.122   6.315   6.799 -0.0520 -0.0930  0.3087
  782loPI    C112169  16.575   4.171   4.590 -0.0581 -0.0153  0.1834
  782loPI    C212170  16.294   3.900   4.505 -0.0217  0.0288 -0.0851
  782loPI    C312171  16.499   4.076   4.210  0.2881 -0.0015  0.1069
  782loPI   PO412172  16.856   4.177   4.790 -0.0292 -0.3259 -0.0098
  782loPI   GL112173  16.989   4.481   5.096  0.1298 -0.0812  0.0044
  782loPI   GL212174  16.837   4.295   5.287 -0.4850  0.2315 -0.1456
  782loPI   C1A12175  16.891   4.791   5.528  0.2256  0.0010 -0.1303
  782loPI   C2A12176  17.021   4.821   5.960  0.2217  0.0822 -0.0709
  782loPI   C3A12177  16.997   4.954   6.373 -0.0113  0.1751  0.1034
  782loPI   C4A12178  17.347   4.853   6.637 -0.0529 -0.3447 -0.3246
  782loPI   C5A12179  17.278   4.900   7.000  0.0312 -0.1933  0.1059
  782loPI   C6A12180  16.823   4.858   7.115 -0.4230 -0.0475 -0.2223
  782loPI   C1B12181  17.082   4.329   5.584  0.1734 -0.1243  0.0139
  782loPI   C2B12182  17.245   4.344   6.024  0.0520 -0.1818  0.2164
  782loPI   C3B12183  17.257   4.463   6.406  0.1258 -0.0346 -0.0113
  782loPI   C4B12184  16.944   4.588   6.702  0.0102 -0.4014  0.0261
  783loPI    C112185  13.047   0.973   4.961  0.0720  0.2019  0.1363
  783loPI    C212186  13.118   0.633   5.160  0.2833  0.0211 -0.2368
  783loPI    C312187  12.793   0.666   4.930  0.2320  0.0950 -0.1543
  783loPI   PO412188  13.120   1.129   5.106  0.0065 -0.2836 -0.2974
  783loPI   GL112189  13.378   1.219   5.378  0.3182  0.0443 -0.0501
  783loPI   GL212190  13.562   0.959   5.429  0.0461  0.0039 -0.4192
  783loPI   C1A12191  13.252   1.137   5.774 -0.0119  0.1516 -0.0325
  783loPI   C2A12192  13.318   1.077   6.221  0.2256 -0.1060 -0.0059
  783loPI   C3A12193  13.546   1.094   6.549  0.0564 -0.1142 -0.0909
  783loPI   C4A12194  13.592   1.101   7.039  0.0853  0.1566 -0.1102
  783loPI   C5A12195  13.763   1.212   7.460 -0.0068  0.2736  0.0498
  783loPI   C6A12196  13.855   1.226   7.884  0.1748 -0.1873  0.0509
  783loPI   C1B12197  13.335   0.678   5.684  0.2105  0.4485 -0.0894
  783loPI   C2B12198  13.235   0.405   6.045 -0.1435 -0.0018 -0.1444
  783loPI   C3B12199  13.258   0.603   6.421 -0.0633  0.0434  0.1981
  783loPI   C4B12200  13.252   0.684   6.851  0.0182 -0.0268 -0.0549
  784loPI    C112201  15.077  10.259   4.572 -0.0864  0.0394 -0.0423
  784loPI    C212202  14.940  10.625   4.488  0.0271  0.0803 -0.0521
  784loPI    C312203  15.011  10.365   4.192 -0.0358  0.0562 -0.0464
  784loPI   PO412204  14.923  10.092   4.727  0.1125  0.5825 -0.3804
  784loPI   GL112205  14.838  10.024   5.191  0.1253  0.1865 -0.3808
  784loPI   GL212206  14.717  10.224   5.385 -0.0718 -0.0973  0.1401
  784loPI   C1A12207  15.157  10.079   5.547 -0.4751 -0.0731 -0.2328
  784loPI   C2A12208  15.146  10.030   5.966  0.2935 -0.1537  0.0435
  784loPI   C3A12209  15.105  10.007   6.495 -0.2102 -0.0432 -0.0746
  784loPI   C4A12210  15.000  10.060   6.914 -0.0431  0.2251  0.0607
  784loPI   C5A12211  15.021  10.077   7.292  0.1269  0.3175 -0.1770
  784loPI   C6A12212  14.755   9.993   7.719 -0.1401  0.1832  0.2024
  784loPI   C1B12213  14.773  10.329   5.802 -0.0841  0.0691 -0.2852
  784loPI   C2B12214  14.794  10.388   6.322 -0.1737  0.1654 -0.0970
  784loPI   C3B12215  14.985  10.542   6.710  0.0360 -0.1529 -0.1748
  784loPI   C4B12216  15.022  10.565   7.163 -0.1696  0.2525 -0.0807
  785loPI    C112217   8.630  12.546   4.960  0.1713  0.0612  0.0754
  785loPI    C212218   8.591  12.266   4.677  0.1870  0.1198  0.0149
  785loPI    C312219   8.602  12.652   4.576  0.1237  0.1448  0.1017
  785loPI   PO412220   8.477  12.581   5.101  0.2037  0.1105  0.2046
  785loPI   GL112221   8.399  12.429   5.532  0.1446  0.2025  0.3295
  785loPI   GL212222   8.066  12.230   5.612  0.2216  0.2507  0.0888
  785loPI   C1A12223   8.532  12.442   5.983 -0.0856  0.0779  0.1319
  785loPI   C2A12224   8.380  12.121   6.335 -0.2178 -0.1404 -0.1470
  785loPI   C3A12225   8.556  12.195   6.690 -0.0301 -0.4527  0.2113
  785loPI   C4A12226   8.768  12.151   7.114 -0.0371 -0.1743  0.2687
  785loPI   C5A12227   8.889  11.859   7.443 -0.0267  0.1280  0.2092
  785loPI   C6A12228   9.197  11.557   7.606  0.0446  0.1896  0.0752
  785loPI   C1B12229   7.997  12.275   6.056  0.0144  0.0811 -0.2316
  785loPI   C2B12230   7.889  12.273   6.495  0.1487 -0.0117 -0.0663
  785loPI   C3B12231   8.036  12.258   6.771 -0.2183  0.1684  0.2725
  785loPI   C4B12232   8.177  12.267   7.062  0.1366  0.1315  0.0503
  786loPI    C112233  19.035   4.123   4.217  0.1661  0.0953  0.0975
  786loPI    C212234  18.737   4.388   4.246  0.1323  0.1041 -0.2742
  786loPI    C312235  18.846   4.250   3.887  0.1427 -0.3953 -0.0864
  786loPI   PO412236  18.998   4.037   4.532  0.0549  0.0099  0.3279
  786loPI   GL112237  18.842   4.087   4.869  0.0036  0.1798  0.1776
  786loPI   GL212238  18.562   4.062   4.768  0.1815  0.0463  0.2584
  786loPI   C1A12239  18.899   4.184   5.386  0.2046 -0.1886  0.3139
  786loPI   C2A12240  18.960   4.176   5.831 -0.1893 -0.1526  0.0825
  786loPI   C3A12241  18.964   4.228   6.285 -0.1674  0.1682  0.1516
  786loPI   C4A12242  18.787   4.431   6.586 -0.1006  0.2574 -0.0939
  786loPI   C5A12243  18.965   4.277   7.018 -0.3351  0.3271  0.3793
  786loPI   C6A12244  19.082   4.085   7.411 -0.1843  0.1210 -0.2102
  786loPI   C1B12245  18.458   4.342   5.082  0.0177  0.2029  0.1310
  786loPI   C2B12246  18.507   4.636   5.382 -0.1690 -0.3317 -0.1662
  786loPI   C3B12247  18.723   4.635   5.831 -0.1703 -0.0307  0.0625
  786loPI   C4B12248  19.142   4.686   5.990 -0.2960  0.5012 -0.1328
  787loPI    C112249   1.575   3.877   4.870 -0.0883  0.0258 -0.0055
  787loPI    C212250   1.944   3.948   5.007 -0.0390  0.0170 -0.1322
  787loPI    C312251   1.881   3.908   4.614 -0.1315 -0.2415 -0.0929
  787loPI   PO412252   1.373   4.005   4.987 -0.0059  0.0468 -0.3987
  787loPI   GL112253   1.365   4.536   5.070  0.2766  0.2555  0.0528
  787loPI   GL212254   1.382   4.839   5.164  0.3268 -0.1988  0.0198
  787loPI   C1A12255   1.183   4.539   5.539  0.0601  0.3085 -0.2178
  787loPI   C2A12256   0.970   4.391   5.771 -0.2698 -0.0439  0.2679
  787loPI   C3A12257   0.888   4.475   6.189  0.0993  0.2804 -0.3190
  787loPI   C4A12258   0.712   4.637   6.503  0.0526 -0.1165 -0.2021
  787loPI   C5A12259   0.787   4.776   6.849  0.1215  0.1531  0.1385
  787loPI   C6A12260   0.840   4.847   7.301  0.1882 -0.1260 -0.0487
  787loPI   C1B12261   1.059   4.988   5.400  0.1094  0.0482 -0.2095
  787loPI   C2B12262   1.037   4.904   5.865 -0.0077  0.2986 -0.0166
  787loPI   C3B12263   1.152   4.913   6.293  0.0383 -0.0012  0.1288
  787loPI   C4B12264   1.356   4.937   6.643 -0.3510  0.0871  0.3949
  788loPI    C112265   5.562  16.194   4.955 -0.0931 -0.3284  0.0252
  788loPI    C212266   5.596  15.926   5.250  0.0287 -0.2802  0.0557
  788loPI    C312267   5.869  15.937   4.958  0.1131 -0.0855  0.1406
  788loPI   PO412268   5.373  16.370   5.098 -0.0522  0.1036 -0.2017
  788loPI   GL112269   5.252  16.560   5.565 -0.1454  0.1688 -0.0374
  788loPI   GL212270   5.597  16.693   5.509  0.0637 -0.1699  0.0490
  788loPI   C1A12271   5.466  16.447   5.997  0.1085  0.2222  0.1194
  788loPI   C2A12272   5.443  16.270   6.529  0.2074 -0.1884  0.4346
  788loPI   C3A12273   5.128  16.388   6.960  0.2261  0.2438  0.0555
  788loPI   C4A12274   4.820  16.249   7.343 -0.0651  0.1460 -0.1868
  788loPI   C5A12275   4.503  16.049   7.577  0.0016 -0.0364 -0.1697
  788loPI   C6A12276   4.195  15.837   7.749  0.0591 -0.1731  0.1482
  788loPI   C1B12277   5.700  16.974   5.848  0.0231 -0.0371 -0.0940
  788loPI   C2B12278   6.003  17.234   6.180 -0.0403  0.1321 -0.0719
  788loPI   C3B12279   6.068  17.437   6.546  0.0064 -0.0295  0.0989
  788loPI   C4B12280   5.912  17.658   6.828  0.0456 -0.0348  0.0758
  789loPI    C112281  14.564   0.540   4.797 -0.1355 -0.0101 -0.2750
  789loPI    C212282  14.418   0.421   5.149  0.2659  0.1107 -0.0619
  789loPI    C312283  14.169   0.502   4.848 -0.0842  0.0298  0.1988
  789loPI   PO412284  14.657   0.754   4.832  0.1366  0.0465  0.1605
  789loPI   GL112285  14.599   1.009   5.107  0.1502  0.0276 -0.0467
  789loPI   GL212286  14.746   1.235   5.178 -0.2157 -0.1768  0.0127
  789loPI   C1A12287  14.423   1.119   5.541 -0.0581 -0.2212 -0.1030
  789loPI   C2A12288  14.283   1.242   5.955 -0.1750 -0.2353  0.0946
  789loPI   C3A12289  14.400   1.258   6.370 -0.1693  0.0018  0.1316
  789loPI   C4A12290  14.494   1.341   6.792  0.0334 -0.3007  0.0914
  789loPI   C5A12291  14.291   1.292   7.187 -0.1085 -0.2346 -0.4812
  789loPI   C6A12292  14.351   1.113   7.561 -0.1368 -0.1926 -0.0212
  789loPI   C1B12293  14.856   1.383   5.572  0.2284 -0.0933 -0.4048
  789loPI   C2B12294  14.756   1.495   6.038 -0.1205 -0.1175 -0.2335
  789loPI   C3B12295  14.813   1.584   6.474 -0.3353  0.1332  0.0622
  789loPI   C4B12296  14.871   1.696   6.915 -0.1334  0.0724 -0.2538
  790loPI    C112297   2.002   1.537   4.544  0.1030  0.0394  0.0369
  790loPI    C212298   2.188   1.235   4.730  0.0513 -0.0485 -0.0526
  790loPI    C312299   2.401   1.533   4.567  0.1408 -0.3401 -0.4864
  790loPI   PO412300   1.891   1.678   4.748  0.1143  0.0650  0.1298
  790loPI   GL112301   1.812   1.779   5.146 -0.0874  0.0613  0.3396
  790loPI   GL212302   1.795   2.149   5.226 -0.0429  0.2156  0.1816
  790loPI   C1A12303   2.123   1.725   5.461  0.1182  0.0081 -0.2068
  790loPI   C2A12304   1.922   1.700   5.883 -0.2777 -0.0237  0.1277
  790loPI   C3A12305   1.756   1.727   6.236 -0.0785  0.0473 -0.0356
  790loPI   C4A12306   1.498   1.554   6.484  0.1365  0.3636 -0.3458
  790loPI   C5A12307   1.213   1.385   6.770 -0.2248 -0.0594  0.3145
  790loPI   C6A12308   1.093   1.519   7.189 -0.1297 -0.0770 -0.1535
  790loPI   C1B12309   1.929   2.314   5.667  0.2940 -0.2127 -0.5010
  790loPI   C2B12310   1.847   2.252   6.173 -0.1198 -0.1867 -0.1352
  790loPI   C3B12311   1.664   2.037   6.603 -0.1359  0.0889 -0.1557
  790loPI   C4B12312   1.588   1.827   7.009 -0.0840 -0.2720  0.2107
  791loPI    C112313  16.514  18.601   4.792 -0.1516  0.0378  0.0044
  791loPI    C212314  16.266  18.693   4.491  0.0531 -0.0983 -0.2092
  791loPI    C312315  16.647  18.596   4.415  0.2159  0.2497  0.1258
  791loPI   PO412316  16.444  18.382   5.002 -0.0115 -0.0186 -0.0991
  791loPI   GL112317  16.468  18.603   5.412  0.1427  0.0451  0.1523
  791loPI   GL212318  16.801  18.689   5.546  0.0608  0.1798 -0.0306
  791loPI   C1A12319  16.185  18.497   5.826 -0.1415  0.4680 -0.3054
  791loPI   C2A12320  16.157  18.092   6.015 -0.1187 -0.2817  0.1302
  791loPI   C3A12321  16.202  17.830   6.514 -0.0038  0.2032  0.1181
  791loPI   C4A12322  16.234  17.597   6.883  0.1457  0.1712  0.4439
  791loPI   C5A12323  16.377  17.722   7.365  0.0638 -0.0419 -0.0099
  791loPI   C6A12324  16.717  17.783   7.549  0.2035  0.3403  0.0340
  791loPI   C1B12325  16.686  18.396   5.779  0.1488  0.1252  0.0550
  791loPI   C2B12326  16.644  18.148   6.094  0.3707  0.1931 -0.3858
  791loPI   C3B12327  16.601  18.225   6.428 -0.0360 -0.0625 -0.0633
  791loPI   C4B12328  16.412  18.526   6.730 -0.1818  0.0484 -0.3195
  792loPI    C112329   0.131  15.298   4.525  0.0821  0.0719  0.0701
  792loPI    C212330   0.318  15.621   4.382 -0.0444  0.0881 -0.0607
  792loPI    C312331   0.210  15.326   4.134  0.3511 -0.2022  0.1008
  792loPI   PO412332   0.199  15.324   4.765 -0.0003 -0.1406 -0.0549
  792loPI   GL112333   0.393  15.178   5.194 -0.1992  0.2485 -0.1038
  792loPI   GL212334   0.296  14.880   5.248  0.2323 -0.3378  0.0666
  792loPI   C1A12335   0.360  15.375   5.593 -0.0143  0.0620 -0.0791
  792loPI   C2A12336   0.448  15.373   5.939  0.0199  0.0954 -0.0670
  792loPI   C3A12337   0.372  15.343   6.455  0.1690 -0.0074  0.2927
  792loPI   C4A12338   0.551  15.376   6.794  0.2611 -0.2998 -0.1285
  792loPI   C5A12339   0.773  15.529   7.130  0.2885 -0.4121  0.0518
  792loPI   C6A12340   0.800  15.638   7.528  0.1193  0.1520  0.2191
  792loPI   C1B12341   0.291  14.927   5.740 -0.0300 -0.3600  0.0660
  792loPI   C2B12342   0.340  14.735   6.132  0.0040 -0.2966  0.0054
  792loPI   C3B12343   0.418  14.409   6.596  0.0578 -0.0182  0.0694
  792loPI   C4B12344   0.569  14.206   7.032 -0.0376  0.1935  0.0402
  793loPI    C112345  10.001  18.149   5.334  0.1159  0.0462 -0.0706
  793loPI    C212346  10.167  18.322   5.014  0.0282 -0.0759 -0.1830
  793loPI    C312347   9.771  18.338   5.067  0.0758  0.2571  0.1103
  793loPI   PO412348  10.095  18.144   5.525  0.0750  0.2312  0.1449
  793loPI   GL112349   9.945  17.918   5.903  0.1383  0.0665  0.5485
  793loPI   GL212350   9.762  17.835   5.688 -0.1044  0.2760 -0.3180
  793loPI   C1A12351   9.849  17.944   6.289 -0.1640  0.1895 -0.0420
  793loPI   C2A12352   9.837  17.898   6.710  0.1188  0.2172  0.1060
  793loPI   C3A12353   9.910  17.925   7.142 -0.1527 -0.2765 -0.1099
  793loPI   C4A12354   9.910  17.984   7.493  0.0549 -0.0623 -0.0135
  793loPI   C5A12355   9.886  17.873   7.970  0.2910 -0.3502 -0.1770
  793loPI   C6A12356   9.845  17.434   8.170  0.1865 -0.2687  0.0379
  793loPI   C1B12357   9.429  17.753   6.038 -0.0231  0.0948  0.2118
  793loPI   C2B12358   9.370  17.715   6.608 -0.1159  0.1536  0.2554
  793loPI   C3B12359   9.454  17.716   6.963  0.1364 -0.1303 -0.2982
  793loPI   C4B12360   9.468  17.708   7.321 -0.1312 -0.1054 -0.2095
  794loPI    C112361   6.949  15.844   4.954 -0.4466 -0.0506  0.1404
  794loPI    C212362   6.773  16.069   4.674 -0.3046 -0.1128 -0.0001
  794loPI    C312363   6.917  15.707   4.580  0.0485  0.0058  0.0704
  794loPI   PO412364   7.130  16.030   5.121 -0.1855  0.1504  0.1640
  794loPI   GL112365   7.018  16.312   5.485 -0.2648 -0.3045  0.2094
  794loPI   GL212366   7.003  16.553   5.493 -0.2625  0.2127  0.4255
  794loPI   C1A12367   6.802  16.277   5.827 -0.0545 -0.0786 -0.0472
  794loPI   C2A12368   6.899  16.367   6.266  0.0951 -0.0930 -0.1340
  794loPI   C3A12369   6.601  16.413   6.699  0.2582 -0.0330 -0.3843
  794loPI   C4A12370   6.335  16.403   7.124  0.2342 -0.2472 -0.0477
  794loPI   C5A12371   5.921  16.427   7.392  0.0303  0.1126 -0.0904
  794loPI   C6A12372   5.540  16.264   7.576 -0.0246  0.0754 -0.2058
  794loPI   C1B12373   7.161  16.689   5.895 -0.1367  0.3505 -0.0614
  794loPI   C2B12374   7.207  16.726   6.312 -0.2700 -0.0080 -0.3814
  794loPI   C3B12375   7.338  16.573   6.757  0.1057 -0.0321 -0.0135
  794loPI   C4B12376   7.408  16.493   7.146 -0.2243 -0.0288 -0.3155
  795loPI    C112377   4.699   4.155   4.728 -0.4310  0.1070 -0.0468
  795loPI    C212378   4.941   3.976   4.464  0.0354  0.2243  0.2882
  795loPI    C312379   4.669   4.241   4.338 -0.3552 -0.3655 -0.1627
  795loPI   PO412380   4.632   4.041   4.899  0.3750  0.0813 -0.0392
  795loPI   GL112381   4.495   4.178   5.284  0.2457 -0.0631 -0.0098
  795loPI   GL212382   4.551   3.895   5.373 -0.1063  0.1394 -0.1531
  795loPI   C1A12383   4.689   4.319   5.720  0.0473 -0.0505  0.2012
  795loPI   C2A12384   4.980   4.533   6.115 -0.0239 -0.1992  0.0097
  795loPI   C3A12385   5.171   4.513   6.564  0.1145 -0.2056  0.3257
  795loPI   C4A12386   5.395   4.556   6.989 -0.0219 -0.1521  0.1693
  795loPI   C5A12387   5.854   4.460   7.270 -0.1390  0.2368 -0.0759
  795loPI   C6A12388   6.168   4.623   7.654  0.0967  0.0080 -0.0915
  795loPI   C1B12389   4.534   3.855   5.863  0.0418 -0.2745 -0.1646
  795loPI   C2B12390   4.301   3.872   6.276  0.3526  0.0888  0.0698
  795loPI   C3B12391   4.163   3.953   6.687 -0.0903 -0.2632  0.0366
  795loPI   C4B12392   4.080   3.755   7.188  0.0106 -0.0285  0.1445
  796loPI    C112393  13.012  15.443   5.043 -0.1623  0.2220  0.0116
  796loPI    C212394  13.362  15.636   5.071  0.1241 -0.2532 -0.1773
  796loPI    C312395  13.093  15.747   4.795  0.0298  0.2474  0.1035
  796loPI   PO412396  13.049  15.346   5.407 -0.1339  0.0743  0.1969
  796loPI   GL112397  13.298  15.507   5.711 -0.0268 -0.0662 -0.1198
  796loPI   GL212398  13.429  15.206   5.785 -0.0973  0.1293  0.2561
  796loPI   C1A12399  13.223  15.775   6.069  0.0825  0.1072 -0.0947
  796loPI   C2A12400  13.148  15.657   6.566 -0.2330 -0.3164  0.1738
  796loPI   C3A12401  13.112  15.490   6.946  0.1298  0.0213  0.4345
  796loPI   C4A12402  13.206  15.654   7.310 -0.3820 -0.0732  0.1281
  796loPI   C5A12403  13.179  15.612   7.746 -0.1785 -0.0235  0.0252
  796loPI   C6A12404  13.154  15.829   7.985 -0.2818  0.1627  0.3428
  796loPI   C1B12405  13.593  15.111   6.189  0.2124  0.0297 -0.0197
  796loPI   C2B12406  13.785  14.789   6.611 -0.0275 -0.0848  0.1654
  796loPI   C3B12407  13.912  14.637   6.993  0.1893 -0.1835 -0.0849
  796loPI   C4B12408  13.623  14.401   7.289 -0.0250 -0.1828 -0.0987
  797loPI    C112409   3.322  19.094   5.021 -0.0153 -0.0289 -0.1528
  797loPI    C212410   3.109  19.431   4.980  0.1861  0.1056 -0.1057
  797loPI    C312411   3.304  19.279   4.666  0.1991  0.1031 -0.0964
  797loPI   PO412412   3.455  19.095   5.254 -0.3139 -0.1519  0.1261
  797loPI   GL112413   3.418  18.976   5.721  0.1897  0.0842 -0.0149
  797loPI   GL212414   3.597  18.646   5.855  0.3204  0.1757 -0.0572
  797loPI   C1A12415   3.635  19.173   6.098  0.0032  0.1269  0.2958
  797loPI   C2A12416   4.004  19.152   6.517 -0.1720 -0.1468  0.2138
  797loPI   C3A12417   3.924  19.085   6.986 -0.1769 -0.0978 -0.3305
  797loPI   C4A12418   3.877  18.996   7.475 -0.1129  0.0288  0.0772
  797loPI   C5A12419   3.815  18.707   7.949  0.0963  0.1603 -0.2115
  797loPI   C6A12420   3.940  18.738   8.477 -0.0636  0.0588  0.0975
  797loPI   C1B12421   3.889  18.715   6.113 -0.0156  0.0053 -0.3933
  797loPI   C2B12422   3.760  18.740   6.522  0.1417  0.1937  0.1051
  797loPI   C3B12423   3.807  18.588   6.884 -0.0068 -0.3557  0.1617
  797loPI   C4B12424   4.206  18.594   7.036  0.2919 -0.0584  0.2674
  798loPI    C112425  12.718  14.653   5.293 -0.2701 -0.2202 -0.0023
  798loPI    C212426  12.833  14.888   4.990 -0.0670 -0.0894  0.1733
  798loPI    C312427  12.697  14.519   4.916 -0.3596  0.0690 -0.1023
  798loPI   PO412428  12.623  14.979   5.449  0.0554 -0.5842 -0.1553
  798loPI   GL112429  12.549  15.152   5.754  0.0377 -0.2052 -0.4982
  798loPI   GL212430  12.376  15.489   5.706  0.3664 -0.1235  0.1633
  798loPI   C1A12431  12.805  15.407   6.010  0.0640 -0.3767  0.0981
  798loPI   C2A12432  12.686  15.699   6.376  0.3416 -0.2883  0.4483
  798loPI   C3A12433  12.598  15.744   6.770 -0.1171  0.3451 -0.1185
  798loPI   C4A12434  12.727  15.844   7.178 -0.1830  0.4129 -0.1469
  798loPI   C5A12435  12.487  16.232   7.326 -0.0714  0.1449 -0.3092
  798loPI   C6A12436  12.196  16.533   7.401 -0.2107  0.5183 -0.2678
  798loPI   C1B12437  12.303  15.476   6.085  0.1191 -0.1685  0.0097
  798loPI   C2B12438  12.321  15.418   6.504 -0.0489 -0.1025 -0.1575
  798loPI   C3B12439  12.225  15.284   6.852  0.2116  0.0193  0.1100
  798loPI   C4B12440  12.023  15.400   7.285  0.0701  0.0019  0.1842
  799loPI    C112441   2.398   9.797   4.753  0.0114  0.0266 -0.2105
  799loPI    C212442   2.377  10.191   4.687  0.1191  0.0326 -0.2098
  799loPI    C312443   2.733  10.013   4.724  0.0666 -0.0092  0.1241
  799loPI   PO412444   2.183   9.722   4.997  0.1760 -0.1185  0.1070
  799loPI   GL112445   2.150   9.847   5.423 -0.2735  0.2851  0.3221
  799loPI   GL212446   1.888   9.670   5.408 -0.3673  0.2541 -0.3163
  799loPI   C1A12447   2.147   9.788   5.806  0.1557 -0.1176  0.1533
  799loPI   C2A12448   1.978   9.793   6.272 -0.1141 -0.0653 -0.0965
  799loPI   C3A12449   1.893   9.891   6.682  0.0959 -0.1904 -0.0803
  799loPI   C4A12450   1.713  10.179   7.070 -0.2923  0.0381  0.1891
  799loPI   C5A12451   1.425  10.463   7.198  0.0102  0.0816  0.0350
  799loPI   C6A12452   1.439  10.972   7.410 -0.1444  0.1649  0.0052
  799loPI   C1B12453   1.637   9.666   5.838 -0.1263 -0.0605 -0.0813
  799loPI   C2B12454   1.580   9.457   6.195  0.0300 -0.0316 -0.1403
  799loPI   C3B12455   1.680   9.367   6.631  0.0682  0.1121  0.1692
  799loPI   C4B12456   1.711   9.388   7.035 -0.1628  0.0076  0.1266
  800loPI    C112457  13.188   5.186   4.797 -0.2528  0.3415 -0.0675
  800loPI    C212458  13.532   5.263   4.607 -0.0883  0.1187  0.1331
  800loPI    C312459  13.213   5.137   4.401  0.0158  0.1116 -0.0256
  800loPI   PO412460  13.381   5.234   5.114 -0.3349 -0.2336  0.2502
  800loPI   GL112461  13.607   5.188   5.500  0.3255 -0.1476 -0.1191
  800loPI   GL212462  13.598   4.830   5.445  0.0018  0.2328 -0.0976
  800loPI   C1A12463  13.874   5.424   5.867  0.0508  0.1271  0.3663
  800loPI   C2A12464  13.991   5.444   6.293 -0.0009  0.1240  0.1883
  800loPI   C3A12465  13.941   5.358   6.768 -0.0215 -0.1734  0.1596
  800loPI   C4A12466  13.868   5.450   7.095  0.0790 -0.0494  0.0747
  800loPI   C5A12467  13.487   5.448   7.389  0.0555  0.2409 -0.1119
  800loPI   C6A12468  13.384   5.161   7.724  0.1683 -0.0848  0.1702
  800loPI   C1B12469  13.471   4.966   5.877 -0.0200 -0.1695  0.2157
  800loPI   C2B12470  13.552   5.242   6.231 -0.1203  0.0294  0.1479
  800loPI   C3B12471  13.306   5.131   6.710 -0.2912  0.3754 -0.0879
  800loPI   C4B12472  13.417   4.980   7.230  0.0934 -0.1757 -0.0783
  801loPI    C112473  14.637  14.836   4.820 -0.0291  0.1079 -0.2489
  801loPI    C212474  14.453  14.579   4.576 -0.0986  0.0142 -0.0988
  801loPI    C312475  14.732  14.826   4.432 -0.0289 -0.1474 -0.2435
  801loPI   PO412476  14.675  14.627   5.013 -0.1233  0.0192 -0.0001
  801loPI   GL112477  14.648  14.708   5.365 -0.1915  0.0161  0.2754
  801loPI   GL212478  14.931  14.583   5.546 -0.1136  0.2604 -0.0255
  801loPI   C1A12479  14.560  14.849   5.815 -0.0782  0.1545 -0.1793
  801loPI   C2A12480  14.662  15.018   6.202 -0.1568 -0.0213  0.0827
  801loPI   C3A12481  14.663  15.141   6.692  0.0438 -0.2261  0.0206
  801loPI   C4A12482  14.548  15.165   7.145 -0.0908 -0.2602  0.1678
  801loPI   C5A12483  14.231  15.245   7.497  0.1143  0.0289  0.3098
  801loPI   C6A12484  14.135  15.367   7.945 -0.1198  0.0922  0.0938
  801loPI   C1B12485  14.891  14.518   6.039 -0.0936  0.3600  0.1462
  801loPI   C2B12486  14.702  14.616   6.513 -0.0423  0.0608 -0.1143
  801loPI   C3B12487  14.744  14.587   7.008  0.3083  0.0668  0.1918
  801loPI   C4B12488  15.184  14.589   7.147  0.0993  0.0015 -0.2003
  802loPI    C112489   1.991   0.750   4.711  0.0666 -0.0091 -0.0305
  802loPI    C212490   1.721   0.490   4.569 -0.1458  0.0715  0.2178
  802loPI    C312491   1.862   0.781   4.333 -0.0392 -0.1584 -0.0078
  802loPI   PO412492   1.877   0.790   4.993  0.3335  0.0654 -0.4207
  802loPI   GL112493   1.666   0.891   5.358 -0.1192 -0.0382  0.1441
  802loPI   GL212494   1.377   1.009   5.284  0.1160 -0.1314  0.2580
  802loPI   C1A12495   1.872   0.956   5.793 -0.5373  0.0535 -0.1991
  802loPI   C2A12496   1.855   1.201   6.219 -0.3962 -0.2354  0.0229
  802loPI   C3A12497   1.923   1.332   6.692  0.0120 -0.0933 -0.3352
  802loPI   C4A12498   1.788   1.406   7.064  0.4107 -0.2788 -0.0647
  802loPI   C5A12499   1.830   1.663   7.409 -0.1216 -0.0705  0.6428
  802loPI   C6A12500   1.797   2.108   7.429 -0.3554  0.0276  0.2548
  802loPI   C1B12501   1.014   1.275   5.502  0.0412  0.6193 -0.4002
  802loPI   C2B12502   0.690   1.315   5.678 -0.0674 -0.0652  0.0496
  802loPI   C3B12503   0.538   1.360   6.017  0.1320  0.1222 -0.1019
  802loPI   C4B12504   0.302   1.523   6.376 -0.0190 -0.0770 -0.1242
  803loPI    C112505   9.726  17.774   5.118  0.0218  0.0579 -0.0005
  803loPI    C212506   9.789  17.897   4.743  0.0290 -0.0411 -0.0320
  803loPI    C312507  10.100  17.808   4.979  0.0345  0.2609  0.0792
  803loPI   PO412508   9.584  17.923   5.237 -0.3817  0.2239 -0.0331
  803loPI   GL112509   9.532  18.390   5.492 -0.1905  0.3922  0.1917
  803loPI   GL212510   9.603  18.649   5.654  0.0213  0.0572  0.1445
  803loPI   C1A12511   9.544  18.237   5.950  0.0458  0.1243  0.0024
  803loPI   C2A12512   9.423  18.283   6.364 -0.0929 -0.1218 -0.2459
  803loPI   C3A12513   9.395  18.161   6.834 -0.2675 -0.1761  0.0667
  803loPI   C4A12514   9.536  18.208   7.173 -0.2561 -0.0375 -0.2670
  803loPI   C5A12515   9.298  18.208   7.490 -0.0053 -0.0817 -0.0777
  803loPI   C6A12516   9.399  18.016   7.842  0.2433 -0.1033 -0.0048
  803loPI   C1B12517   9.613  18.709   6.145  0.2104  0.0491  0.1517
  803loPI   C2B12518   9.542  18.783   6.609  0.2516  0.1109  0.1011
  803loPI   C3B12519   9.539  18.694   7.036 -0.2414  0.0595 -0.1225
  803loPI   C4B12520   9.422  18.691   7.444  0.2278 -0.0025 -0.0674
  804loPI    C112521   5.444   8.667   4.690 -0.1402  0.0624  0.1746
  804loPI    C212522   5.731   8.934   4.611 -0.0418 -0.0732  0.0685
  804loPI    C312523   5.644   8.649   4.344 -0.1380 -0.1545  0.1853
  804loPI   PO412524   5.468   8.606   4.905  0.0337 -0.0500  0.1346
  804loPI   GL112525   5.237   8.669   5.314 -0.0500  0.1097 -0.2099
  804loPI   GL212526   5.249   8.877   5.504  0.1538  0.4039 -0.0296
  804loPI   C1A12527   5.360   8.373   5.644 -0.0769  0.1767  0.0732
  804loPI   C2A12528   5.730   8.489   6.049 -0.1448 -0.2789 -0.0648
  804loPI   C3A12529   6.078   8.453   6.382  0.2332  0.0585  0.1405
  804loPI   C4A12530   6.294   8.478   6.819 -0.0517  0.2430 -0.4792
  804loPI   C5A12531   6.593   8.158   6.989 -0.0262  0.0863 -0.0524
  804loPI   C6A12532   6.812   7.991   7.358  0.3926 -0.0129  0.2274
  804loPI   C1B12533   5.193   8.757   5.941 -0.4300 -0.2569 -0.0530
  804loPI   C2B12534   5.205   8.736   6.414 -0.1676 -0.0310 -0.2689
  804loPI   C3B12535   5.166   8.741   6.909 -0.1177 -0.0385 -0.0145
  804loPI   C4B12536   4.991   8.978   7.273 -0.0170  0.1605 -0.0111
  805loPI    C112537  16.945  17.703   4.746 -0.2443 -0.0784 -0.1479
  805loPI    C212538  16.802  18.074   4.787  0.0463  0.0276 -0.0679
  805loPI    C312539  17.073  17.994   4.503  0.1676 -0.0668  0.0724
  805loPI   PO412540  16.896  17.636   4.964 -0.0026  0.1903  0.0289
  805loPI   GL112541  16.641  17.451   5.331 -0.1722 -0.0962  0.0427
  805loPI   GL212542  16.900  17.415   5.470 -0.3471 -0.0102  0.3823
  805loPI   C1A12543  16.437  17.228   5.679  0.3341 -0.1899  0.4823
  805loPI   C2A12544  16.421  17.083   6.106  0.3635  0.1100  0.1575
  805loPI   C3A12545  16.526  17.063   6.540 -0.1118  0.2296 -0.0737
  805loPI   C4A12546  16.368  17.065   7.024  0.1390 -0.2380 -0.0134
  805loPI   C5A12547  16.140  17.269   7.268  0.0651  0.4898  0.0009
  805loPI   C6A12548  15.761  17.364   7.476  0.1793 -0.0084 -0.0097
  805loPI   C1B12549  16.812  17.368   5.915  0.0613 -0.0974 -0.1386
  805loPI   C2B12550  16.753  17.508   6.257 -0.1484 -0.0132 -0.2192
  805loPI   C3B12551  16.667  17.561   6.606  0.1327 -0.0360  0.0960
  805loPI   C4B12552  16.729  17.546   7.008  0.1696  0.2181 -0.2099
  806loPI    C112553   3.532   0.607   4.573 -0.0285  0.1130  0.0493
  806loPI    C212554   3.293   0.477   4.280  0.1725 -0.0928 -0.0265
  806loPI    C312555   3.596   0.723   4.196 -0.1783  0.4017  0.1101
  806loPI   PO412556   3.361   0.729   4.784 -0.1372 -0.2265 -0.0675
  806loPI   GL112557   3.370   0.740   5.172  0.0841 -0.3033  0.1284
  806loPI   GL212558   3.325   0.478   5.433  0.1667  0.1166 -0.0244
  806loPI   C1A12559   3.064   0.895   5.500  0.0526 -0.0923 -0.4208
  806loPI   C2A12560   2.934   0.788   5.828  0.2978  0.0059  0.0321
  806loPI   C3A12561   2.700   0.827   6.274  0.0770  0.0406  0.0451
  806loPI   C4A12562   2.516   0.562   6.574  0.0841  0.0464 -0.1616
  806loPI   C5A12563   2.376   0.094   6.603 -0.4043  0.2947 -0.0502
  806loPI   C6A12564   2.394  -0.285   6.819  0.2107  0.3622  0.1845
  806loPI   C1B12565   3.333   0.541   5.839 -0.0056 -0.1474 -0.0653
  806loPI   C2B12566   3.169   0.671   6.299 -0.1532 -0.1591  0.5181
  806loPI   C3B12567   3.069   0.639   6.746 -0.2412  0.0247  0.0990
  806loPI   C4B12568   3.113   0.384   7.142  0.2595 -0.0429 -0.0425
  807loPI    C112569   6.908   7.906   4.545  0.0182 -0.3760  0.0149
  807loPI    C212570   6.531   7.897   4.412  0.0443 -0.2803 -0.0667
  807loPI    C312571   6.834   7.832   4.159  0.0855 -0.2934 -0.0142
  807loPI   PO412572   6.942   7.782   4.841 -0.2209 -0.1009 -0.1849
  807loPI   GL112573   6.793   7.421   5.175 -0.0254 -0.0937  0.1576
  807loPI   GL212574   6.582   7.181   5.116  0.1476  0.1262  0.1873
  807loPI   C1A12575   6.531   7.434   5.564  0.0101  0.0015  0.0319
  807loPI   C2A12576   6.352   7.549   5.959 -0.0123 -0.0175 -0.1364
  807loPI   C3A12577   6.386   7.439   6.368  0.2748 -0.0235  0.3785
  807loPI   C4A12578   6.313   7.286   6.832 -0.5105 -0.1253 -0.1597
  807loPI   C5A12579   6.757   7.176   7.096  0.0554  0.3839  0.1528
  807loPI   C6A12580   7.094   7.443   7.019  0.4318  0.2731  0.1463
  807loPI   C1B12581   6.504   6.914   5.413  0.1927 -0.1955  0.1977
  807loPI   C2B12582   6.496   6.959   5.863 -0.2114 -0.1414 -0.1301
  807loPI   C3B12583   6.455   6.897   6.350  0.0380 -0.2964  0.4306
  807loPI   C4B12584   6.515   6.779   6.850 -0.5402 -0.2560 -0.2300
  808loPI    C112585   4.495  14.433   5.200  0.3751 -0.0619  0.2218
  808loPI    C212586   4.785  14.672   5.063  0.4530 -0.2042  0.1352
  808loPI    C312587   4.505  14.534   4.813  0.2581  0.0021  0.2348
  808loPI   PO412588   4.655  14.268   5.333 -0.1361 -0.0029 -0.0277
  808loPI   GL112589   4.676  13.938   5.606  0.0893  0.0890  0.0010
  808loPI   GL212590   4.803  13.584   5.626  0.1633 -0.1748 -0.1036
  808loPI   C1A12591   4.462  13.919   5.904  0.1662 -0.2695  0.1052
  808loPI   C2A12592   4.274  13.840   6.249  0.0513  0.4579 -0.1163
  808loPI   C3A12593   4.280  13.769   6.690 -0.2512 -0.0939  0.1174
  808loPI   C4A12594   4.266  13.913   7.073  0.1218 -0.0200 -0.0284
  808loPI   C5A12595   4.464  14.012   7.371  0.1908  0.1305  0.2888
  808loPI   C6A12596   4.520  14.167   7.792 -0.1081 -0.0699 -0.0475
  808loPI   C1B12597   5.170  13.565   5.836 -0.3956  0.0839  0.0441
  808loPI   C2B12598   5.246  13.515   6.266 -0.0439  0.0066 -0.1095
  808loPI   C3B12599   5.214  13.642   6.751  0.0663 -0.2384 -0.0605
  808loPI   C4B12600   5.141  13.808   7.201  0.1746  0.3554  0.0184
  809loPI    C112601  18.013  14.778   5.074 -0.0679 -0.0376 -0.1632
  809loPI    C212602  18.028  15.089   4.823 -0.0517  0.0242 -0.0863
  809loPI    C312603  18.117  15.140   5.209  0.0815 -0.1031 -0.0993
  809loPI   PO412604  17.801  14.638   5.104  0.0376  0.2210 -0.2753
  809loPI   GL112605  17.605  14.689   5.498 -0.0471  0.1090  0.0961
  809loPI   GL212606  17.844  14.885   5.567  0.1802  0.0582 -0.1742
  809loPI   C1A12607  17.605  14.572   5.950 -0.0367 -0.1267 -0.1229
  809loPI   C2A12608  17.588  14.650   6.420  0.1121 -0.1558 -0.0259
  809loPI   C3A12609  17.801  14.697   6.695  0.1632  0.1914 -0.2375
  809loPI   C4A12610  17.794  14.595   7.107 -0.0984  0.1184 -0.0328
  809loPI   C5A12611  17.749  14.110   7.184  0.1926  0.1476 -0.3921
  809loPI   C6A12612  17.849  13.803   6.905 -0.0970  0.2361 -0.0438
  809loPI   C1B12613  18.064  14.803   5.922 -0.1212  0.0414  0.2202
  809loPI   C2B12614  18.173  14.806   6.338  0.3661 -0.0693 -0.1093
  809loPI   C3B12615  18.312  14.606   6.729 -0.2677  0.2436 -0.1651
  809loPI   C4B12616  18.221  14.249   6.994  0.1817 -0.0032  0.2423
  810loPI    C112617   2.662   9.131   5.096 -0.1963 -0.2777  0.0070
  810loPI    C212618   2.709   9.258   5.472 -0.1721 -0.1712 -0.0316
  810loPI    C312619   2.361   9.315   5.284 -0.1493 -0.1297 -0.0613
  810loPI   PO412620   2.688   8.900   5.083 -0.0259  0.0665  0.0420
  810loPI   GL112621   2.833   8.699   5.449  0.0394 -0.3369  0.2709
  810loPI   GL212622   2.857   8.346   5.432  0.1574 -0.1404  0.0409
  810loPI   C1A12623   2.893   8.944   5.825  0.0447  0.0042 -0.1574
  810loPI   C2A12624   2.774   8.972   6.307 -0.3600  0.0888 -0.0476
  810loPI   C3A12625   2.934   8.998   6.726  0.1044 -0.1175  0.1113
  810loPI   C4A12626   2.912   8.891   7.229  0.3191 -0.2168 -0.1648
  810loPI   C5A12627   2.619   8.890   7.594 -0.0029 -0.0828  0.0261
  810loPI   C6A12628   2.536   8.645   7.920  0.1372 -0.0225  0.1235
  810loPI   C1B12629   2.566   8.416   5.903 -0.3019  0.0358 -0.1245
  810loPI   C2B12630   2.568   8.428   6.368  0.0400 -0.1545  0.2013
  810loPI   C3B12631   2.455   8.338   6.793  0.1402  0.0389 -0.0629
  810loPI   C4B12632   2.481   8.296   7.202  0.4618 -0.1637  0.2676
  811loPI    C112633   9.363   4.286   4.881  0.2878  0.1603  0.1366
  811loPI    C212634   9.356   4.668   4.764  0.2268  0.0856 -0.1079
  811loPI    C312635   9.535   4.392   4.536 -0.1212 -0.1043 -0.1576
  811loPI   PO412636   9.421   4.322   5.164 -0.0453  0.0690  0.0954
  811loPI   GL112637   9.613   4.775   5.375 -0.0703 -0.1517 -0.0138
  811loPI   GL212638   9.269   4.923   5.239  0.0922 -0.3226  0.1807
  811loPI   C1A12639   9.551   5.049   5.777  0.0345  0.0960  0.4821
  811loPI   C2A12640   9.500   5.132   6.269  0.1007 -0.1660  0.1097
  811loPI   C3A12641   9.555   5.110   6.672 -0.3525  0.1347  0.0694
  811loPI   C4A12642   9.414   4.963   7.010 -0.2039 -0.1951 -0.1341
  811loPI   C5A12643   9.296   4.904   7.394  0.0691  0.4755 -0.2533
  811loPI   C6A12644   9.268   4.995   7.784 -0.0245 -0.2865  0.2422
  811loPI   C1B12645   9.122   4.785   5.636  0.0985 -0.1127  0.0830
  811loPI   C2B12646   9.256   4.536   6.023 -0.1217 -0.4580  0.2333
  811loPI   C3B12647   9.040   4.501   6.447 -0.0862 -0.0552  0.1947
  811loPI   C4B12648   9.022   4.678   6.846 -0.0197 -0.0123  0.0631
  812loPI    C112649  17.885   2.420   4.436  0.1105 -0.2895  0.1535
  812loPI    C212650  17.986   2.330   4.060  0.0955  0.2543  0.0104
  812loPI    C312651  17.651   2.179   4.220  0.2131 -0.1518 -0.1154
  812loPI   PO412652  18.103   2.413   4.656  0.2750  0.0629  0.0408
  812loPI   GL112653  18.186   2.715   4.981 -0.1240 -0.2041 -0.1809
  812loPI   GL212654  18.335   2.534   5.171  0.1234 -0.2158  0.1214
  812loPI   C1A12655  17.921   2.833   5.388 -0.1019  0.2397 -0.0260
  812loPI   C2A12656  17.806   2.942   5.884 -0.2596 -0.3466  0.0982
  812loPI   C3A12657  18.064   3.161   6.225 -0.0826  0.5033 -0.2482
  812loPI   C4A12658  18.463   3.174   6.567 -0.3106  0.1872 -0.3738
  812loPI   C5A12659  18.669   3.408   6.878 -0.1366  0.1297  0.0362
  812loPI   C6A12660  19.020   3.674   7.045  0.1135  0.4086  0.5223
  812loPI   C1B12661  18.266   2.463   5.577 -0.1101 -0.2171  0.0730
  812loPI   C2B12662  18.095   2.521   5.949  0.2201  0.1487 -0.0465
  812loPI   C3B12663  17.857   2.527   6.284 -0.0450  0.0592  0.3009
  812loPI   C4B12664  17.830   2.856   6.518 -0.1594  0.1992  0.1056
  813loPI    C112665   0.318  10.720   4.828 -0.0261 -0.4317 -0.2423
  813loPI    C212666   0.076  10.821   4.526 -0.1988 -0.7257 -0.2073
  813loPI    C312667   0.434  10.661   4.450  0.2771  0.2889 -0.2774
  813loPI   PO412668   0.150  10.662   5.016  0.1921 -0.2299 -0.3178
  813loPI   GL112669  -0.254  10.460   5.145  0.3483 -0.2739 -0.2021
  813loPI   GL212670  -0.083  10.483   5.493 -0.5108  0.0955 -0.0895
  813loPI   C1A12671  -0.646  10.366   5.480 -0.1757 -0.1945  0.2999
  813loPI   C2A12672  -0.797  10.395   5.826 -0.1182 -0.4553  0.0051
  813loPI   C3A12673  -0.911  10.588   6.153  0.1439 -0.1925  0.1150
  813loPI   C4A12674  -0.702  10.721   6.478  0.0117 -0.1514  0.1351
  813loPI   C5A12675  -0.820  10.824   6.896 -0.0833  0.2501  0.0386
  813loPI   C6A12676  -0.793  10.877   7.307 -0.0531 -0.0296 -0.2058
  813loPI   C1B12677  -0.358  10.638   5.785  0.2618  0.0990  0.1100
  813loPI   C2B12678  -0.456  10.878   6.068  0.0414 -0.1700 -0.1315
  813loPI   C3B12679  -0.448  11.240   6.221  0.0208 -0.0136 -0.1860
  813loPI   C4B12680  -0.530  11.707   6.436 -0.1832 -0.2127  0.0259
  814loPI    C112681   2.414  18.279   5.207 -0.0593  0.1663  0.1797
  814loPI    C212682   2.484  18.473   4.865 -0.2107 -0.0427  0.0276
  814loPI    C312683   2.664  18.123   4.936 -0.2856 -0.0665  0.1005
  814loPI   PO412684   2.140  18.545   5.306 -0.0397 -0.2480 -0.0266
  814loPI   GL112685   1.911  18.709   5.649  0.0388  0.0930 -0.2860
  814loPI   GL212686   1.618  18.741   5.617  0.1573 -0.0857 -0.0972
  814loPI   C1A12687   2.237  18.691   5.944  0.3008  0.1368  0.0321
  814loPI   C2A12688   2.474  18.641   6.343 -0.0804 -0.0123  0.1165
  814loPI   C3A12689   2.759  18.526   6.693 -0.0731 -0.2625 -0.4149
  814loPI   C4A12690   3.025  18.692   7.044  0.2306 -0.0339  0.1525
  814loPI   C5A12691   3.400  18.681   7.245  0.1530 -0.2927 -0.1006
  814loPI   C6A12692   3.469  18.918   7.667  0.3497 -0.0915 -0.2275
  814loPI   C1B12693   1.472  18.598   6.038 -0.0318 -0.1235 -0.0311
  814loPI   C2B12694   1.541  18.521   6.500  0.0598  0.1333  0.2463
  814loPI   C3B12695   1.457  18.276   6.917  0.1885 -0.1864  0.1320
  814loPI   C4B12696   1.136  18.171   7.044  0.1723 -0.0261  0.0165
  815loPI    C112697   6.459  15.256   4.760 -0.3459  0.2806  0.0628
  815loPI    C212698   6.525  15.239   4.366  0.0860  0.0249  0.1392
  815loPI    C312699   6.413  14.910   4.564  0.2677  0.0549  0.2937
  815loPI   PO412700   6.586  15.394   4.848 -0.1389 -0.0665 -0.1517
  815loPI   GL112701   6.624  15.484   5.256 -0.0114 -0.0820 -0.3676
  815loPI   GL212702   6.659  15.735   5.371  0.1326 -0.0759  0.0496
  815loPI   C1A12703   6.793  15.400   5.683 -0.0767  0.0835 -0.2797
  815loPI   C2A12704   6.640  15.326   6.125 -0.0734 -0.0808  0.2692
  815loPI   C3A12705   6.684  15.329   6.503 -0.2050  0.1544 -0.0253
  815loPI   C4A12706   6.601  15.463   6.908 -0.0994 -0.4404 -0.0414
  815loPI   C5A12707   6.519  15.243   7.225  0.0226  0.2592 -0.1357
  815loPI   C6A12708   6.817  15.095   7.568  0.1290  0.2436 -0.2899
  815loPI   C1B12709   6.556  15.847   5.679  0.1585  0.1041 -0.0004
  815loPI   C2B12710   6.642  15.871   6.120 -0.0582 -0.1500  0.1617
  815loPI   C3B12711   6.727  15.864   6.556 -0.1440 -0.0006  0.2434
  815loPI   C4B12712   7.061  15.635   6.711  0.2713 -0.2754  0.4157
  816loPI    C112713  18.771   3.112   4.394 -0.0843  0.1125 -0.1542
  816loPI    C212714  19.003   2.960   4.106 -0.0563 -0.0084 -0.0690
  816loPI    C312715  18.608   2.899   4.098 -0.0307 -0.1928  0.0318
  816loPI   PO412716  18.928   3.058   4.602  0.5144  0.1473 -0.2083
  816loPI   GL112717  18.835   2.886   4.989 -0.0973  0.0292  0.1471
  816loPI   GL212718  18.781   2.553   4.961  0.0158  0.2685  0.1640
  816loPI   C1A12719  19.091   2.897   5.351 -0.0033  0.1689  0.2424
  816loPI   C2A12720  19.261   2.826   5.852 -0.0862 -0.3355  0.1591
  816loPI   C3A12721  19.374   2.995   6.323  0.4453  0.0771  0.2982
  816loPI   C4A12722  19.225   2.974   6.701 -0.1143 -0.0975 -0.0624
  816loPI   C5A12723  19.128   2.557   7.052 -0.0354  0.1988 -0.3303
  816loPI   C6A12724  19.353   2.153   7.226 -0.0098 -0.0076 -0.0669
  816loPI   C1B12725  18.752   2.497   5.400  0.0126  0.1226  0.0058
  816loPI   C2B12726  18.785   2.729   5.736  0.1772  0.1056  0.2049
  816loPI   C3B12727  18.850   2.595   6.157  0.1072 -0.2184  0.2885
  816loPI   C4B12728  18.931   2.589   6.487 -0.2386 -0.0451 -0.0689
  817loPI    C112729  17.418   1.607   4.605 -0.0847 -0.0831 -0.1004
  817loPI    C212730  17.320   1.859   4.311 -0.1981  0.1518  0.1342
  817loPI    C312731  17.675   1.675   4.307 -0.1995  0.1513 -0.1487
  817loPI   PO412732  17.424   1.670   4.802 -0.0709 -0.0277 -0.2079
  817loPI   GL112733  17.226   1.685   5.224  0.0019 -0.0655  0.0279
  817loPI   GL212734  17.007   1.911   5.294  0.1017 -0.3063 -0.2079
  817loPI   C1A12735  17.202   1.426   5.609  0.0481  0.0464 -0.3524
  817loPI   C2A12736  17.040   1.329   5.966 -0.0877 -0.0380 -0.0998
  817loPI   C3A12737  16.976   1.555   6.330  0.0135  0.2231 -0.2158
  817loPI   C4A12738  17.089   1.756   6.784  0.2198 -0.2091 -0.2637
  817loPI   C5A12739  16.976   1.953   7.242 -0.2756  0.2387 -0.1203
  817loPI   C6A12740  16.734   2.195   7.519 -0.0906 -0.1720 -0.0001
  817loPI   C1B12741  17.031   1.838   5.746 -0.0831 -0.0908 -0.1530
  817loPI   C2B12742  17.167   2.111   6.078  0.0961 -0.0650 -0.1074
  817loPI   C3B12743  17.390   2.271   6.453 -0.2858 -0.0473 -0.0293
  817loPI   C4B12744  17.286   2.703   6.614  0.1019  0.1436 -0.0152
  818loPI    C112745   2.766   5.946   4.916  0.2067 -0.1011 -0.3668
  818loPI    C212746   2.851   6.295   4.739 -0.2865  0.1042 -0.2151
  818loPI    C312747   2.489   6.129   4.693 -0.1615 -0.2312 -0.0282
  818loPI   PO412748   2.817   6.004   5.164  0.0588  0.2888 -0.0312
  818loPI   GL112749   3.038   6.121   5.517  0.2140 -0.2638  0.3128
  818loPI   GL212750   2.793   6.268   5.591 -0.0276  0.1229 -0.1303
  818loPI   C1A12751   3.030   5.753   5.933 -0.3508  0.1298  0.2197
  818loPI   C2A12752   3.044   5.593   6.387  0.0014 -0.0013  0.1904
  818loPI   C3A12753   3.103   5.598   6.750 -0.3531  0.2269  0.0086
  818loPI   C4A12754   2.723   5.660   7.174  0.0962  0.0693  0.1641
  818loPI   C5A12755   2.437   5.731   7.493 -0.0289  0.1047  0.2615
  818loPI   C6A12756   2.195   5.653   7.924  0.1533  0.0889 -0.1436
  818loPI   C1B12757   2.498   6.152   5.912  0.2392  0.1011 -0.2154
  818loPI   C2B12758   2.663   5.894   6.289 -0.0959 -0.2560 -0.3216
  818loPI   C3B12759   2.687   5.901   6.727 -0.2039 -0.0514  0.1691
  818loPI   C4B12760   2.978   6.041   7.008 -0.3941 -0.4489 -0.1048
  819loPI    C112761  18.891   9.610   4.329 -0.2178 -0.0794  0.0995
  819loPI    C212762  18.753   9.445   4.666 -0.3281  0.0421  0.1152
  819loPI    C312763  18.538   9.422   4.330 -0.1982 -0.1166  0.0411
  819loPI   PO412764  19.045   9.878   4.509 -0.1241  0.0905 -0.2990
  819loPI   GL112765  18.766  10.000   4.836  0.0456  0.2694 -0.1302
  819loPI   GL212766  18.622   9.886   5.027 -0.2807  0.2083  0.3019
  819loPI   C1A12767  18.909   9.989   5.362  0.3664 -0.2411 -0.0062
  819loPI   C2A12768  18.930  10.028   5.840  0.0571 -0.4433  0.1262
  819loPI   C3A12769  18.743  10.240   6.079  0.3513 -0.1283 -0.3914
  819loPI   C4A12770  18.800  10.297   6.507 -0.2516  0.0618  0.1841
  819loPI   C5A12771  18.706  10.491   6.849  0.1872  0.0867  0.0195
  819loPI   C6A12772  18.778  10.584   7.305  0.1685 -0.1750 -0.1590
  819loPI   C1B12773  18.395   9.830   5.415  0.0061 -0.3412  0.0592
  819loPI   C2B12774  18.360   9.926   5.848  0.0774 -0.0879  0.0158
  819loPI   C3B12775  18.319  10.136   6.338  0.1564 -0.0805 -0.0790
  819loPI   C4B12776  18.232  10.261   6.779  0.2242  0.1174 -0.4845
  820loPI    C112777   9.600   9.887   5.156  0.2685  0.2850  0.0116
  820loPI    C212778   9.459  10.025   4.809  0.0766  0.2089  0.0581
  820loPI    C312779   9.468  10.264   5.130 -0.5524  0.0319  0.2214
  820loPI   PO412780   9.797   9.731   5.087  0.0864 -0.3676  0.1207
  820loPI   GL112781   9.875   9.472   5.415 -0.1161 -0.1953  0.0155
  820loPI   GL212782  10.264   9.500   5.384  0.0430 -0.0725  0.1332
  820loPI   C1A12783  10.043   9.307   5.829 -0.0127 -0.1851  0.3008
  820loPI   C2A12784  10.000   9.168   6.244  0.2513 -0.3418  0.0445
  820loPI   C3A12785  10.261   8.929   6.606 -0.0116 -0.2510 -0.2782
  820loPI   C4A12786  10.091   8.649   6.809  0.1740  0.1561 -0.2740
  820loPI   C5A12787   9.978   8.325   7.005  0.2989 -0.2706  0.0987
  820loPI   C6A12788   9.606   8.031   7.175  0.2769  0.0766  0.0987
  820loPI   C1B12789  10.653   9.485   5.656  0.0095  0.0520  0.1030
  820loPI   C2B12790  10.676   9.293   5.999 -0.0007 -0.1107 -0.1503
  820loPI   C3B12791  10.662   9.215   6.481 -0.0216 -0.0785 -0.1431
  820loPI   C4B12792  10.693   9.036   6.795 -0.0663  0.3545  0.0057
  821loPI    C112793   0.935   0.547   4.651 -0.0921 -0.1150 -0.0248
  821loPI    C212794   0.966   0.770   4.321 -0.1614  0.0030  0.0477
  821loPI    C312795   0.910   0.375   4.291  0.0144 -0.0134 -0.0813
  821loPI   PO412796   0.793   0.714   4.792 -0.1803  0.1425 -0.0257
  821loPI   GL112797   0.928   0.762   5.186  0.0730 -0.0961 -0.0569
  821loPI   GL212798   1.205   0.558   5.446  0.0886 -0.1701  0.1173
  821loPI   C1A12799   0.737   0.804   5.608  0.1873 -0.1334 -0.1745
  821loPI   C2A12800   0.485   0.893   6.001  0.3837 -0.0704  0.0127
  821loPI   C3A12801   0.431   1.054   6.394 -0.1616 -0.0796 -0.3023
  821loPI   C4A12802   0.541   1.060   6.758 -0.1743  0.1030 -0.0714
  821loPI   C5A12803   0.361   1.311   7.114 -0.5519  0.2229  0.0204
  821loPI   C6A12804   0.045   1.563   7.357 -0.3077 -0.1400  0.3476
  821loPI   C1B12805   1.260   0.911   5.770  0.2418  0.2932 -0.0452
  821loPI   C2B12806   0.936   1.062   5.974  0.1984  0.0380 -0.1039
  821loPI   C3B12807   0.938   1.328   6.367  0.2093  0.1223 -0.1687
  821loPI   C4B12808   0.746   1.555   6.803 -0.0487 -0.0780 -0.1517
  822loPI    C112809  12.952  12.167   4.883 -0.1586  0.4275 -0.1646
  822loPI    C212810  12.680  12.253   5.163 -0.1797 -0.1043 -0.0100
  822loPI    C312811  12.567  12.079   4.821 -0.1017  0.1847 -0.1864
  822loPI   PO412812  13.132  12.062   5.125  0.2372  0.4268 -0.1483
  822loPI   GL112813  12.983  11.944   5.483 -0.2120  0.1078 -0.0430
  822loPI   GL212814  12.657  11.866   5.470  0.1348  0.1113 -0.1159
  822loPI   C1A12815  12.987  11.754   5.859 -0.1569  0.0253  0.0324
  822loPI   C2A12816  12.865  11.454   6.231 -0.3779 -0.0082  0.0182
  822loPI   C3A12817  12.723  11.185   6.496  0.0395  0.0575 -0.1152
  822loPI   C4A12818  12.867  10.811   6.865 -0.2847  0.0916 -0.0029
  822loPI   C5A12819  13.057  10.829   7.204  0.0256  0.1772  0.2390
  822loPI   C6A12820  13.434  10.602   7.398 -0.1498 -0.0435  0.2132
  822loPI   C1B12821  12.549  12.021   5.847 -0.1850  0.1072  0.1373
  822loPI   C2B12822  12.573  11.984   6.236  0.2322  0.0950  0.2546
  822loPI   C3B12823  12.727  11.859   6.570 -0.1500  0.0525 -0.1470
  822loPI   C4B12824  12.713  11.556   6.866  0.3620 -0.0521  0.4201
  823loPI    C112825   6.821   3.340   5.048  0.2726  0.1099 -0.0903
  823loPI    C212826   6.823   3.740   5.073  0.1234  0.0907  0.2830
  823loPI    C312827   6.706   3.561   4.735  0.1937  0.3614  0.1128
  823loPI   PO412828   6.913   3.245   5.254 -0.0530  0.2960  0.1230
  823loPI   GL112829   6.769   3.057   5.556  0.1118  0.1135 -0.0531
  823loPI   GL212830   6.487   3.037   5.714  0.0527  0.0992 -0.0188
  823loPI   C1A12831   7.066   3.260   5.917 -0.1044  0.2378 -0.2611
  823loPI   C2A12832   6.987   3.351   6.263  0.1303 -0.2258  0.2359
  823loPI   C3A12833   7.272   3.508   6.506 -0.2453 -0.1869 -0.0326
  823loPI   C4A12834   7.442   3.711   6.895  0.3335  0.2119  0.0650
  823loPI   C5A12835   7.300   3.994   7.112  0.0346  0.1028  0.0717
  823loPI   C6A12836   7.300   4.373   7.468  0.2512  0.2854 -0.0991
  823loPI   C1B12837   6.224   2.778   5.939 -0.2544 -0.0842  0.3337
  823loPI   C2B12838   5.973   2.712   6.386  0.0444  0.1489 -0.0460
  823loPI   C3B12839   5.628   2.718   6.698  0.1434 -0.1794 -0.1510
  823loPI   C4B12840   5.512   2.780   7.149  0.1983  0.0463  0.1711
  824loPI    C112841   7.325   2.999   4.993  0.0099  0.0418  0.1362
  824loPI    C212842   6.982   2.825   4.882  0.0509  0.0177  0.0464
  824loPI    C312843   7.100   3.165   4.707  0.0909  0.0064  0.0510
  824loPI   PO412844   7.363   3.015   5.163  0.2627  0.2049 -0.0597
  824loPI   GL112845   7.397   3.189   5.562  0.2735  0.2356  0.0140
  824loPI   GL212846   7.217   2.857   5.637  0.0778 -0.1645  0.2196
  824loPI   C1A12847   7.427   3.580   5.834  0.1168 -0.0168 -0.3132
  824loPI   C2A12848   7.444   3.867   6.183  0.0133  0.1759  0.0888
  824loPI   C3A12849   7.714   3.997   6.602  0.0587  0.4489 -0.0818
  824loPI   C4A12850   7.815   4.115   7.029  0.4485  0.0335 -0.2403
  824loPI   C5A12851   7.840   4.501   7.361 -0.2119  0.0698  0.1618
  824loPI   C6A12852   7.773   4.802   7.739 -0.1480  0.0584  0.1861
  824loPI   C1B12853   7.157   2.863   6.172 -0.0943 -0.2870 -0.2251
  824loPI   C2B12854   7.419   2.871   6.526 -0.2287 -0.0873  0.2190
  824loPI   C3B12855   7.567   2.816   6.951  0.0677  0.0002  0.1671
  824loPI   C4B12856   7.708   3.012   7.329 -0.1979  0.1341  0.0360
  825loPI    C112857  14.769  16.908   4.846  0.0637  0.1983  0.1559
  825loPI    C212858  15.003  16.675   4.621  0.0138  0.0241  0.2819
  825loPI    C312859  14.824  16.994   4.460  0.0640 -0.0374  0.1016
  825loPI   PO412860  14.845  17.003   5.062  0.0617  0.3065  0.2445
  825loPI   GL112861  14.893  16.753   5.462  0.0636  0.0851  0.0415
  825loPI   GL212862  14.778  16.481   5.264 -0.3929  0.0782  0.0732
  825loPI   C1A12863  14.606  16.744   5.892 -0.1621 -0.0140  0.0619
  825loPI   C2A12864  14.421  16.860   6.245 -0.0680 -0.0499 -0.1367
  825loPI   C3A12865  14.159  16.819   6.418 -0.1590  0.4052  0.3300
  825loPI   C4A12866  14.206  16.888   6.805 -0.3707 -0.6618  0.0010
  825loPI   C5A12867  14.254  16.923   7.288  0.1199  0.0161  0.1276
  825loPI   C6A12868  14.166  17.066   7.705 -0.2264 -0.1813  0.0020
  825loPI   C1B12869  14.895  16.362   5.739  0.0058  0.2999  0.2039
  825loPI   C2B12870  14.856  16.376   6.163  0.0321 -0.1274  0.1662
  825loPI   C3B12871  14.934  16.706   6.299 -0.0130 -0.3195  0.1501
  825loPI   C4B12872  14.911  17.102   6.339 -0.0023  0.0494  0.3009
  826loPI    C112873   2.322   4.505   4.793  0.0499 -0.0944  0.2726
  826loPI    C212874   2.316   4.112   4.722  0.4160 -0.0205 -0.2243
  826loPI    C312875   2.172   4.366   4.449  0.2398  0.1977  0.0664
  826loPI   PO412876   2.167   4.503   5.092 -0.0999 -0.1116  0.1137
  826loPI   GL112877   1.788   4.363   5.354  0.2643 -0.0080  0.3731
  826loPI   GL212878   1.546   4.162   5.365  0.1425 -0.2187 -0.2184
  826loPI   C1A12879   2.080   4.279   5.687 -0.2706  0.2754  0.0373
  826loPI   C2A12880   2.373   4.248   6.069 -0.0230  0.0612  0.0836
  826loPI   C3A12881   2.437   4.194   6.484 -0.1390 -0.0751 -0.0676
  826loPI   C4A12882   2.448   3.887   6.723 -0.1034 -0.1016 -0.1320
  826loPI   C5A12883   2.691   3.793   6.939  0.1509 -0.0313 -0.4043
  826loPI   C6A12884   2.694   3.699   7.362 -0.0427  0.1662  0.1255
  826loPI   C1B12885   1.606   4.455   5.788  0.4306 -0.1181 -0.1237
  826loPI   C2B12886   1.433   4.595   6.077  0.0923  0.0774 -0.3471
  826loPI   C3B12887   1.509   4.432   6.519 -0.1517  0.2293 -0.0450
  826loPI   C4B12888   1.581   4.253   6.906  0.2277  0.1527  0.2630
  827loPI    C112889  16.760   1.726   4.851  0.0183  0.1670 -0.0318
  827loPI    C212890  16.874   1.522   4.526 -0.1514 -0.0580  0.0468
  827loPI    C312891  16.866   1.922   4.519  0.1064 -0.0533 -0.1364
  827loPI   PO412892  16.516   1.515   4.962 -0.0168  0.0599 -0.0038
  827loPI   GL112893  16.527   1.112   5.214 -0.0807  0.2125  0.0046
  827loPI   GL212894  16.552   0.756   5.218 -0.2892  0.0240 -0.0856
  827loPI   C1A12895  16.228   1.090   5.592 -0.4603 -0.0179  0.0833
  827loPI   C2A12896  16.171   0.953   5.964 -0.1654 -0.2177  0.1744
  827loPI   C3A12897  16.286   1.028   6.382 -0.1832 -0.2730  0.0034
  827loPI   C4A12898  16.399   1.165   6.733  0.0245 -0.0380  0.1978
  827loPI   C5A12899  16.376   1.289   7.092  0.0044  0.1995  0.0943
  827loPI   C6A12900  16.393   1.318   7.517  0.0011 -0.2077 -0.1147
  827loPI   C1B12901  16.396   0.582   5.600 -0.0432  0.1032 -0.1986
  827loPI   C2B12902  16.186   0.427   5.898 -0.0879  0.3943 -0.0353
  827loPI   C3B12903  16.043   0.533   6.318 -0.1039  0.2883 -0.1747
  827loPI   C4B12904  16.101   0.651   6.715  0.1692 -0.0978 -0.0860
  828loPI    C112905  11.751  16.094   4.925  0.2664  0.0953 -0.1478
  828loPI    C212906  11.949  15.810   4.725  0.1366 -0.2262  0.1690
  828loPI    C312907  11.552  15.845   4.683  0.1841  0.0770 -0.0621
  828loPI   PO412908  11.897  16.117   5.157  0.1287  0.0597  0.1373
  828loPI   GL112909  12.187  16.012   5.465  0.3818  0.0793  0.2010
  828loPI   GL212910  12.452  16.098   5.590 -0.3966  0.0371 -0.3152
  828loPI   C1A12911  11.895  15.930   5.863  0.0631 -0.1120  0.0633
  828loPI   C2A12912  11.841  15.675   6.348  0.0858 -0.0635  0.2448
  828loPI   C3A12913  12.034  15.755   6.749  0.2023  0.1115  0.0107
  828loPI   C4A12914  12.231  15.829   7.097  0.2014  0.1595  0.0339
  828loPI   C5A12915  12.213  15.847   7.549 -0.0110 -0.0757  0.0896
  828loPI   C6A12916  12.110  16.198   7.780  0.0036  0.0984  0.2379
  828loPI   C1B12917  12.373  15.954   6.049 -0.4389 -0.0993  0.2628
  828loPI   C2B12918  12.284  16.020   6.453 -0.1007 -0.0468  0.0065
  828loPI   C3B12919  12.357  16.208   6.797  0.0072  0.1925  0.2643
  828loPI   C4B12920  12.447  16.535   6.884  0.0571 -0.1453  0.2689
  829loPI    C112921  13.930   5.643   4.673 -0.2224  0.0136 -0.0203
  829loPI    C212922  13.609   5.744   4.456 -0.1420  0.1602 -0.0721
  829loPI    C312923  13.975   5.852   4.335 -0.0869  0.1423  0.0764
  829loPI   PO412924  13.801   5.684   4.971 -0.2254 -0.0686 -0.0569
  829loPI   GL112925  13.596   5.744   5.365  0.2273 -0.2887 -0.2611
  829loPI   GL212926  13.292   5.674   5.379  0.3575  0.0848  0.0112
  829loPI   C1A12927  13.803   6.012   5.730  0.1818  0.2291  0.0307
  829loPI   C2A12928  13.726   6.193   6.086  0.4994  0.1403 -0.0423
  829loPI   C3A12929  13.479   6.116   6.513 -0.0497 -0.1180  0.0877
  829loPI   C4A12930  13.238   6.095   6.851  0.0443  0.1538  0.1390
  829loPI   C5A12931  12.958   5.918   7.189  0.1680 -0.2785 -0.3727
  829loPI   C6A12932  13.007   5.384   7.278 -0.3013 -0.2240  0.1008
  829loPI   C1B12933  13.255   5.597   5.811 -0.0506  0.1777  0.2387
  829loPI   C2B12934  13.515   5.702   6.090  0.0003  0.1051  0.2156
  829loPI   C3B12935  13.516   5.639   6.558  0.1143 -0.2726  0.0025
  829loPI   C4B12936  13.398   5.641   6.944  0.0276 -0.2582  0.0440
  830loPI    C112937   0.800  14.782   4.763 -0.1010 -0.1616  0.1541
  830loPI    C212938   0.601  15.063   4.559 -0.0189 -0.0660  0.2047
  830loPI    C312939   0.586  14.681   4.440  0.2580  0.0284 -0.1498
  830loPI   PO412940   0.684  14.766   4.956 -0.0534 -0.3223 -0.1723
  830loPI   GL112941   0.806  14.771   5.320 -0.1318  0.1891 -0.1067
  830loPI   GL212942   0.839  15.059   5.458 -0.0448  0.4574  0.1630
  830loPI   C1A12943   0.486  14.505   5.691  0.1007  0.1428 -0.3414
  830loPI   C2A12944   0.178  14.293   6.032  0.1087 -0.3831 -0.1484
  830loPI   C3A12945  -0.049  14.304   6.394 -0.2364 -0.0639 -0.1441
  830loPI   C4A12946   0.111  14.436   6.964 -0.1599 -0.2864 -0.0257
  830loPI   C5A12947   0.435  14.667   7.219 -0.0095 -0.0072 -0.1890
  830loPI   C6A12948   0.584  14.594   7.487 -0.0657  0.1425  0.0306
  830loPI   C1B12949   0.772  14.995   5.965 -0.2238 -0.1123 -0.2140
  830loPI   C2B12950   0.715  14.984   6.463  0.0072 -0.0630 -0.0110
  830loPI   C3B12951   0.760  14.810   6.886  0.2290 -0.1073 -0.1661
  830loPI   C4B12952   0.975  14.517   7.179  0.0549  0.2666 -0.0730
  831loPI    C112953  14.738   3.760   4.739  0.0142 -0.1837 -0.0256
  831loPI    C212954  14.443   3.989   4.597 -0.0375 -0.1117  0.1933
  831loPI    C312955  14.532   3.643   4.417 -0.1950 -0.0906  0.0725
  831loPI   PO412956  14.660   3.764   4.998  0.1421 -0.1812 -0.2143
  831loPI   GL112957  14.766   3.804   5.417 -0.1552 -0.0631  0.2123
  831loPI   GL212958  14.862   3.523   5.465  0.0540  0.1775 -0.0444
  831loPI   C1A12959  14.749   3.865   5.842 -0.2245 -0.1664  0.0752
  831loPI   C2A12960  14.485   3.881   6.125  0.1245 -0.2123 -0.0179
  831loPI   C3A12961  14.358   4.072   6.571  0.0409 -0.0314  0.1235
  831loPI   C4A12962  13.959   4.262   6.687 -0.0693  0.2126 -0.0634
  831loPI   C5A12963  13.548   4.212   6.949  0.0558 -0.0790 -0.0342
  831loPI   C6A12964  13.294   4.506   7.320  0.2699 -0.2438  0.0812
  831loPI   C1B12965  15.043   3.399   5.917  0.1620  0.0212  0.1872
  831loPI   C2B12966  15.122   3.440   6.313  0.1054  0.0206  0.0617
  831loPI   C3B12967  15.179   3.469   6.700 -0.0804 -0.0195 -0.2618
  831loPI   C4B12968  15.029   3.692   7.095 -0.0799  0.1897  0.0627
  832loPI    C112969  14.080  14.218   5.133  0.1149  0.0284  0.0069
  832loPI    C212970  14.398  14.215   4.890  0.1068 -0.1328 -0.0029
  832loPI    C312971  14.083  13.981   4.810  0.0911 -0.1631  0.1454
  832loPI   PO412972  14.159  14.187   5.352 -0.1468  0.1839 -0.1703
  832loPI   GL112973  13.945  14.203   5.786 -0.0904  0.0412 -0.0348
  832loPI   GL212974  14.056  14.508   5.765 -0.0116  0.0481  0.1907
  832loPI   C1A12975  13.733  14.365   6.248 -0.1538  0.1367  0.0070
  832loPI   C2A12976  13.538  14.383   6.663 -0.0191  0.2371 -0.3273
  832loPI   C3A12977  13.393  14.654   6.915 -0.2328 -0.1553  0.0927
  832loPI   C4A12978  13.329  14.779   7.364 -0.2515  0.1638  0.2717
  832loPI   C5A12979  13.268  14.384   7.648 -0.0096 -0.0930 -0.1981
  832loPI   C6A12980  13.019  14.241   7.994  0.1148 -0.1150  0.2185
  832loPI   C1B12981  14.056  14.768   6.109  0.1458 -0.0120 -0.3723
  832loPI   C2B12982  14.214  14.867   6.425  0.2589  0.1306 -0.0826
  832loPI   C3B12983  14.316  14.787   6.789 -0.0751  0.1457 -0.2412
  832loPI   C4B12984  14.271  14.687   7.310  0.0981  0.0069  0.0147
  833loPI    C112985  12.178   9.626   4.446 -0.0556 -0.2718  0.1448
  833loPI    C212986  11.950   9.399   4.209 -0.0665 -0.0517 -0.0595
  833loPI    C312987  12.311   9.518   4.084 -0.1361  0.1944 -0.0323
  833loPI   PO412988  12.036   9.845   4.574 -0.0968  0.2751  0.0808
  833loPI   GL112989  12.056   9.844   4.975 -0.2860  0.2259  0.2085
  833loPI   GL212990  12.009  10.201   5.237 -0.0507 -0.0812  0.0523
  833loPI   C1A12991  12.008   9.617   5.332  0.0518 -0.0940 -0.1931
  833loPI   C2A12992  11.811   9.645   5.676  0.4636  0.1371  0.1395
  833loPI   C3A12993  11.654   9.781   5.965  0.0612 -0.4855 -0.0765
  833loPI   C4A12994  11.492  10.043   6.400 -0.1034 -0.1425  0.0748
  833loPI   C5A12995  11.233   9.828   6.698  0.0920  0.0995  0.5642
  833loPI   C6A12996  11.159   9.706   7.117 -0.0665  0.0532  0.0757
  833loPI   C1B12997  11.949  10.158   5.576 -0.1872  0.4435  0.0025
  833loPI   C2B12998  11.844  10.217   6.003  0.0000  0.1117 -0.1388
  833loPI   C3B12999  11.987  10.401   6.417  0.3365  0.0129 -0.1077
  833loPI   C4B13000  11.892  10.604   6.845 -0.0342 -0.2176  0.0593
  834loPI    C113001   5.981   1.982   5.280 -0.0641 -0.1638 -0.0349
  834loPI    C213002   6.044   1.724   4.982  0.1278 -0.1006 -0.0500
  834loPI    C313003   6.094   2.116   4.921 -0.1639 -0.0580 -0.0277
  834loPI   PO413004   6.085   1.944   5.448  0.2356  0.2041  0.1120
  834loPI   GL113005   5.816   1.924   5.762  0.0948  0.1597 -0.1166
  834loPI   GL213006   6.075   1.743   5.910 -0.1678 -0.0128  0.2978
  834loPI   C1A13007   5.736   1.855   6.249  0.1583  0.2713 -0.1533
  834loPI   C2A13008   5.562   1.749   6.573  0.1994  0.0190 -0.0923
  834loPI   C3A13009   5.343   1.395   6.746  0.2013  0.4556  0.0905
  834loPI   C4A13010   5.289   1.448   7.217 -0.3316 -0.4027  0.0255
  834loPI   C5A13011   5.229   1.837   7.478 -0.4336  0.0977  0.0915
  834loPI   C6A13012   5.046   2.197   7.525  0.1304 -0.4849  0.3399
  834loPI   C1B13013   6.382   1.835   6.223  0.3480  0.1575  0.0938
  834loPI   C2B13014   6.586   2.011   6.701 -0.2978  0.0605 -0.0363
  834loPI   C3B13015   6.499   2.275   7.027 -0.0921  0.1661 -0.1511
  834loPI   C4B13016   6.659   2.419   7.366 -0.1493  0.4688  0.1142
  835loPI    C113017   3.809  12.951   4.996 -0.0858  0.2963  0.0749
  835loPI    C213018   4.168  13.010   5.161 -0.0860 -0.1776  0.2610
  835loPI    C313019   4.104  13.112   4.779  0.2800 -0.1932  0.1912
  835loPI   PO413020   3.670  13.005   5.255 -0.1071 -0.0193 -0.2674
  835loPI   GL113021   3.503  12.915   5.617  0.1929 -0.1788  0.2009
  835loPI   GL213022   3.401  12.540   5.496 -0.2384  0.1220 -0.2356
  835loPI   C1A13023   3.440  12.877   6.028 -0.1340 -0.1567  0.2258
  835loPI   C2A13024   3.416  12.740   6.409  0.0984 -0.4262  0.2118
  835loPI   C3A13025   3.421  12.547   6.838 -0.1216 -0.0858 -0.1941
  835loPI   C4A13026   3.556  12.465   7.287  0.1148  0.0102  0.2937
  835loPI   C5A13027   3.500  12.417   7.635 -0.0743 -0.1953  0.1143
  835loPI   C6A13028   3.584  12.299   7.995  0.0571  0.1503  0.2708
  835loPI   C1B13029   3.554  12.433   5.885 -0.4667 -0.2569  0.2886
  835loPI   C2B13030   3.547  12.292   6.306  0.0707 -0.2923 -0.0430
  835loPI   C3B13031   3.657  11.887   6.357  0.0980  0.0613 -0.1898
  835loPI   C4B13032   3.587  11.603   6.804 -0.1008  0.2794  0.2411
  836loPI    C113033  10.630   7.096   4.951  0.0254  0.2045  0.1870
  836loPI    C213034  10.762   7.029   4.579 -0.2525 -0.0316  0.1273
  836loPI    C313035  11.014   7.159   4.860 -0.0053 -0.0035 -0.1037
  836loPI   PO413036  10.418   6.943   4.934  0.0714  0.0023 -0.3541
  836loPI   GL113037  10.274   6.809   5.280  0.1787 -0.0503 -0.3140
  836loPI   GL213038  10.068   6.629   5.368 -0.4225  0.3530  0.0884
  836loPI   C1A13039  10.303   7.034   5.641  0.1060  0.3700 -0.0159
  836loPI   C2A13040  10.329   6.926   6.089 -0.2344 -0.0370  0.1148
  836loPI   C3A13041  10.316   6.883   6.431 -0.0475 -0.0127  0.2207
  836loPI   C4A13042  10.241   6.985   6.741 -0.0673  0.2497  0.0499
  836loPI   C5A13043  10.425   7.366   6.929  0.1573  0.0016  0.2441
  836loPI   C6A13044  10.599   7.568   7.295  0.2225  0.0777 -0.1472
  836loPI   C1B13045   9.882   6.709   5.725  0.1327  0.2772 -0.0848
  836loPI   C2B13046   9.882   6.680   6.151  0.2444 -0.0091 -0.0727
  836loPI   C3B13047   9.833   6.667   6.566 -0.0347 -0.1430 -0.0735
  836loPI   C4B13048   9.627   6.815   6.954 -0.0812 -0.1354  0.0862
  837loPI    C113049   9.493   1.219   5.263  0.0941  0.1648 -0.0507
  837loPI    C213050   9.348   0.951   5.003  0.2388 -0.0332  0.0705
  837loPI    C313051   9.530   0.828   5.338  0.3314  0.2169  0.1145
  837loPI   PO413052   9.297   1.408   5.251  0.0007  0.0397 -0.0950
  837loPI   GL113053   9.155   1.506   5.571  0.2081  0.0042  0.0780
  837loPI   GL213054   9.341   1.761   5.691  0.0989  0.0185 -0.0594
  837loPI   C1A13055   8.944   1.306   5.807  0.0883 -0.1190  0.0523
  837loPI   C2A13056   8.817   1.367   6.265  0.3023  0.2384  0.1087
  837loPI   C3A13057   8.985   1.245   6.569 -0.3034  0.1036 -0.2809
  837loPI   C4A13058   9.370   1.256   6.829 -0.1550  0.0102  0.0655
  837loPI   C5A13059   9.575   1.561   7.301 -0.0391 -0.1279  0.1129
  837loPI   C6A13060   9.871   1.635   7.557 -0.0061 -0.1879  0.4290
  837loPI   C1B13061   9.238   1.623   6.102 -0.2052  0.2081 -0.0270
  837loPI   C2B13062   9.427   1.666   6.473  0.0224  0.2718 -0.2855
  837loPI   C3B13063   9.748   1.670   6.776  0.0801 -0.3230 -0.0843
  837loPI   C4B13064   9.997   1.468   7.027 -0.2169  0.1556  0.0439
  838loPI    C113065  14.986   2.403   4.501  0.1674 -0.0526  0.1363
  838loPI    C213066  14.665   2.569   4.328  0.2211  0.1209  0.2015
  838loPI    C313067  14.861   2.272   4.144  0.2730  0.2980 -0.0336
  838loPI   PO413068  14.915   2.323   4.770  0.1180 -0.1095 -0.2038
  838loPI   GL113069  15.039   2.499   5.111 -0.1579  0.1031 -0.1002
  838loPI   GL213070  14.966   2.367   5.354 -0.1268  0.0772  0.0601
  838loPI   C1A13071  15.287   2.707   5.463 -0.2762 -0.0312 -0.1916
  838loPI   C2A13072  15.484   2.901   5.840 -0.2204 -0.1203 -0.0580
  838loPI   C3A13073  15.920   3.015   6.136  0.0653  0.0287 -0.0012
  838loPI   C4A13074  15.972   2.979   6.552  0.0281 -0.0596 -0.2825
  838loPI   C5A13075  16.333   2.973   6.817 -0.0321 -0.0646  0.1616
  838loPI   C6A13076  16.627   2.607   7.064 -0.0744  0.0076  0.1181
  838loPI   C1B13077  15.065   2.360   5.777 -0.1472  0.3335 -0.0322
  838loPI   C2B13078  15.048   2.452   6.224  0.0683  0.0217 -0.0931
  838loPI   C3B13079  15.167   2.475   6.684 -0.0704 -0.4965  0.0387
  838loPI   C4B13080  15.253   2.456   7.110  0.2888 -0.0246  0.2160
  839loPI    C113081  12.932   9.967   4.471  0.0653 -0.0078 -0.0176
  839loPI    C213082  12.539  10.011   4.409  0.0905  0.1332 -0.0803
  839loPI    C313083  12.795  10.043   4.103  0.1564  0.1083 -0.0281
  839loPI   PO413084  12.965  10.044   4.730 -0.0243 -0.1975 -0.1631
  839loPI   GL113085  12.964   9.819   5.134 -0.1798 -0.1095  0.0524
  839loPI   GL213086  13.127   9.543   5.098  0.1431  0.1507 -0.1028
  839loPI   C1A13087  12.862   9.700   5.593  0.1481  0.3667  0.1393
  839loPI   C2A13088  12.639   9.595   5.956  0.2571  0.0460 -0.1831
  839loPI   C3A13089  12.516   9.627   6.459  0.2141  0.3545  0.1175
  839loPI   C4A13090  12.407   9.528   6.822 -0.0719 -0.0587 -0.1142
  839loPI   C5A13091  12.393   9.317   7.254 -0.2052 -0.0394  0.1825
  839loPI   C6A13092  12.399   8.818   7.457  0.0601  0.0025 -0.4158
  839loPI   C1B13093  13.205   9.374   5.482  0.1092  0.2416 -0.1085
  839loPI   C2B13094  13.168   9.419   5.906 -0.3355 -0.0055  0.1074
  839loPI   C3B13095  12.970   9.476   6.310 -0.0282  0.4138 -0.0885
  839loPI   C4B13096  12.918   9.383   6.729  0.1781  0.0474  0.0105
  840loPI    C113097   8.920  18.995   5.280  0.1386  0.0124  0.0296
  840loPI    C213098   9.124  19.193   4.999  0.2768 -0.2120 -0.0306
  840loPI    C313099   8.906  18.873   4.899 -0.1226  0.0350  0.0304
  840loPI   PO413100   8.765  19.254   5.433  0.0578 -0.2924  0.0582
  840loPI   GL113101   8.417  19.366   5.624 -0.1214  0.0349  0.0161
  840loPI   GL213102   8.212  19.179   5.432 -0.1596 -0.0407  0.1509
  840loPI   C1A13103   8.344  19.270   6.084 -0.2396 -0.0020  0.1118
  840loPI   C2A13104   8.246  19.207   6.485  0.1807 -0.0094  0.0439
  840loPI   C3A13105   8.259  19.253   6.963 -0.2137 -0.0873  0.1379
  840loPI   C4A13106   8.156  19.339   7.391 -0.0600  0.2637  0.0848
  840loPI   C5A13107   7.999  19.528   7.787  0.4941 -0.1322  0.1573
  840loPI   C6A13108   7.946  19.763   8.023  0.1713 -0.1783 -0.2502
  840loPI   C1B13109   7.921  19.172   5.821 -0.1544 -0.0856 -0.0806
  840loPI   C2B13110   7.790  19.074   6.268  0.3567  0.0023  0.3099
  840loPI   C3B13111   7.761  19.093   6.664 -0.2411 -0.2599 -0.0227
  840loPI   C4B13112   7.835  18.981   7.129  0.0060  0.1113  0.2349
  841loPI    C113113  13.433   1.487   4.592 -0.1388 -0.0366 -0.1135
  841loPI    C213114  13.367   1.096   4.543 -0.0076 -0.0652 -0.0670
  841loPI    C313115  13.722   1.253   4.446  0.0297 -0.0048  0.1614
  841loPI   PO413116  13.360   1.531   4.774 -0.1451 -0.0343  0.0047
  841loPI   GL113117  13.149   1.658   5.186  0.3813 -0.1585 -0.3031
  841loPI   GL213118  13.496   1.643   5.248 -0.0324 -0.0020 -0.2774
  841loPI   C1A13119  13.003   1.571   5.601  0.0028  0.2693  0.2290
  841loPI   C2A13120  13.116   1.521   6.049  0.2227  0.2495  0.1424
  841loPI   C3A13121  13.059   1.369   6.522  0.1338  0.1038  0.1245
  841loPI   C4A13122  13.174   1.609   6.895  0.1686  0.3472  0.0052
  841loPI   C5A13123  13.109   1.864   7.166 -0.1311  0.2879 -0.2127
  841loPI   C6A13124  12.806   1.876   7.408  0.0658 -0.1515 -0.3364
  841loPI   C1B13125  13.525   1.618   5.719 -0.1703 -0.1906 -0.0839
  841loPI   C2B13126  13.617   1.485   6.146 -0.0681  0.2353  0.0762
  841loPI   C3B13127  13.927   1.455   6.397  0.1126  0.2572 -0.1219
  841loPI   C4B13128  14.013   1.558   6.771 -0.0350 -0.1401  0.0699
  842loPI    C113129   4.488  12.627   5.044 -0.0593  0.0931  0.1490
  842loPI    C213130   4.119  12.508   5.144 -0.0548 -0.2011 -0.1650
  842loPI    C313131   4.191  12.648   4.776  0.1482 -0.1479 -0.1064
  842loPI   PO413132   4.601  12.622   5.267 -0.0048 -0.0959 -0.0998
  842loPI   GL113133   4.943  12.716   5.536 -0.1506  0.1232 -0.4720
  842loPI   GL213134   4.993  12.483   5.687 -0.0661 -0.1332 -0.0893
  842loPI   C1A13135   4.950  13.125   5.789  0.2581 -0.1054 -0.0811
  842loPI   C2A13136   4.803  13.392   6.099 -0.1310  0.2386 -0.0350
  842loPI   C3A13137   4.712  13.420   6.634 -0.2322  0.0607 -0.0168
  842loPI   C4A13138   4.583  13.546   7.053  0.2579 -0.2471 -0.0077
  842loPI   C5A13139   4.306  13.498   7.401 -0.0870  0.0656 -0.1768
  842loPI   C6A13140   4.230  13.708   7.810 -0.2351  0.3472  0.2611
  842loPI   C1B13141   4.947  12.679   6.057 -0.2949  0.1257  0.1152
  842loPI   C2B13142   4.842  12.977   6.359 -0.2392 -0.2938 -0.0017
  842loPI   C3B13143   5.090  13.146   6.730  0.1929 -0.2091  0.0336
  842loPI   C4B13144   5.053  13.311   7.156 -0.1160 -0.0375  0.0620
  843loPI    C113145   9.846   3.941   4.639  0.0624 -0.2866  0.0581
  843loPI    C213146  10.143   4.101   4.424 -0.1490  0.1941  0.1112
  843loPI    C313147  10.140   3.708   4.499  0.1485  0.0846 -0.4041
  843loPI   PO413148   9.891   4.143   4.876  0.0991 -0.2175 -0.2094
  843loPI   GL113149   9.848   4.093   5.419  0.0853 -0.0655  0.0659
  843loPI   GL213150   9.665   4.295   5.593 -0.1435 -0.0662 -0.0136
  843loPI   C1A13151  10.009   4.025   5.850 -0.0898  0.2025 -0.0393
  843loPI   C2A13152   9.982   4.001   6.299  0.1979 -0.0164 -0.0301
  843loPI   C3A13153  10.068   4.268   6.650 -0.1198 -0.2034 -0.0489
  843loPI   C4A13154  10.336   4.181   6.906 -0.0257 -0.1453 -0.2427
  843loPI   C5A13155  10.335   4.371   7.287  0.1318 -0.0947  0.0724
  843loPI   C6A13156  10.235   4.616   7.558  0.3247 -0.0044  0.0544
  843loPI   C1B13157   9.760   4.528   5.929  0.0200  0.0884 -0.0148
  843loPI   C2B13158   9.811   4.582   6.327  0.0189  0.0799 -0.1164
  843loPI   C3B13159   9.548   4.556   6.650  0.2965  0.0138  0.0176
  843loPI   C4B13160   9.436   4.469   7.032 -0.0904 -0.0949 -0.2443
  844loPI    C113161   8.952  10.432   4.792 -0.0508  0.0286  0.0376
  844loPI    C213162   8.583  10.355   4.657 -0.1020  0.1058  0.1327
  844loPI    C313163   8.856  10.515   4.412 -0.0572 -0.1790 -0.0072
  844loPI   PO413164   8.960  10.378   5.046 -0.0656  0.2837  0.0562
  844loPI   GL113165   8.808  10.430   5.494 -0.0074 -0.0780  0.0558
  844loPI   GL213166   8.728  10.775   5.310 -0.0675 -0.1413 -0.1227
  844loPI   C1A13167   8.820  10.365   6.017  0.1056  0.1097  0.0645
  844loPI   C2A13168   8.457  10.322   6.414  0.2551  0.1006 -0.0373
  844loPI   C3A13169   8.162  10.252   6.668  0.0217  0.0445 -0.4593
  844loPI   C4A13170   8.083  10.125   7.035  0.0734  0.1809  0.0141
  844loPI   C5A13171   8.046   9.996   7.379 -0.1465  0.2333  0.0229
  844loPI   C6A13172   8.306   9.715   7.561 -0.0737  0.1568 -0.0137
  844loPI   C1B13173   8.648  10.859   5.724  0.0588  0.0352  0.0783
  844loPI   C2B13174   8.607  10.751   6.218  0.1931 -0.1990  0.0762
  844loPI   C3B13175   8.556  10.785   6.660  0.0199  0.1261 -0.4753
  844loPI   C4B13176   8.589  10.986   7.063  0.1125 -0.0773  0.0730
  845loPI    C113177   5.102   8.999   4.976 -0.1215 -0.0219  0.0749
  845loPI    C213178   5.056   8.949   4.582 -0.1473 -0.1362  0.0918
  845loPI    C313179   5.338   9.197   4.721  0.0388 -0.2961  0.0055
  845loPI   PO413180   4.827   9.020   5.097  0.3687 -0.1136  0.0692
  845loPI   GL113181   4.700   8.701   5.284 -0.1204  0.1435  0.6512
  845loPI   GL213182   4.378   8.783   5.348  0.0747 -0.1053  0.1605
  845loPI   C1A13183   4.729   8.656   5.738  0.1943 -0.1467  0.0715
  845loPI   C2A13184   4.676   8.772   6.167 -0.2561 -0.3036  0.0958
  845loPI   C3A13185   4.707   8.765   6.591  0.1354 -0.0660  0.0473
  845loPI   C4A13186   4.549   8.738   7.019 -0.0621  0.0428 -0.0946
  845loPI   C5A13187   4.371   8.434   7.279 -0.1247  0.0425  0.2810
  845loPI   C6A13188   4.327   7.993   7.537 -0.2511  0.1633 -0.1871
  845loPI   C1B13189   4.440   9.106   5.657  0.1756  0.1182  0.3293
  845loPI   C2B13190   4.422   9.291   6.014 -0.1599  0.2627 -0.0874
  845loPI   C3B13191   4.608   9.314   6.349 -0.0555 -0.1138 -0.1079
  845loPI   C4B13192   4.804   9.232   6.784 -0.0796 -0.3427 -0.4461
  846loPI    C113193  11.744   5.376   4.798 -0.0915  0.0761 -0.0497
  846loPI    C213194  11.888   5.491   4.443  0.0992  0.0292  0.0119
  846loPI    C313195  11.498   5.416   4.485  0.0373  0.2633 -0.1290
  846loPI   PO413196  11.895   5.435   4.968  0.1545  0.2310  0.2614
  846loPI   GL113197  11.895   5.461   5.388  0.0965 -0.1515 -0.1641
  846loPI   GL213198  12.029   5.281   5.570 -0.3181  0.1236  0.0003
  846loPI   C1A13199  11.488   5.543   5.617  0.1524 -0.2201 -0.2042
  846loPI   C2A13200  11.054   5.537   5.783  0.0774  0.2081 -0.2101
  846loPI   C3A13201  10.910   5.593   6.222  0.2116  0.3842  0.0960
  846loPI   C4A13202  10.795   5.525   6.594 -0.0493  0.1115  0.1410
  846loPI   C5A13203  10.946   5.589   7.004  0.0855 -0.1354  0.2712
  846loPI   C6A13204  11.128   6.057   7.242 -0.1844  0.1121  0.1653
  846loPI   C1B13205  11.952   5.336   6.062  0.0658 -0.0391  0.1681
  846loPI   C2B13206  11.820   5.478   6.516 -0.1198  0.2342 -0.1118
  846loPI   C3B13207  11.865   5.675   6.990  0.0319  0.2606  0.1351
  846loPI   C4B13208  12.025   6.046   7.308  0.1251  0.1972 -0.0012
  847loPI    C113209   7.899   2.250   4.904 -0.2337 -0.0244  0.0312
  847loPI    C213210   7.844   2.490   4.589  0.0996 -0.0740 -0.0688
  847loPI    C313211   7.605   2.174   4.644 -0.1024  0.0635 -0.1444
  847loPI   PO413212   7.945   2.532   5.142  0.3511 -0.0462 -0.2475
  847loPI   GL113213   7.972   2.517   5.583 -0.1560 -0.0763 -0.0689
  847loPI   GL213214   7.675   2.642   5.598  0.2878 -0.1511  0.0385
  847loPI   C1A13215   7.743   2.215   5.919 -0.0484 -0.1451 -0.0961
  847loPI   C2A13216   7.905   2.045   6.275  0.1071 -0.1209 -0.0321
  847loPI   C3A13217   7.794   1.991   6.697 -0.3255  0.0245 -0.1787
  847loPI   C4A13218   7.826   2.004   7.083 -0.2770  0.0424  0.0769
  847loPI   C5A13219   7.844   2.204   7.471 -0.0372  0.1264 -0.0067
  847loPI   C6A13220   7.577   2.410   7.677 -0.0049 -0.0473  0.1308
  847loPI   C1B13221   7.657   2.861   6.071  0.0673 -0.1160  0.1418
  847loPI   C2B13222   7.641   3.270   6.281 -0.0698  0.1298 -0.0450
  847loPI   C3B13223   7.829   3.512   6.646  0.1422  0.0049 -0.4187
  847loPI   C4B13224   7.652   3.299   6.936  0.0443 -0.0045  0.1550
  848loPI    C113225   0.296  12.078   4.712 -0.0457 -0.0316 -0.0295
  848loPI    C213226   0.045  12.291   4.485 -0.1208 -0.1619 -0.0695
  848loPI    C313227   0.319  12.055   4.313  0.2371  0.2156 -0.0308
  848loPI   PO413228   0.099  12.025   5.020 -0.2805  0.2378 -0.0971
  848loPI   GL113229  -0.232  11.902   5.331  0.0971 -0.0835 -0.1135
  848loPI   GL213230  -0.464  11.817   5.315 -0.1782 -0.1516 -0.1958
  848loPI   C1A13231  -0.353  12.248   5.570  0.0040  0.2701 -0.1979
  848loPI   C2A13232  -0.235  12.310   6.027 -0.3683  0.1750  0.4107
  848loPI   C3A13233  -0.477  12.230   6.518 -0.1169 -0.3377 -0.3332
  848loPI   C4A13234  -0.722  12.022   6.806 -0.3507  0.2670  0.0703
  848loPI   C5A13235  -0.867  11.837   7.146 -0.2740  0.1354  0.0414
  848loPI   C6A13236  -0.745  11.685   7.485 -0.0378 -0.0104 -0.1782
  848loPI   C1B13237  -0.263  11.794   5.779  0.0004 -0.1573 -0.3177
  848loPI   C2B13238  -0.072  11.724   6.262  0.0195 -0.2344 -0.0333
  848loPI   C3B13239  -0.037  11.436   6.583 -0.0907 -0.1198  0.4359
  848loPI   C4B13240  -0.345  11.041   6.706 -0.1691 -0.0398  0.0622
  849loPI    C113241   0.922  11.164   5.054  0.0829 -0.1948  0.0534
  849loPI    C213242   0.790  11.378   4.743  0.1080 -0.1616  0.0655
  849loPI    C313243   0.750  10.980   4.744  0.2331 -0.1750 -0.0429
  849loPI   PO413244   0.804  11.338   5.298  0.0563 -0.0787 -0.5207
  849loPI   GL113245   0.719  11.750   5.554  0.2696  0.2809  0.0491
  849loPI   GL213246   0.921  11.467   5.734 -0.1601 -0.2888 -0.0480
  849loPI   C1A13247   0.531  11.704   5.992  0.1409  0.1934  0.0631
  849loPI   C2A13248   0.388  11.504   6.318  0.3497 -0.1107  0.1775
  849loPI   C3A13249   0.350  11.145   6.559 -0.2990 -0.1510 -0.0290
  849loPI   C4A13250   0.247  11.084   6.953 -0.3059  0.1216  0.0498
  849loPI   C5A13251  -0.145  11.115   7.147  0.1291  0.3602 -0.3309
  849loPI   C6A13252  -0.542  11.344   7.090  0.0494 -0.1633 -0.0567
  849loPI   C1B13253   1.012  11.188   6.046  0.3987  0.3117  0.0394
  849loPI   C2B13254   0.803  11.061   6.371 -0.1680  0.0291 -0.1491
  849loPI   C3B13255   0.757  10.624   6.491  0.0920 -0.1338 -0.2144
  849loPI   C4B13256   0.616  10.267   6.717 -0.2105 -0.2460  0.1977
  850loPI    C113257  12.012   3.789   4.626 -0.0118  0.2819 -0.2158
  850loPI    C213258  11.646   3.929   4.545 -0.0369  0.1775 -0.2860
  850loPI    C313259  11.832   3.692   4.282 -0.1120 -0.1522 -0.0481
  850loPI   PO413260  12.055   3.928   4.932 -0.1830  0.1670 -0.4431
  850loPI   GL113261  11.913   3.912   5.391 -0.1592 -0.0176  0.0960
  850loPI   GL213262  12.234   4.090   5.424 -0.3621  0.1872 -0.4045
  850loPI   C1A13263  12.144   3.730   5.759  0.0841 -0.0138  0.1270
  850loPI   C2A13264  12.212   3.539   6.187 -0.0889  0.1455  0.1208
  850loPI   C3A13265  12.329   3.650   6.685 -0.1731 -0.3286 -0.0020
  850loPI   C4A13266  12.057   3.615   7.167 -0.2774 -0.0962 -0.1172
  850loPI   C5A13267  11.750   3.652   7.471 -0.2818  0.1158  0.1135
  850loPI   C6A13268  11.289   3.698   7.707 -0.1170 -0.2474 -0.0721
  850loPI   C1B13269  12.174   4.239   5.878 -0.0297 -0.0358 -0.0950
  850loPI   C2B13270  11.879   4.462   6.126 -0.1872 -0.0168 -0.1614
  850loPI   C3B13271  11.660   4.751   6.351  0.0903  0.1467  0.2728
  850loPI   C4B13272  11.580   5.008   6.756  0.0831  0.0710 -0.3146
  851loPI    C113273  14.739  11.459   4.782  0.0866  0.1798 -0.1201
  851loPI    C213274  14.373  11.359   4.908  0.1987  0.0210  0.0855
  851loPI    C313275  14.516  11.205   4.568  0.0699  0.0960 -0.0040
  851loPI   PO413276  14.914  11.491   4.976  0.1607 -0.1352 -0.3388
  851loPI   GL113277  15.021  11.704   5.389 -0.0430  0.0666 -0.0063
  851loPI   GL213278  15.269  11.408   5.475 -0.0308 -0.4753 -0.4269
  851loPI   C1A13279  15.023  11.631   5.903  0.1681 -0.0959  0.1054
  851loPI   C2A13280  15.055  11.342   6.215 -0.0768 -0.0476  0.0273
  851loPI   C3A13281  15.177  11.502   6.697  0.1173 -0.1825 -0.0636
  851loPI   C4A13282  15.369  11.461   7.042  0.0128  0.2670 -0.1672
  851loPI   C5A13283  15.308  11.179   7.303 -0.3355  0.0413  0.3287
  851loPI   C6A13284  15.327  11.207   7.772 -0.1882 -0.0036  0.2115
  851loPI   C1B13285  15.571  11.798   5.433  0.1044 -0.2514  0.0596
  851loPI   C2B13286  15.902  11.870   5.735  0.1204 -0.0277 -0.0120
  851loPI   C3B13287  15.967  11.945   6.217 -0.4851  0.2685 -0.1541
  851loPI   C4B13288  15.995  12.405   6.337 -0.0965 -0.0796 -0.0255
  852loPI    C113289   3.734   4.735   5.003 -0.0909  0.1869 -0.0088
  852loPI    C213290   3.579   4.907   4.677  0.0206 -0.1148 -0.2249
  852loPI    C313291   3.897   4.666   4.644  0.0903 -0.0745  0.1206
  852loPI   PO413292   3.474   4.729   5.148  0.2006 -0.0228  0.1348
  852loPI   GL113293   3.271   4.770   5.521 -0.2086 -0.1590 -0.2496
  852loPI   GL213294   3.201   5.074   5.440 -0.0728 -0.1719 -0.0069
  852loPI   C1A13295   3.271   4.741   5.933 -0.1380  0.3254 -0.1465
  852loPI   C2A13296   3.136   4.582   6.428  0.1452 -0.2805  0.3517
  852loPI   C3A13297   3.386   4.739   6.728  0.0777  0.0788 -0.0064
  852loPI   C4A13298   3.692   4.769   6.976  0.0809  0.0391 -0.0674
  852loPI   C5A13299   4.103   4.974   7.132 -0.2655  0.2685  0.0515
  852loPI   C6A13300   4.377   5.206   6.847 -0.1133  0.2097 -0.0072
  852loPI   C1B13301   2.951   5.214   5.745  0.1106  0.0736  0.0474
  852loPI   C2B13302   2.999   5.171   6.157 -0.4985  0.1059 -0.1239
  852loPI   C3B13303   3.062   5.105   6.595  0.0520 -0.0838 -0.2241
  852loPI   C4B13304   3.142   5.123   6.983  0.1410 -0.0560  0.2683
  853loPI    C113305  17.422  18.712   4.641  0.0549  0.2141 -0.2222
  853loPI    C213306  17.145  18.459   4.502  0.0625 -0.0520  0.2297
  853loPI    C313307  17.467  18.544   4.280 -0.1964 -0.0263 -0.1448
  853loPI   PO413308  17.435  18.638   4.958 -0.0488  0.1724  0.2191
  853loPI   GL113309  17.294  18.629   5.324 -0.4580  0.0399 -0.0288
  853loPI   GL213310  17.544  18.462   5.409 -0.1736  0.3224 -0.0173
  853loPI   C1A13311  17.257  18.632   5.834 -0.1464 -0.3173 -0.1342
  853loPI   C2A13312  17.008  18.807   6.161  0.0210 -0.0610  0.4518
  853loPI   C3A13313  16.595  18.659   6.189 -0.2855 -0.0000 -0.0800
  853loPI   C4A13314  16.238  18.675   6.323  0.1329 -0.3385 -0.1466
  853loPI   C5A13315  16.101  18.937   6.757 -0.0269  0.0469  0.0113
  853loPI   C6A13316  15.835  18.978   7.094  0.3808 -0.0633 -0.0819
  853loPI   C1B13317  17.469  18.186   5.786 -0.2222  0.3621 -0.1319
  853loPI   C2B13318  17.692  18.136   6.241 -0.1428  0.2526  0.0271
  853loPI   C3B13319  17.610  17.870   6.597 -0.0333 -0.0635 -0.0327
  853loPI   C4B13320  17.423  17.854   7.006  0.0817  0.1459 -0.2065
  854loPI    C113321  14.995   4.937   4.478  0.0665 -0.0314 -0.0058
  854loPI    C213322  15.221   5.181   4.256 -0.0579  0.2660  0.1874
  854loPI    C313323  14.823   5.225   4.260 -0.0996 -0.0695  0.0731
  854loPI   PO413324  15.135   4.974   4.701 -0.0278  0.1653  0.1972
  854loPI   GL113325  15.151   5.204   5.167 -0.0432  0.0465 -0.1380
  854loPI   GL213326  15.328   4.917   5.236  0.1295  0.1331 -0.0040
  854loPI   C1A13327  15.079   5.277   5.585  0.1169  0.0872  0.4669
  854loPI   C2A13328  14.946   5.396   6.010  0.4202  0.1794  0.0070
  854loPI   C3A13329  14.863   5.277   6.435  0.1623  0.1571 -0.0015
  854loPI   C4A13330  14.850   5.417   6.839  0.1485 -0.0819  0.1120
  854loPI   C5A13331  15.151   5.253   7.114 -0.1820 -0.2869 -0.3909
  854loPI   C6A13332  15.556   5.468   7.242 -0.1554  0.2834 -0.1332
  854loPI   C1B13333  15.508   4.836   5.622  0.1975  0.0470  0.0014
  854loPI   C2B13334  15.506   5.102   5.952  0.1641 -0.0029  0.0621
  854loPI   C3B13335  15.383   5.317   6.287 -0.2287  0.3646  0.0226
  854loPI   C4B13336  15.389   5.281   6.695 -0.2207 -0.0536 -0.2796
  855loPI    C113337   4.754  13.815   5.080 -0.1490 -0.0795  0.1239
  855loPI    C213338   4.712  13.787   4.683 -0.1877 -0.1114  0.1302
  855loPI    C313339   4.467  14.022   4.894 -0.0938 -0.0046  0.1215
  855loPI   PO413340   4.846  13.388   5.128  0.0626 -0.0609  0.1361
  855loPI   GL113341   4.647  13.135   5.443  0.1987 -0.0974 -0.1348
  855loPI   GL213342   4.421  12.912   5.634  0.0755 -0.0580 -0.1436
  855loPI   C1A13343   4.389  13.364   5.762  0.0374  0.1047  0.0607
  855loPI   C2A13344   4.106  13.398   6.153  0.1230 -0.1962 -0.2324
  855loPI   C3A13345   4.084  13.318   6.596  0.0793 -0.2374  0.3415
  855loPI   C4A13346   4.129  13.271   6.981 -0.0224 -0.1471 -0.1827
  855loPI   C5A13347   4.173  13.014   7.395  0.0841  0.0731  0.0718
  855loPI   C6A13348   3.885  12.847   7.665  0.1654 -0.0634 -0.0606
  855loPI   C1B13349   4.422  12.948   6.129  0.0857  0.0590 -0.0524
  855loPI   C2B13350   4.438  12.910   6.624 -0.0818  0.0823 -0.2427
  855loPI   C3B13351   4.636  13.016   7.001 -0.0068  0.1430  0.1261
  855loPI   C4B13352   4.671  13.142   7.484  0.0182 -0.0263  0.0800
  856loPI    C113353   4.035  10.009   4.804  0.0616  0.0397 -0.0314
  856loPI    C213354   3.922  10.331   4.596  0.3038  0.1379 -0.0147
  856loPI    C313355   4.291  10.183   4.549  0.1763 -0.1716 -0.0635
  856loPI   PO413356   4.008  10.039   5.066 -0.3989  0.0446  0.0182
  856loPI   GL113357   4.108  10.086   5.430  0.1495 -0.0754 -0.2301
  856loPI   GL213358   4.381  10.075   5.459 -0.0322 -0.1721  0.0035
  856loPI   C1A13359   4.019  10.059   5.806 -0.0546 -0.1616 -0.0751
  856loPI   C2A13360   4.234  10.306   6.041  0.1561  0.1782 -0.0995
  856loPI   C3A13361   4.101  10.573   6.355  0.1302 -0.0185  0.4240
  856loPI   C4A13362   4.130  10.588   6.756  0.1714  0.1420 -0.3870
  856loPI   C5A13363   3.926  10.662   7.146  0.1065 -0.1060  0.0177
  856loPI   C6A13364   3.442  10.544   7.089  0.0032 -0.4121 -0.1508
  856loPI   C1B13365   4.598  10.099   5.830 -0.0128  0.2437  0.0071
  856loPI   C2B13366   4.536   9.885   6.227 -0.2207  0.3405 -0.0796
  856loPI   C3B13367   4.630   9.768   6.639 -0.0408 -0.1874  0.2604
  856loPI   C4B13368   4.592   9.787   7.100  0.1811  0.0478 -0.0971
  857loPI    C113369   0.270   8.471   4.834  0.2405 -0.1641  0.1706
  857loPI    C213370   0.118   8.712   5.114  0.0786 -0.2239  0.1354
  857loPI    C313371   0.471   8.798   4.946  0.0998 -0.1011  0.2412
  857loPI   PO413372   0.272   8.276   4.938 -0.3949 -0.2049  0.1298
  857loPI   GL113373   0.362   8.274   5.342  0.0005  0.0978 -0.0147
  857loPI   GL213374   0.565   8.180   5.526 -0.0914  0.2993  0.0896
  857loPI   C1A13375   0.052   8.277   5.687  0.3233  0.0095 -0.0759
  857loPI   C2A13376   0.025   8.285   6.184  0.1753  0.3254  0.2376
  857loPI   C3A13377  -0.312   8.257   6.495  0.0540 -0.0189  0.2408
  857loPI   C4A13378  -0.503   8.217   6.941 -0.1162 -0.1694  0.2119
  857loPI   C5A13379  -0.178   8.245   7.313  0.3879 -0.0411 -0.0512
  857loPI   C6A13380   0.148   8.663   7.514  0.3729 -0.1080 -0.1995
  857loPI   C1B13381   0.511   8.464   5.912 -0.0299  0.1745  0.0939
  857loPI   C2B13382   0.310   8.651   6.230  0.2709 -0.3522  0.4052
  857loPI   C3B13383   0.071   8.557   6.648 -0.2270  0.2471  0.1094
  857loPI   C4B13384   0.003   8.712   7.090  0.1788  0.0341  0.1273
  858loPI    C113385   3.405   4.295   4.644 -0.1228 -0.0436 -0.2443
  858loPI    C213386   3.756   4.205   4.474 -0.0179 -0.0164 -0.0460
  858loPI    C313387   3.421   4.026   4.348  0.0937 -0.1841 -0.1081
  858loPI   PO413388   3.479   4.278   4.947 -0.2092 -0.2040 -0.1851
  858loPI   GL113389   3.618   4.311   5.357  0.1205 -0.1825 -0.1036
  858loPI   GL213390   3.528   3.950   5.364 -0.0752  0.0250 -0.4060
  858loPI   C1A13391   3.717   4.495   5.759  0.0818  0.0454  0.2452
  858loPI   C2A13392   3.838   4.425   6.078 -0.0680 -0.4463 -0.1200
  858loPI   C3A13393   4.059   4.625   6.412  0.5278  0.5335 -0.1039
  858loPI   C4A13394   4.008   4.405   6.897  0.0392 -0.2500  0.2262
  858loPI   C5A13395   4.368   4.176   7.183 -0.0748 -0.2269  0.2805
  858loPI   C6A13396   4.468   3.843   7.445  0.0382  0.1159  0.2768
  858loPI   C1B13397   3.745   3.909   5.707 -0.0540  0.2137 -0.0047
  858loPI   C2B13398   3.714   3.854   6.107 -0.2905  0.0784  0.3551
  858loPI   C3B13399   3.610   3.787   6.457 -0.1835 -0.1319  0.1144
  858loPI   C4B13400   3.686   3.840   6.843 -0.4160  0.2055  0.0052
  859loPI    C113401  16.163   4.415   4.602 -0.0218 -0.1688  0.3757
  859loPI    C213402  15.840   4.559   4.414  0.3479  0.1464 -0.0393
  859loPI    C313403  16.108   4.340   4.213  0.4853  0.0377  0.2561
  859loPI   PO413404  16.119   4.293   4.738  0.0901  0.4080  0.0718
  859loPI   GL113405  16.022   4.365   5.113 -0.0005  0.1934 -0.1757
  859loPI   GL213406  16.360   4.466   5.212  0.1398  0.0771  0.0463
  859loPI   C1A13407  15.942   4.572   5.530 -0.2621  0.1442  0.0595
  859loPI   C2A13408  15.896   4.675   5.977  0.2107  0.0577  0.0616
  859loPI   C3A13409  15.695   4.888   6.369 -0.2956 -0.3673  0.0500
  859loPI   C4A13410  15.725   4.853   6.794 -0.3897  0.4192  0.1236
  859loPI   C5A13411  15.815   4.890   7.249  0.0313 -0.0836  0.2578
  859loPI   C6A13412  15.784   5.211   7.626  0.1230 -0.3000 -0.0416
  859loPI   C1B13413  16.362   4.351   5.632  0.0646 -0.0379  0.0374
  859loPI   C2B13414  16.675   4.324   5.907 -0.4015  0.0696 -0.0279
  859loPI   C3B13415  16.758   4.462   6.256 -0.0381 -0.0510 -0.0089
  859loPI   C4B13416  16.594   4.249   6.554  0.1089 -0.1556 -0.3864
  860loPI    C113417   5.978  15.208   4.642  0.2414 -0.0899  0.0597
  860loPI    C213418   5.954  14.875   4.420  0.1233 -0.1481  0.1587
  860loPI    C313419   5.956  15.234   4.243  0.0422 -0.1946  0.0625
  860loPI   PO413420   6.105  14.972   4.982 -0.3817  0.2561 -0.4595
  860loPI   GL113421   6.115  14.807   5.433  0.0019 -0.1899 -0.0191
  860loPI   GL213422   6.372  14.994   5.355 -0.1567 -0.0554  0.1328
  860loPI   C1A13423   6.387  14.547   5.656 -0.1082  0.2435 -0.1384
  860loPI   C2A13424   6.580  14.494   6.026  0.1261 -0.3935 -0.1664
  860loPI   C3A13425   6.555  14.763   6.405  0.1026 -0.0379 -0.0579
  860loPI   C4A13426   6.531  14.914   6.866 -0.0166 -0.1354  0.0334
  860loPI   C5A13427   6.610  14.739   7.280  0.1346  0.2224 -0.2003
  860loPI   C6A13428   7.072  14.642   7.436 -0.0711  0.1563 -0.2442
  860loPI   C1B13429   6.335  15.381   5.687 -0.0148  0.0924  0.2285
  860loPI   C2B13430   6.184  15.610   6.045  0.0570  0.0033 -0.2285
  860loPI   C3B13431   6.260  15.692   6.539  0.2910 -0.0551  0.1516
  860loPI   C4B13432   6.367  15.971   6.828 -0.1872  0.0098 -0.0793
  861loPI    C113433  10.748   0.520   5.066 -0.0100  0.0519 -0.2439
  861loPI    C213434  10.392   0.356   5.147  0.0287  0.0622 -0.0475
  861loPI    C313435  10.626   0.197   4.864 -0.0842 -0.0111 -0.1002
  861loPI   PO413436  10.671   0.735   5.345  0.1582  0.1717  0.0377
  861loPI   GL113437  10.437   0.677   5.796  0.0473  0.2448  0.0054
  861loPI   GL213438  10.290   0.829   5.896  0.2379 -0.0123 -0.0299
  861loPI   C1A13439  10.698   0.535   6.182 -0.0756  0.0768 -0.1174
  861loPI   C2A13440  10.960   0.128   6.439 -0.2212 -0.2081 -0.2611
  861loPI   C3A13441  11.342   0.100   6.643 -0.1814  0.0309 -0.1870
  861loPI   C4A13442  11.693   0.144   6.722  0.3101 -0.0567  0.1035
  861loPI   C5A13443  11.841   0.354   7.036  0.1803 -0.0873  0.1387
  861loPI   C6A13444  11.844   0.514   7.507 -0.0693 -0.3588 -0.1217
  861loPI   C1B13445  10.319   0.889   6.317  0.0145 -0.1113 -0.0263
  861loPI   C2B13446  10.432   1.227   6.568  0.0563  0.1639  0.0953
  861loPI   C3B13447  10.755   1.087   6.776 -0.2118  0.1195 -0.2360
  861loPI   C4B13448  10.919   0.784   7.062 -0.1706  0.0395 -0.0942
  862loPI    C113449  13.846   1.735   4.624 -0.0454 -0.2615  0.1901
  862loPI    C213450  13.704   1.981   4.906  0.0292 -0.0543  0.0493
  862loPI    C313451  13.548   1.988   4.537  0.0448 -0.2057  0.0391
  862loPI   PO413452  13.896   1.538   4.770  0.1411  0.0406 -0.1956
  862loPI   GL113453  13.941   1.460   5.204 -0.1518  0.1581  0.0909
  862loPI   GL213454  14.043   1.233   5.277  0.2351 -0.1048  0.1825
  862loPI   C1A13455  13.992   1.805   5.449 -0.0302 -0.2682 -0.0183
  862loPI   C2A13456  14.121   1.771   5.781  0.1106  0.0496 -0.1388
  862loPI   C3A13457  14.307   1.727   6.192  0.1395  0.0400  0.1297
  862loPI   C4A13458  14.376   1.865   6.686  0.1374  0.0667 -0.0636
  862loPI   C5A13459  14.434   1.833   7.045 -0.0158  0.1978 -0.2707
  862loPI   C6A13460  14.607   1.598   7.488  0.3177  0.0566 -0.1816
  862loPI   C1B13461  13.897   1.295   5.647 -0.1501  0.3271 -0.0298
  862loPI   C2B13462  13.706   1.000   5.874  0.0077 -0.2844  0.0014
  862loPI   C3B13463  13.616   0.665   6.110  0.0432  0.0722 -0.3523
  862loPI   C4B13464  13.696   0.579   6.615 -0.2060 -0.4660 -0.2503
  863loPI    C113465   6.830  18.981   4.396 -0.0069  0.0008  0.0652
  863loPI    C213466   6.450  18.874   4.335  0.0614 -0.2202  0.0182
  863loPI    C313467   6.677  18.989   4.027 -0.0806  0.3056  0.0992
  863loPI   PO413468   6.804  19.054   4.641  0.0182  0.0917 -0.0467
  863loPI   GL113469   7.045  19.197   5.036  0.0076  0.0105 -0.4025
  863loPI   GL213470   6.682  19.342   5.067 -0.4447 -0.0641  0.1701
  863loPI   C1A13471   7.056  19.522   5.393 -0.4248 -0.0303 -0.2302
  863loPI   C2A13472   7.017  19.585   5.795  0.2084  0.0927 -0.0536
  863loPI   C3A13473   7.154  19.353   6.198  0.1359  0.1355 -0.2008
  863loPI   C4A13474   7.408  19.397   6.599  0.1186 -0.1537  0.0051
  863loPI   C5A13475   7.413  19.340   7.113  0.3457 -0.1101 -0.0552
  863loPI   C6A13476   7.590  19.260   7.469  0.3094  0.1521 -0.0142
  863loPI   C1B13477   6.670  19.200   5.489  0.2419  0.2123  0.2044
  863loPI   C2B13478   6.386  19.139   5.773  0.1568 -0.1735 -0.2397
  863loPI   C3B13479   6.323  19.141   6.298  0.3773 -0.2905  0.2387
  863loPI   C4B13480   6.406  19.193   6.742 -0.2408 -0.0447 -0.4479
  864loPI    C113481   4.253  10.500   5.211 -0.0576  0.1295 -0.0054
  864loPI    C213482   4.477  10.753   4.997  0.2015 -0.1983 -0.1299
  864loPI    C313483   4.098  10.684   4.892  0.0760  0.2552  0.0007
  864loPI   PO413484   4.229  10.557   5.425  0.0736  0.0872 -0.0104
  864loPI   GL113485   3.935  10.794   5.637 -0.0720  0.2316  0.1004
  864loPI   GL213486   3.859  10.519   5.738 -0.2899 -0.0672  0.0537
  864loPI   C1A13487   4.061  10.968   6.060 -0.2074  0.0328 -0.2410
  864loPI   C2A13488   4.029  11.108   6.502 -0.0371 -0.1295 -0.3395
  864loPI   C3A13489   3.977  11.303   6.883 -0.2367 -0.0598  0.0343
  864loPI   C4A13490   3.949  11.226   7.260 -0.0836  0.1004  0.0306
  864loPI   C5A13491   3.964  10.904   7.586 -0.1307  0.0673 -0.0082
  864loPI   C6A13492   3.696  10.529   7.564  0.0270  0.0044 -0.0616
  864loPI   C1B13493   3.709  10.330   6.018 -0.0576  0.1364 -0.1086
  864loPI   C2B13494   3.814  10.107   6.272  0.2057 -0.0189 -0.0589
  864loPI   C3B13495   4.175  10.045   6.544 -0.3075  0.1161 -0.0135
  864loPI   C4B13496   4.258  10.159   6.996 -0.2770  0.2161 -0.2369
  865loPI    C113497  13.713   7.605   4.564  0.1996  0.2384  0.1305
  865loPI    C213498  13.835   7.644   4.186 -0.2507 -0.2697 -0.0809
  865loPI    C313499  14.062   7.447   4.450  0.0160 -0.0046 -0.1072
  865loPI   PO413500  13.644   7.911   4.688 -0.1285 -0.0570  0.0136
  865loPI   GL113501  13.445   7.954   5.119  0.0188 -0.3108  0.2938
  865loPI   GL213502  13.777   7.889   5.199 -0.1470  0.0177  0.3827
  865loPI   C1A13503  13.417   7.777   5.597 -0.1018  0.0854 -0.3672
  865loPI   C2A13504  13.485   7.884   6.083  0.2666  0.3949  0.0091
  865loPI   C3A13505  13.582   7.812   6.484  0.0954  0.0127  0.3291
  865loPI   C4A13506  13.479   7.912   6.934  0.1941  0.4637  0.1241
  865loPI   C5A13507  13.546   8.225   7.304 -0.2390  0.1339 -0.0869
  865loPI   C6A13508  13.895   8.247   7.546 -0.3789 -0.1037 -0.4426
  865loPI   C1B13509  13.893   8.096   5.557 -0.1488  0.0638  0.0061
  865loPI   C2B13510  13.865   8.218   6.021 -0.2185  0.0153 -0.1866
  865loPI   C3B13511  13.791   8.265   6.423  0.0869 -0.0724  0.0379
  865loPI   C4B13512  13.744   8.273   6.789  0.1863 -0.4281 -0.1148
  866loPI    C113513   9.026   9.929   5.220 -0.1305 -0.2788  0.2756
  866loPI    C213514   9.128   9.609   5.003  0.0483 -0.0734  0.0504
  866loPI    C313515   8.925   9.910   4.833  0.2592  0.1251  0.1452
  866loPI   PO413516   8.911   9.885   5.440 -0.0466  0.0523 -0.2064
  866loPI   GL113517   8.787   9.562   5.670  0.1710 -0.1652 -0.0705
  866loPI   GL213518   9.050   9.385   5.704 -0.2739  0.0487 -0.0256
  866loPI   C1A13519   8.598   9.310   5.999 -0.3254  0.0939 -0.1569
  866loPI   C2A13520   8.721   9.279   6.355 -0.0433  0.0802  0.2930
  866loPI   C3A13521   8.817   9.385   6.745 -0.0944 -0.1722 -0.0449
  866loPI   C4A13522   8.986   9.673   7.043 -0.2135  0.3054 -0.1599
  866loPI   C5A13523   9.095   9.876   7.508  0.0966 -0.2404 -0.0468
  866loPI   C6A13524   8.673   9.962   7.791 -0.0996  0.1802 -0.0587
  866loPI   C1B13525   9.125   9.190   6.042  0.0498  0.1539 -0.0781
  866loPI   C2B13526   9.095   8.920   6.485 -0.0297 -0.1278 -0.0122
  866loPI   C3B13527   9.216   8.672   6.866 -0.1291 -0.0988  0.1967
  866loPI   C4B13528   9.575   8.674   7.143 -0.1542  0.0910  0.0471
  867loPI    C113529   1.647   2.793   4.586  0.1738 -0.0790  0.0971
  867loPI    C213530   1.397   2.829   4.276  0.1608 -0.1625  0.0977
  867loPI    C313531   1.786   2.763   4.212  0.1802 -0.0501  0.0970
  867loPI   PO413532   1.416   2.963   4.756 -0.0665 -0.1216  0.0951
  867loPI   GL113533   1.430   2.972   5.192  0.0368  0.4640  0.1939
  867loPI   GL213534   1.111   2.819   5.094 -0.2867  0.0829  0.3205
  867loPI   C1A13535   1.344   3.000   5.552  0.0509  0.2253 -0.0330
  867loPI   C2A13536   1.102   2.837   5.818 -0.1381 -0.1081  0.0156
  867loPI   C3A13537   0.923   2.530   6.141 -0.2648 -0.1424 -0.0087
  867loPI   C4A13538   0.776   2.301   6.559  0.0944 -0.5581  0.2103
  867loPI   C5A13539   0.602   2.043   6.847  0.0520 -0.0932  0.0788
  867loPI   C6A13540   0.224   1.748   6.859  0.0615 -0.1695  0.1876
  867loPI   C1B13541   1.023   2.574   5.359 -0.0778 -0.3915  0.2787
  867loPI   C2B13542   1.053   2.309   5.719  0.1488 -0.3069 -0.1534
  867loPI   C3B13543   0.818   2.044   6.083 -0.2452  0.1471 -0.1321
  867loPI   C4B13544   0.710   1.838   6.374 -0.2689 -0.0602  0.1184
  868loPI    C113545   3.352   6.921   4.737 -0.0659  0.5300 -0.0081
  868loPI    C213546   3.033   6.729   4.589  0.2147  0.1020 -0.0734
  868loPI    C313547   3.174   7.055   4.404  0.1261 -0.0084 -0.3404
  868loPI   PO413548   3.429   6.794   4.982 -0.1817  0.0936  0.2399
  868loPI   GL113549   3.461   6.844   5.472  0.2483 -0.3683  0.0342
  868loPI   GL213550   3.351   6.989   5.668  0.2013 -0.2522  0.0891
  868loPI   C1A13551   3.204   6.521   5.720  0.0836  0.0507  0.1925
  868loPI   C2A13552   3.115   6.208   6.104  0.3139  0.3187 -0.0442
  868loPI   C3A13553   3.002   6.273   6.568  0.0441  0.1083 -0.0728
  868loPI   C4A13554   3.136   6.550   6.824  0.1627 -0.1936 -0.0569
  868loPI   C5A13555   3.382   6.907   7.054  0.1883 -0.0275 -0.1970
  868loPI   C6A13556   3.365   7.331   7.351 -0.0637  0.0741 -0.1628
  868loPI   C1B13557   3.020   7.078   5.925 -0.2985  0.1168 -0.0841
  868loPI   C2B13558   3.044   7.165   6.454  0.0613 -0.0946  0.3035
  868loPI   C3B13559   3.474   7.215   6.674 -0.2875  0.1119  0.1259
  868loPI   C4B13560   3.745   7.477   6.943  0.1315 -0.1305  0.0637
  869loPI    C113561   0.671  14.295   4.690  0.1961  0.0357  0.2612
  869loPI    C213562   1.037  14.379   4.553  0.0820 -0.0324 -0.0966
  869loPI    C313563   0.757  14.240   4.303 -0.1348 -0.1602  0.2111
  869loPI   PO413564   0.688  14.185   4.896  0.2112  0.3995  0.1828
  869loPI   GL113565   0.667  14.145   5.310  0.3345 -0.4967  0.1831
  869loPI   GL213566   0.979  14.216   5.479  0.2539  0.1676 -0.0355
  869loPI   C1A13567   0.539  13.933   5.670  0.3303 -0.0991 -0.2191
  869loPI   C2A13568   0.592  13.853   6.156  0.0808 -0.0286 -0.3539
  869loPI   C3A13569   0.595  13.963   6.528  0.2596  0.1334 -0.0834
  869loPI   C4A13570   0.583  13.653   6.768 -0.0306 -0.5203  0.0895
  869loPI   C5A13571   0.732  13.361   7.134 -0.2902 -0.1323 -0.1001
  869loPI   C6A13572   0.734  13.441   7.605 -0.1850 -0.0394 -0.0617
  869loPI   C1B13573   0.884  14.155   5.934 -0.1496 -0.0030  0.3231
  869loPI   C2B13574   1.016  13.975   6.309 -0.1302 -0.1610 -0.0202
  869loPI   C3B13575   1.046  13.580   6.533  0.0833 -0.0163  0.2492
  869loPI   C4B13576   1.166  13.359   6.934 -0.1819 -0.3315  0.1473
  870loPI    C113577   6.739  11.507   4.620 -0.0990 -0.2667  0.0928
  870loPI    C213578   6.787  11.300   4.281 -0.0610  0.1867 -0.1858
  870loPI    C313579   6.431  11.458   4.370 -0.1273 -0.1128  0.0967
  870loPI   PO413580   6.922  11.350   4.791 -0.1207 -0.1494  0.0301
  870loPI   GL113581   7.066  11.280   5.310  0.0061 -0.0251 -0.2955
  870loPI   GL213582   6.809  11.493   5.227 -0.2553 -0.3444  0.1892
  870loPI   C1A13583   7.003  11.046   5.665 -0.0251 -0.2785  0.1270
  870loPI   C2A13584   6.979  11.275   5.992  0.1694  0.0296  0.0217
  870loPI   C3A13585   6.782  11.580   6.123 -0.1000 -0.0259  0.0031
  870loPI   C4A13586   6.606  11.940   6.415 -0.0585  0.0968  0.4174
  870loPI   C5A13587   6.676  12.196   6.773 -0.0130 -0.1246  0.0686
  870loPI   C6A13588   6.953  12.317   7.009 -0.2022  0.1881 -0.2118
  870loPI   C1B13589   6.972  11.624   5.636  0.2148  0.1220  0.2871
  870loPI   C2B13590   7.187  11.846   5.929  0.1169  0.4300 -0.1266
  870loPI   C3B13591   7.105  11.866   6.388 -0.1620 -0.0666 -0.1264
  870loPI   C4B13592   7.002  11.842   6.766 -0.3106  0.2133  0.2926
  871loPI    C113593   9.439   5.205   4.885 -0.0508 -0.1158 -0.0438
  871loPI    C213594   9.590   5.419   4.583  0.0135 -0.1590 -0.0425
  871loPI    C313595   9.401   5.603   4.884  0.0648 -0.1044 -0.0434
  871loPI   PO413596   9.626   5.067   4.921 -0.0910  0.2136  0.1209
  871loPI   GL113597   9.962   5.133   5.149  0.1870  0.1367  0.3000
  871loPI   GL213598   9.604   5.287   5.354  0.1391 -0.0180 -0.1611
  871loPI   C1A13599  10.032   5.106   5.577  0.1682  0.0728 -0.0348
  871loPI   C2A13600  10.046   4.964   5.918  0.1928 -0.3674  0.0534
  871loPI   C3A13601  10.029   5.068   6.324  0.0504 -0.0539 -0.2928
  871loPI   C4A13602   9.936   4.850   6.728  0.2040  0.1943 -0.0578
  871loPI   C5A13603   9.952   4.589   7.084 -0.2487 -0.2532  0.4050
  871loPI   C6A13604   9.906   4.213   7.118  0.1356  0.2177 -0.0890
  871loPI   C1B13605   9.462   5.603   5.620 -0.1808 -0.1060  0.0053
  871loPI   C2B13606   9.349   5.562   6.112 -0.4315 -0.0107 -0.1322
  871loPI   C3B13607   9.238   5.455   6.497 -0.2141  0.1395  0.2023
  871loPI   C4B13608   9.307   5.490   6.886  0.2188  0.0963 -0.3023
  872loPI    C113609  16.616   5.311   4.732  0.1352 -0.3034 -0.0063
  872loPI    C213610  16.696   5.030   4.459  0.2301 -0.0007 -0.2963
  872loPI    C313611  16.522   5.373   4.348 -0.0023  0.0059  0.0740
  872loPI   PO413612  16.486   5.213   4.907  0.1481  0.2104 -0.2660
  872loPI   GL113613  16.475   5.151   5.256 -0.0828 -0.0857  0.1380
  872loPI   GL213614  16.383   4.854   5.423  0.1316  0.0061  0.0857
  872loPI   C1A13615  16.472   5.379   5.613 -0.1533  0.2102  0.0536
  872loPI   C2A13616  16.665   5.162   6.035  0.2836 -0.1838 -0.0519
  872loPI   C3A13617  16.526   5.154   6.461 -0.0625  0.0659 -0.0248
  872loPI   C4A13618  16.510   5.203   6.922  0.0392  0.1135 -0.0390
  872loPI   C5A13619  16.305   4.868   7.269 -0.2253 -0.0209  0.2113
  872loPI   C6A13620  16.097   4.797   7.645  0.4053  0.2208 -0.0841
  872loPI   C1B13621  16.410   4.787   5.843  0.0105 -0.1319 -0.1419
  872loPI   C2B13622  16.314   4.721   6.311 -0.5496  0.0433  0.2440
  872loPI   C3B13623  16.345   4.731   6.728 -0.0971 -0.1927  0.0317
  872loPI   C4B13624  16.455   4.509   6.968  0.1562  0.2261 -0.0729
  873loPI    C113625  14.922  12.773   4.638 -0.0223 -0.0108 -0.0468
  873loPI    C213626  14.690  12.772   4.313 -0.1537  0.0006  0.0465
  873loPI    C313627  15.042  12.962   4.306 -0.1319 -0.0440 -0.1056
  873loPI   PO413628  14.765  12.610   4.838  0.0875  0.0660  0.2145
  873loPI   GL113629  14.785  12.463   5.230  0.3625 -0.1063 -0.0923
  873loPI   GL213630  15.021  12.722   5.309 -0.3147  0.1370  0.2152
  873loPI   C1A13631  14.982  12.284   5.542  0.0825  0.1281  0.1388
  873loPI   C2A13632  15.257  12.039   5.782 -0.0272  0.1769 -0.2706
  873loPI   C3A13633  15.522  11.808   6.060 -0.0938 -0.1925  0.1712
  873loPI   C4A13634  15.594  11.871   6.508  0.2058  0.0349 -0.3842
  873loPI   C5A13635  15.771  12.131   6.713 -0.2050 -0.1016  0.0476
  873loPI   C6A13636  15.973  12.530   6.816 -0.0620 -0.2483 -0.0982
  873loPI   C1B13637  15.189  13.064   5.586  0.1681  0.0227  0.1512
  873loPI   C2B13638  15.339  13.169   5.852 -0.0813 -0.1510  0.1828
  873loPI   C3B13639  15.353  13.291   6.281 -0.0062  0.1567 -0.0009
  873loPI   C4B13640  15.540  13.385   6.542  0.0694 -0.0214  0.1744
  874loPI    C113641  16.967  14.401   4.732  0.1745 -0.1321  0.1964
  874loPI    C213642  17.073  14.307   4.358 -0.1428  0.2364  0.0075
  874loPI    C313643  17.159  14.669   4.506 -0.3751  0.2372  0.1465
  874loPI   PO413644  16.972  14.159   4.874 -0.1342  0.0798  0.3014
  874loPI   GL113645  17.010  13.940   5.233 -0.0420  0.0607 -0.0042
  874loPI   GL213646  17.236  13.812   5.331  0.0374  0.1614  0.0845
  874loPI   C1A13647  16.801  14.160   5.553  0.3159  0.1985 -0.0970
  874loPI   C2A13648  16.786  14.344   5.916 -0.1608 -0.0747  0.2183
  874loPI   C3A13649  16.537  14.324   6.342 -0.0829  0.3750 -0.0727
  874loPI   C4A13650  16.554  14.236   6.884  0.0385  0.0020  0.0361
  874loPI   C5A13651  16.593  14.171   7.254 -0.0636  0.1201  0.2710
  874loPI   C6A13652  16.866  14.039   7.495 -0.3339  0.2814  0.4686
  874loPI   C1B13653  17.102  13.790   5.734 -0.0297  0.1880 -0.3073
  874loPI   C2B13654  17.291  13.779   6.120 -0.0123 -0.0852 -0.2833
  874loPI   C3B13655  17.429  13.842   6.643 -0.1863  0.0993  0.2820
  874loPI   C4B13656  17.426  13.724   7.151  0.0282 -0.0484 -0.1115
  875loPI    C113657  11.187  13.129   4.856  0.1655  0.0449  0.3606
  875loPI    C213658  11.361  12.771   4.816 -0.1939 -0.0905 -0.0790
  875loPI    C313659  11.511  13.089   4.625 -0.0143 -0.0521  0.1213
  875loPI   PO413660  11.084  13.168   5.166  0.1462 -0.2877  0.0390
  875loPI   GL113661  10.981  13.020   5.497  0.2036 -0.0544 -0.0458
  875loPI   GL213662  11.185  13.125   5.724 -0.1029  0.0459  0.2602
  875loPI   C1A13663  10.921  12.629   5.786 -0.0042  0.2640 -0.0044
  875loPI   C2A13664  10.966  12.410   6.234  0.3242  0.1897  0.2274
  875loPI   C3A13665  10.655  12.170   6.520  0.2645 -0.0002  0.1006
  875loPI   C4A13666  10.422  12.202   7.025 -0.0942 -0.2515  0.0423
  875loPI   C5A13667  10.294  12.135   7.548  0.0496 -0.4236  0.1482
  875loPI   C6A13668  10.385  11.910   8.045 -0.0346 -0.0460  0.1006
  875loPI   C1B13669  11.208  13.367   6.082 -0.1853  0.0980 -0.1883
  875loPI   C2B13670  11.228  13.497   6.489  0.3628 -0.0936 -0.0689
  875loPI   C3B13671  11.251  13.617   6.939 -0.1128 -0.0464  0.3583
  875loPI   C4B13672  11.566  13.688   7.274  0.2406 -0.1961  0.3892
  876loPI    C113673   5.860   9.389   4.817 -0.1085  0.1450  0.0530
  876loPI    C213674   5.947   9.699   4.580 -0.1167  0.1309  0.0314
  876loPI    C313675   5.701   9.411   4.451  0.0137  0.0357 -0.0076
  876loPI   PO413676   6.064   9.436   5.019 -0.1105 -0.1864 -0.3705
  876loPI   GL113677   6.018   9.254   5.376  0.0362  0.5267  0.2190
  876loPI   GL213678   5.671   9.497   5.309 -0.1406 -0.2350  0.1743
  876loPI   C1A13679   6.127   9.217   5.900 -0.0544  0.0168  0.0891
  876loPI   C2A13680   6.182   8.950   6.332  0.1200  0.2326 -0.0976
  876loPI   C3A13681   6.273   8.999   6.722 -0.4328 -0.2561 -0.3175
  876loPI   C4A13682   6.445   9.213   7.009  0.1597 -0.0888  0.0265
  876loPI   C5A13683   6.725   9.392   7.439 -0.1412  0.0907  0.1482
  876loPI   C6A13684   7.081   9.215   7.684  0.1450 -0.0290  0.1891
  876loPI   C1B13685   5.578   9.373   5.728 -0.0226  0.3168  0.1669
  876loPI   C2B13686   5.488   9.558   6.107 -0.2771 -0.0579 -0.0978
  876loPI   C3B13687   5.467   9.741   6.396  0.0514  0.2915  0.2060
  876loPI   C4B13688   5.588   9.945   6.737  0.0492 -0.1066 -0.2337
  877loPI    C113689   1.094   9.375   4.740 -0.1358 -0.0782 -0.0368
  877loPI    C213690   1.225   9.712   4.569  0.1114 -0.1205  0.0651
  877loPI    C313691   1.068   9.422   4.343  0.2253 -0.0825 -0.0643
  877loPI   PO413692   1.331   9.300   4.953  0.0174  0.0886  0.0046
  877loPI   GL113693   1.522   9.291   5.351 -0.0572 -0.0079  0.0192
  877loPI   GL213694   1.289   9.500   5.398  0.0305 -0.0767  0.0987
  877loPI   C1A13695   1.590   9.177   5.756 -0.1347 -0.0044  0.0102
  877loPI   C2A13696   1.403   8.996   5.988  0.1758 -0.1139 -0.1520
  877loPI   C3A13697   1.318   8.999   6.390 -0.0697  0.1435  0.0454
  877loPI   C4A13698   1.037   8.896   6.776  0.1538 -0.0832 -0.0964
  877loPI   C5A13699   1.014   8.839   7.241 -0.1798  0.1159  0.2007
  877loPI   C6A13700   1.156   9.044   7.623  0.1685  0.0605 -0.0372
  877loPI   C1B13701   1.059   9.316   5.759  0.3398 -0.1323  0.0295
  877loPI   C2B13702   1.087   9.384   6.080  0.1507 -0.4905  0.0391
  877loPI   C3B13703   1.121   9.413   6.573 -0.1035 -0.0145 -0.1953
  877loPI   C4B13704   1.177   9.333   7.037 -0.0828 -0.3766  0.1625
  878loPI    C113705  17.755  10.898   4.646 -0.0362  0.0003 -0.0068
  878loPI    C213706  17.844  10.520   4.743  0.0153 -0.0221 -0.1387
  878loPI    C313707  17.642  10.598   4.407 -0.0411  0.0643 -0.0851
  878loPI   PO413708  17.666  11.039   4.914  0.2321 -0.0561  0.0502
  878loPI   GL113709  17.699  11.426   5.194 -0.3216 -0.2120 -0.0078
  878loPI   GL213710  17.646  11.720   5.322  0.1423 -0.1544 -0.1450
  878loPI   C1A13711  17.472  11.215   5.541 -0.0960 -0.0626 -0.0120
  878loPI   C2A13712  17.247  10.943   5.754  0.1533 -0.0138 -0.0373
  878loPI   C3A13713  16.931  10.951   5.983 -0.1166  0.2366  0.1769
  878loPI   C4A13714  16.966  10.981   6.476  0.1073  0.1280 -0.0047
  878loPI   C5A13715  17.005  11.192   6.903  0.0259 -0.0522 -0.0297
  878loPI   C6A13716  17.035  11.395   7.331  0.1815  0.3480 -0.0054
  878loPI   C1B13717  17.459  11.676   5.694  0.1470  0.0992  0.1910
  878loPI   C2B13718  17.310  11.610   6.109  0.0033 -0.3105  0.0801
  878loPI   C3B13719  17.193  11.451   6.501 -0.0046 -0.1118  0.2208
  878loPI   C4B13720  17.083  11.684   6.901  0.2124 -0.2514 -0.1104
  879loPI    C113721  16.087  14.008   4.478 -0.2130 -0.0505  0.1417
  879loPI    C213722  16.052  14.217   4.139  0.0320 -0.1500  0.0526
  879loPI    C313723  15.865  13.866   4.178  0.0717 -0.1786 -0.0126
  879loPI   PO413724  16.028  14.237   4.720  0.1169  0.0126  0.1522
  879loPI   GL113725  16.068  14.248   5.156 -0.1217 -0.1014  0.1590
  879loPI   GL213726  16.018  14.489   5.218 -0.1436  0.0215 -0.1570
  879loPI   C1A13727  15.832  13.952   5.390 -0.0878  0.2394 -0.1494
  879loPI   C2A13728  16.035  13.965   5.807  0.0209 -0.5060  0.2225
  879loPI   C3A13729  16.222  13.897   6.205 -0.4265 -0.0471 -0.1039
  879loPI   C4A13730  16.411  13.833   6.567  0.4375  0.3433 -0.3125
  879loPI   C5A13731  16.599  13.678   6.918  0.0367  0.0571 -0.0305
  879loPI   C6A13732  16.509  13.302   7.146 -0.1372 -0.2576  0.1620
  879loPI   C1B13733  15.858  14.516   5.606 -0.0162  0.0878 -0.1043
  879loPI   C2B13734  15.770  14.560   6.027  0.0743 -0.3135 -0.0459
  879loPI   C3B13735  15.657  14.638   6.490  0.1248  0.0610 -0.0760
  879loPI   C4B13736  15.683  14.680   6.962  0.2747  0.0156  0.1067
  880loPI    C113737  10.907  10.127   4.750  0.0465 -0.0091  0.1375
  880loPI    C213738  11.201   9.983   4.521 -0.0269  0.1487 -0.0599
  880loPI    C313739  10.832  10.019   4.373 -0.1334  0.0141  0.1658
  880loPI   PO413740  10.971  10.400   4.875  0.0515  0.2983  0.0173
  880loPI   GL113741  10.973  10.403   5.331 -0.1174  0.1301 -0.2709
  880loPI   GL213742  10.933  10.038   5.250  0.0985 -0.0906  0.1139
  880loPI   C1A13743  10.977  10.506   5.797  0.1199 -0.2624 -0.3764
  880loPI   C2A13744  10.893  10.723   6.116 -0.0608  0.0364 -0.1956
  880loPI   C3A13745  10.935  10.760   6.628 -0.1013 -0.0212  0.2550
  880loPI   C4A13746  11.112  10.760   7.105 -0.1824 -0.0658 -0.1744
  880loPI   C5A13747  11.293  11.085   7.331  0.1514  0.2271 -0.0528
  880loPI   C6A13748  11.646  11.106   7.697 -0.1345 -0.3359 -0.0090
  880loPI   C1B13749  10.727  10.034   5.661 -0.0366  0.0012 -0.0720
  880loPI   C2B13750  10.708   9.787   6.014 -0.0952 -0.0058 -0.0821
  880loPI   C3B13751  10.744   9.759   6.462 -0.0809  0.1973  0.3175
  880loPI   C4B13752  10.732   9.622   6.843 -0.3486  0.1149 -0.0913
  881loPI    C113753  14.426  17.683   5.122  0.3839  0.3193 -0.1161
  881loPI    C213754  14.791  17.521   5.105  0.1185 -0.3286  0.0535
  881loPI    C313755  14.499  17.380   4.871  0.0003  0.2767 -0.1821
  881loPI   PO413756  14.330  17.707   5.297  0.2618  0.0158 -0.2849
  881loPI   GL113757  14.186  17.594   5.672 -0.2545  0.0050 -0.5068
  881loPI   GL213758  13.931  17.736   5.588  0.0587 -0.2425  0.1233
  881loPI   C1A13759  14.143  17.557   6.162  0.0812 -0.2203 -0.0283
  881loPI   C2A13760  14.243  17.339   6.485 -0.0264  0.2775 -0.0436
  881loPI   C3A13761  14.549  17.422   6.845 -0.4281  0.0202  0.1200
  881loPI   C4A13762  14.534  17.589   7.265  0.0984  0.3508  0.1911
  881loPI   C5A13763  14.288  17.628   7.566 -0.0479  0.0603  0.2327
  881loPI   C6A13764  14.101  17.943   7.846 -0.1238  0.1800 -0.0589
  881loPI   C1B13765  13.871  17.943   6.015 -0.2482  0.0026 -0.0137
  881loPI   C2B13766  13.851  17.860   6.423  0.1352 -0.2292 -0.1713
  881loPI   C3B13767  13.840  17.614   6.738  0.2998 -0.0716 -0.1885
  881loPI   C4B13768  14.076  17.347   7.045  0.0078 -0.5394 -0.0194
  882loPI    C113769  15.412   8.109   4.629 -0.2296  0.0738 -0.1190
  882loPI    C213770  15.589   8.448   4.746 -0.0746  0.0211 -0.1969
  882loPI    C313771  15.811   8.135   4.634 -0.2134 -0.1705  0.0526
  882loPI   PO413772  15.277   7.937   4.787  0.0009 -0.1519 -0.1580
  882loPI   GL113773  15.169   7.794   5.205  0.2962 -0.1188 -0.0994
  882loPI   GL213774  14.997   7.932   5.331  0.0281 -0.1306 -0.1326
  882loPI   C1A13775  15.223   7.507   5.578  0.0912 -0.1554  0.0811
  882loPI   C2A13776  15.148   7.529   5.943 -0.0768  0.2336  0.1625
  882loPI   C3A13777  15.062   7.821   6.151  0.0834 -0.3543 -0.2028
  882loPI   C4A13778  15.152   7.823   6.591  0.0674  0.0287 -0.1495
  882loPI   C5A13779  15.377   7.870   6.952  0.0032 -0.4973 -0.1326
  882loPI   C6A13780  15.383   7.896   7.324  0.2266 -0.5336 -0.2027
  882loPI   C1B13781  15.188   7.966   5.687 -0.0126 -0.0902 -0.1400
  882loPI   C2B13782  15.490   8.133   6.001  0.4924  0.0784 -0.1698
  882loPI   C3B13783  15.948   8.195   6.203 -0.0044 -0.2134 -0.2555
  882loPI   C4B13784  16.221   8.100   6.583 -0.2032 -0.1343  0.4211
  883loPI    C113785   8.263   2.925   5.155  0.0486  0.1195 -0.4120
  883loPI    C213786   8.295   3.100   4.797  0.2342  0.1584 -0.3773
  883loPI    C313787   8.276   2.702   4.824 -0.2532  0.1701 -0.4609
  883loPI   PO413788   8.432   3.006   5.284  0.0134  0.3679 -0.1102
  883loPI   GL113789   8.677   3.254   5.636  0.1223  0.4908 -0.1430
  883loPI   GL213790   8.968   3.040   5.798 -0.2004  0.3659  0.0011
  883loPI   C1A13791   8.447   3.272   6.049 -0.0189 -0.1874 -0.2155
  883loPI   C2A13792   8.109   3.072   6.214 -0.0553 -0.3042 -0.1322
  883loPI   C3A13793   7.958   2.959   6.649 -0.0922  0.0594  0.0149
  883loPI   C4A13794   8.049   3.046   6.937 -0.0021  0.1763 -0.1514
  883loPI   C5A13795   8.072   3.331   7.264  0.0622  0.3434 -0.0380
  883loPI   C6A13796   8.050   3.445   7.677  0.1272 -0.2007  0.0185
  883loPI   C1B13797   8.988   3.171   6.144 -0.0576  0.0408 -0.3106
  883loPI   C2B13798   8.908   3.183   6.571 -0.0335 -0.2086  0.0388
  883loPI   C3B13799   8.828   3.028   6.981  0.2232  0.2976 -0.0112
  883loPI   C4B13800   8.802   2.666   7.167  0.0805 -0.1837  0.0657
  884loPI    C113801   2.255  10.627   4.904 -0.0153 -0.0199 -0.0626
  884loPI    C213802   1.862  10.696   4.876 -0.0405 -0.0739  0.1392
  884loPI    C313803   2.122  10.949   4.708 -0.1595 -0.0085  0.0523
  884loPI   PO413804   2.255  10.535   5.179 -0.3854 -0.1259 -0.1883
  884loPI   GL113805   2.581  10.439   5.501  0.0725  0.2859  0.1228
  884loPI   GL213806   2.913  10.379   5.613  0.2289  0.1567 -0.1341
  884loPI   C1A13807   2.437  10.252   5.857 -0.2453 -0.0316 -0.0339
  884loPI   C2A13808   2.495  10.019   6.161 -0.1244 -0.0586 -0.0012
  884loPI   C3A13809   2.362   9.867   6.615  0.3801 -0.0415 -0.2548
  884loPI   C4A13810   2.219   9.730   7.059 -0.3126  0.0621  0.2168
  884loPI   C5A13811   1.899   9.652   7.406 -0.2461  0.0275  0.0411
  884loPI   C6A13812   1.549   9.311   7.556  0.0598 -0.2473  0.1049
  884loPI   C1B13813   2.931  10.122   5.946  0.5840  0.1640  0.1006
  884loPI   C2B13814   2.882   9.860   6.398  0.0600  0.3883 -0.1006
  884loPI   C3B13815   3.026   9.847   6.778  0.0957  0.2141  0.0671
  884loPI   C4B13816   3.185   9.871   7.220  0.2796 -0.3184 -0.0426
  885loPI    C113817   9.969  10.191   4.655  0.0810 -0.0333 -0.0908
  885loPI    C213818   9.886   9.805   4.591  0.0898 -0.0409 -0.0566
  885loPI    C313819   9.694  10.088   4.383 -0.0020 -0.0595  0.0026
  885loPI   PO413820   9.946  10.169   4.955  0.0996  0.3226 -0.1292
  885loPI   GL113821  10.178   9.960   5.386  0.1259  0.0778  0.1577
  885loPI   GL213822  10.008  10.033   5.451 -0.1429 -0.0161 -0.2936
  885loPI   C1A13823  10.318   9.831   5.786  0.0511  0.2343 -0.2102
  885loPI   C2A13824  10.313   9.619   6.157  0.2352  0.1606 -0.0836
  885loPI   C3A13825  10.295   9.533   6.601  0.0697 -0.0138 -0.1628
  885loPI   C4A13826  10.284   9.313   6.953  0.0240 -0.1690 -0.2127
  885loPI   C5A13827  10.247   8.926   7.234  0.0968 -0.2289  0.1866
  885loPI   C6A13828   9.979   8.558   7.489 -0.2568  0.0113 -0.5224
  885loPI   C1B13829   9.920  10.193   5.850  0.0792  0.0383 -0.0935
  885loPI   C2B13830   9.980  10.050   6.234  0.0075 -0.0254  0.1857
  885loPI   C3B13831  10.132  10.110   6.651 -0.0700 -0.1748 -0.1105
  885loPI   C4B13832  10.375  10.120   7.017  0.0479  0.2259  0.2754
  886loPI    C113833   9.316  17.173   4.766 -0.0623 -0.3444 -0.0955
  886loPI    C213834   9.222  16.883   4.507 -0.1234 -0.4094 -0.0010
  886loPI    C313835   9.414  17.210   4.379 -0.1759 -0.4294 -0.1329
  886loPI   PO413836   9.386  17.033   4.967  0.4091  0.1281 -0.0949
  886loPI   GL113837   9.692  17.095   5.203 -0.2690  0.1827  0.3221
  886loPI   GL213838   9.826  17.339   5.325  0.1020 -0.2729 -0.1366
  886loPI   C1A13839   9.365  16.949   5.557  0.1078  0.0099 -0.0728
  886loPI   C2A13840   9.330  16.840   5.908  0.3512  0.1403  0.0215
  886loPI   C3A13841   9.584  16.852   6.340 -0.2444  0.0596  0.1081
  886loPI   C4A13842   9.713  16.902   6.784  0.2049 -0.2379 -0.0855
  886loPI   C5A13843   9.780  16.793   7.177 -0.2789 -0.0655 -0.0881
  886loPI   C6A13844   9.872  16.672   7.537 -0.0604  0.1293  0.1385
  886loPI   C1B13845   9.774  17.299   5.768 -0.0951  0.3868  0.1388
  886loPI   C2B13846   9.758  17.417   6.239  0.0860  0.3043 -0.4604
  886loPI   C3B13847   9.741  17.398   6.678 -0.2422  0.0351 -0.0722
  886loPI   C4B13848   9.863  17.435   7.128  0.2722 -0.1746 -0.0879
  887loPI    C113849   6.876   5.307   4.385  0.1914  0.3542 -0.0616
  887loPI    C213850   6.518   5.130   4.404  0.2357  0.2454 -0.2238
  887loPI    C313851   6.836   4.925   4.273  0.3912  0.2925  0.0722
  887loPI   PO413852   6.997   5.370   4.657 -0.3131 -0.0965 -0.0403
  887loPI   GL113853   6.999   5.475   5.113  0.1461  0.0104  0.3023
  887loPI   GL213854   7.309   5.488   5.296  0.0645 -0.0387 -0.0229
  887loPI   C1A13855   6.797   5.426   5.493  0.5078  0.0665  0.0892
  887loPI   C2A13856   6.869   5.237   5.959  0.0193 -0.3200  0.2889
  887loPI   C3A13857   6.883   5.333   6.404 -0.0847 -0.0560 -0.3767
  887loPI   C4A13858   6.881   5.611   6.698 -0.0010 -0.1611  0.0229
  887loPI   C5A13859   6.642   5.802   6.971  0.1366  0.2721 -0.2242
  887loPI   C6A13860   6.443   5.506   7.311 -0.0671 -0.0756 -0.2915
  887loPI   C1B13861   7.344   5.442   5.730  0.2372  0.1721  0.3204
  887loPI   C2B13862   7.279   5.691   6.092 -0.1402 -0.0243  0.1745
  887loPI   C3B13863   7.297   5.948   6.442  0.0721  0.3132  0.0602
  887loPI   C4B13864   7.379   5.766   6.857  0.0312 -0.1138  0.2652
  888loPI    C113865  17.044   2.810   4.667 -0.0645  0.1538  0.2476
  888loPI    C213866  16.754   2.561   4.548  0.1977 -0.1560  0.2437
  888loPI    C313867  16.707   2.956   4.508 -0.0572 -0.2190 -0.1296
  888loPI   PO413868  17.154   2.683   4.825  0.1459 -0.2368  0.0031
  888loPI   GL113869  17.491   2.854   5.168  0.1577  0.1189  0.0760
  888loPI   GL213870  17.383   3.074   5.045 -0.3612 -0.2559  0.1845
  888loPI   C1A13871  17.494   2.891   5.575  0.1383  0.4157 -0.1101
  888loPI   C2A13872  17.281   3.127   5.871  0.0752 -0.2295 -0.2674
  888loPI   C3A13873  17.205   3.480   6.008  0.0712  0.2221  0.0648
  888loPI   C4A13874  17.281   3.626   6.415  0.2097  0.4755 -0.0467
  888loPI   C5A13875  17.063   3.604   6.879  0.0026  0.1748  0.0010
  888loPI   C6A13876  17.269   3.406   7.154 -0.2496  0.0360  0.1401
  888loPI   C1B13877  17.292   3.293   5.384  0.0344 -0.3474  0.0013
  888loPI   C2B13878  16.935   3.450   5.561  0.1432 -0.2123  0.0718
  888loPI   C3B13879  16.705   3.463   5.907  0.0858 -0.1540 -0.0846
  888loPI   C4B13880  16.784   3.526   6.421  0.3232 -0.2652 -0.2122
  889loPI    C113881   6.245  10.726   4.956 -0.1313  0.2007  0.1274
  889loPI    C213882   6.106  10.662   4.586  0.0175 -0.0686  0.1156
  889loPI    C313883   5.881  10.856   4.853 -0.1042  0.0987 -0.1050
  889loPI   PO413884   6.349  10.423   4.996  0.3706  0.1259 -0.0453
  889loPI   GL113885   6.392  10.211   5.380 -0.1686 -0.3035  0.2056
  889loPI   GL213886   6.020  10.206   5.262 -0.1192  0.2600 -0.0146
  889loPI   C1A13887   6.377  10.125   5.840  0.2457  0.0442 -0.0832
  889loPI   C2A13888   6.407  10.293   6.229 -0.3066 -0.1300  0.0944
  889loPI   C3A13889   6.373  10.592   6.563  0.0885  0.0383 -0.0229
  889loPI   C4A13890   6.567  10.794   6.895  0.1972 -0.0567 -0.0478
  889loPI   C5A13891   6.531  10.643   7.360 -0.0181  0.0425 -0.0962
  889loPI   C6A13892   6.114  10.651   7.599 -0.0806 -0.0062 -0.0622
  889loPI   C1B13893   5.920  10.016   5.687 -0.2311  0.0973 -0.2033
  889loPI   C2B13894   5.972   9.680   5.844 -0.0154 -0.1512 -0.0974
  889loPI   C3B13895   5.952   9.438   6.323  0.0445 -0.0431  0.1360
  889loPI   C4B13896   5.735   9.459   6.693  0.2071 -0.2097 -0.3497
  890loPI    C113897  10.159  17.030   4.879 -0.0556  0.2161 -0.1625
  890loPI    C213898  10.455  16.895   4.646  0.0881  0.2974 -0.0290
  890loPI    C313899  10.126  17.050   4.480  0.0410  0.0420 -0.1803
  890loPI   PO413900  10.185  17.276   4.983 -0.3016 -0.1028  0.0875
  890loPI   GL113901  10.395  17.479   5.351 -0.0303  0.2552 -0.0832
  890loPI   GL213902  10.154  17.679   5.459  0.0010  0.1045  0.2619
  890loPI   C1A13903  10.631  17.429   5.715 -0.3022 -0.0669 -0.0554
  890loPI   C2A13904  10.616  17.277   6.195 -0.0077 -0.2020 -0.0382
  890loPI   C3A13905  10.599  17.308   6.659  0.0796  0.0485 -0.2882
  890loPI   C4A13906  10.621  17.058   7.063 -0.1984  0.0516  0.3418
  890loPI   C5A13907  10.827  16.889   7.412  0.0722 -0.1162  0.1361
  890loPI   C6A13908  10.650  16.586   7.741 -0.2009 -0.2251  0.1640
  890loPI   C1B13909  10.197  17.487   6.009 -0.2615  0.0321  0.1591
  890loPI   C2B13910  10.251  17.630   6.368 -0.2308 -0.0563 -0.1697
  890loPI   C3B13911  10.271  17.654   6.836 -0.1585  0.0678 -0.0143
  890loPI   C4B13912  10.422  17.467   7.219  0.2126  0.0989 -0.0216
  891loPI    C113913  18.233   3.306   4.129  0.1933  0.0399  0.0910
  891loPI    C213914  18.550   3.374   3.895 -0.0263 -0.1463 -0.2700
  891loPI    C313915  18.233   3.617   3.878  0.0903  0.0384  0.0886
  891loPI   PO413916  18.282   3.263   4.451 -0.1074  0.0384 -0.0004
  891loPI   GL113917  18.284   3.449   4.870 -0.2189  0.1806 -0.1797
  891loPI   GL213918  18.442   3.138   4.932  0.4052  0.0575  0.2004
  891loPI   C1A13919  18.230   3.447   5.381  0.0655 -0.1065  0.2002
  891loPI   C2A13920  18.375   3.647   5.828 -0.3015  0.0334 -0.1246
  891loPI   C3A13921  18.370   3.596   6.232 -0.1813 -0.0432 -0.1018
  891loPI   C4A13922  18.263   3.610   6.699 -0.0759 -0.2228 -0.0401
  891loPI   C5A13923  18.132   3.803   7.049  0.0617 -0.0425  0.1935
  891loPI   C6A13924  18.129   4.022   7.486 -0.1641 -0.3224 -0.1655
  891loPI   C1B13925  18.370   3.027   5.275 -0.0354  0.2121  0.0944
  891loPI   C2B13926  18.242   3.049   5.694  0.0334  0.0354 -0.3603
  891loPI   C3B13927  18.464   2.865   6.051  0.0022 -0.2172  0.2510
  891loPI   C4B13928  18.379   2.734   6.401 -0.3511  0.1186 -0.2072
  892loPI    C113929  13.858   0.702   4.504  0.0351 -0.1618 -0.0356
  892loPI    C213930  13.589   0.833   4.238  0.1836 -0.0134 -0.1149
  892loPI    C313931  13.979   0.878   4.166  0.2316 -0.2353 -0.0045
  892loPI   PO413932  13.774   0.799   4.717  0.2860  0.0826  0.3128
  892loPI   GL113933  13.752   0.671   5.045  0.4528  0.2997 -0.5624
  892loPI   GL213934  13.587   0.509   5.289 -0.1059 -0.1436 -0.0496
  892loPI   C1A13935  14.112   0.709   5.392  0.0377  0.0404  0.0218
  892loPI   C2A13936  14.125   0.718   5.887  0.0730 -0.0637 -0.0467
  892loPI   C3A13937  14.014   0.944   6.249  0.1699 -0.0791  0.2493
  892loPI   C4A13938  14.057   0.986   6.683 -0.3942 -0.0231 -0.3206
  892loPI   C5A13939  14.034   0.855   7.137 -0.0821  0.1588 -0.1109
  892loPI   C6A13940  14.355   0.627   7.342  0.1744 -0.1318 -0.1283
  892loPI   C1B13941  13.876   0.353   5.638 -0.0471 -0.4043 -0.2404
  892loPI   C2B13942  13.979   0.318   6.120  0.1403 -0.1692 -0.2783
  892loPI   C3B13943  14.233   0.413   6.559 -0.0426 -0.3607 -0.1603
  892loPI   C4B13944  14.067   0.362   6.957 -0.0879  0.2360 -0.3212
  893loPI    C113945   1.178  18.550   4.902 -0.0162  0.0533 -0.0733
  893loPI    C213946   1.042  18.221   4.720 -0.1217  0.0586 -0.0046
  893loPI    C313947   0.930  18.582   4.590 -0.0011  0.0680 -0.0838
  893loPI   PO413948   1.185  18.492   5.239 -0.3484 -0.3275  0.1308
  893loPI   GL113949   1.128  18.346   5.546 -0.1267 -0.1520 -0.1499
  893loPI   GL213950   1.031  18.704   5.700 -0.2794  0.3292 -0.0144
  893loPI   C1A13951   0.901  18.241   6.045  0.1525 -0.1129 -0.3074
  893loPI   C2A13952   0.478  18.230   6.370 -0.1995 -0.1315 -0.0701
  893loPI   C3A13953   0.430  18.244   6.767  0.2044  0.0636  0.3901
  893loPI   C4A13954   0.280  18.323   7.177 -0.2043  0.1024 -0.1641
  893loPI   C5A13955   0.397  18.096   7.590  0.1988  0.2663  0.3021
  893loPI   C6A13956   0.718  17.913   7.867 -0.0212  0.0072 -0.1514
  893loPI   C1B13957   0.994  18.730   6.148 -0.0046  0.1078  0.6125
  893loPI   C2B13958   1.230  18.877   6.420  0.0700  0.1632  0.3145
  893loPI   C3B13959   1.237  18.782   6.892 -0.2760  0.0749  0.2775
  893loPI   C4B13960   1.097  18.824   7.305 -0.2048 -0.0761  0.0100
  894loPI    C113961  15.632   6.761   4.714 -0.0499 -0.0010  0.0823
  894loPI    C213962  15.710   7.120   4.871  0.1327  0.0354 -0.0889
  894loPI    C313963  15.656   7.082   4.476 -0.1984 -0.0758 -0.0354
  894loPI   PO413964  15.422   6.713   4.918 -0.2619  0.0375 -0.4413
  894loPI   GL113965  15.416   6.677   5.286  0.0061 -0.0640  0.1500
  894loPI   GL213966  15.078   6.669   5.386  0.0554  0.0289 -0.1109
  894loPI   C1A13967  15.479   6.556   5.747  0.0646  0.0357 -0.0033
  894loPI   C2A13968  15.445   6.611   6.086 -0.0475 -0.3063 -0.1501
  894loPI   C3A13969  15.526   6.711   6.501 -0.1627  0.1127  0.2553
  894loPI   C4A13970  15.716   6.742   6.880  0.2943 -0.1309  0.3137
  894loPI   C5A13971  15.521   6.665   7.343 -0.0356 -0.0347 -0.0982
  894loPI   C6A13972  15.150   6.683   7.697 -0.0346 -0.2277 -0.1120
  894loPI   C1B13973  14.941   6.746   5.745  0.0146  0.2733  0.2056
  894loPI   C2B13974  14.975   6.711   6.220 -0.2917 -0.0626  0.1499
  894loPI   C3B13975  14.991   6.904   6.530 -0.1316 -0.1239 -0.2044
  894loPI   C4B13976  15.244   6.768   6.929 -0.2366 -0.1697  0.1865
  895loPI    C113977  16.482  15.319   4.523 -0.1584  0.0810  0.1687
  895loPI    C213978  16.516  15.324   4.124  0.2153 -0.1224  0.1930
  895loPI    C313979  16.370  15.643   4.316 -0.1282 -0.0865 -0.1159
  895loPI   PO413980  16.430  15.123   4.660  0.0772 -0.1002 -0.1367
  895loPI   GL113981  16.403  14.918   5.111 -0.1141  0.1047  0.2600
  895loPI   GL213982  16.527  15.186   5.213  0.0303  0.1842  0.0550
  895loPI   C1A13983  16.235  14.862   5.603 -0.0089 -0.1234 -0.2645
  895loPI   C2A13984  16.142  14.907   6.114  0.0175  0.1700  0.2890
  895loPI   C3A13985  16.109  14.805   6.619  0.0116  0.0990  0.1107
  895loPI   C4A13986  16.304  14.676   7.052  0.0140  0.0675  0.0128
  895loPI   C5A13987  16.558  14.660   7.354 -0.0333 -0.0025  0.0570
  895loPI   C6A13988  16.930  14.559   7.541 -0.5896  0.0423 -0.0486
  895loPI   C1B13989  16.764  15.192   5.595 -0.4240  0.0420 -0.1448
  895loPI   C2B13990  16.986  15.413   5.834  0.4487  0.0213 -0.1383
  895loPI   C3B13991  17.161  15.383   6.245 -0.2512 -0.0355  0.0055
  895loPI   C4B13992  17.331  15.611   6.635 -0.0739 -0.1810 -0.2020
  896loPI    C113993  17.669   2.975   4.625 -0.0040  0.1482  0.1026
  896loPI    C213994  17.699   3.060   4.236  0.2587 -0.0686  0.0729
  896loPI    C313995  17.474   2.752   4.357  0.1617  0.0105  0.0951
  896loPI   PO413996  17.885   2.982   4.700 -0.1039  0.2296  0.1072
  896loPI   GL113997  17.899   3.234   5.103  0.0457  0.1411  0.0959
  896loPI   GL213998  17.686   3.534   5.087 -0.0821 -0.0446  0.1565
  896loPI   C1A13999  17.790   3.258   5.527 -0.0124  0.1711 -0.0876
  896loPI   C2A14000  17.692   3.475   5.938  0.0142  0.3339  0.0290
  896loPI   C3A14001  17.508   3.887   6.053 -0.1264  0.1995 -0.0449
  896loPI   C4A14002  17.552   4.084   6.422 -0.2984  0.0120 -0.0245
  896loPI   C5A14003  17.517   3.930   6.813 -0.0775  0.2111 -0.0588
  896loPI   C6A14004  17.641   3.593   6.910 -0.3258 -0.1695  0.0557
  896loPI   C1B14005  17.785   3.789   5.350 -0.1008 -0.1375 -0.0206
  896loPI   C2B14006  17.955   3.865   5.694  0.0976 -0.1725 -0.1777
  896loPI   C3B14007  17.973   3.871   6.113  0.0970  0.0983 -0.0558
  896loPI   C4B14008  18.000   4.009   6.610 -0.2474 -0.0399 -0.1047
  897loPI    C114009  16.035   0.255   4.812  0.1237 -0.1149  0.0285
  897loPI    C214010  16.032   0.107   4.440  0.0322 -0.1879  0.0578
  897loPI    C314011  16.013   0.503   4.499  0.0026 -0.1785 -0.0139
  897loPI   PO414012  16.247   0.169   5.008 -0.0271 -0.2270  0.2517
  897loPI   GL114013  16.223   0.053   5.487 -0.1083  0.1753  0.0764
  897loPI   GL214014  16.049  -0.226   5.577  0.0423 -0.2073 -0.1216
  897loPI   C1A14015  16.538  -0.027   5.708  0.0484 -0.0054 -0.2627
  897loPI   C2A14016  16.626   0.023   6.033  0.2608  0.0175  0.1087
  897loPI   C3A14017  16.362   0.096   6.358  0.1839 -0.0145  0.0431
  897loPI   C4A14018  16.391   0.294   6.746 -0.0023 -0.0268 -0.5035
  897loPI   C5A14019  16.537   0.449   7.163 -0.1190 -0.1901 -0.0035
  897loPI   C6A14020  16.660   0.267   7.490 -0.0404 -0.0928  0.0486
  897loPI   C1B14021  16.076  -0.047   5.981 -0.1987 -0.0367 -0.0645
  897loPI   C2B14022  15.810   0.080   6.281 -0.0106  0.0063  0.1551
  897loPI   C3B14023  15.739   0.215   6.710  0.0631  0.2296 -0.1474
  897loPI   C4B14024  16.034   0.348   7.092 -0.0937  0.1803  0.1221
  898loPI    C114025  10.760  15.608   4.994  0.1798  0.1142 -0.1032
  898loPI    C214026  10.553  15.901   4.817 -0.0974 -0.0877 -0.1201
  898loPI    C314027  10.722  15.614   4.596  0.3275  0.1527 -0.1172
  898loPI   PO414028  10.950  15.687   5.178 -0.0338  0.0250 -0.0218
  898loPI   GL114029  10.837  15.670   5.667  0.0499  0.3437  0.0208
  898loPI   GL214030  11.060  15.917   5.578 -0.2097 -0.0367  0.1611
  898loPI   C1A14031  11.013  15.410   5.989  0.1357 -0.2617  0.0091
  898loPI   C2A14032  11.413  15.308   6.266  0.1189  0.2069 -0.0291
  898loPI   C3A14033  11.578  15.285   6.713 -0.2273 -0.1800  0.0668
  898loPI   C4A14034  11.792  15.041   7.002  0.1578  0.3473 -0.3290
  898loPI   C5A14035  11.813  14.849   7.362  0.2180  0.2287 -0.2246
  898loPI   C6A14036  11.620  14.580   7.698  0.1700  0.0705  0.2145
  898loPI   C1B14037  10.979  16.016   6.020 -0.3485 -0.0497 -0.0499
  898loPI   C2B14038  10.848  15.763   6.291  0.0667  0.0106  0.1991
  898loPI   C3B14039  10.585  15.652   6.627 -0.0883 -0.2482 -0.2460
  898loPI   C4B14040  10.628  15.594   7.067 -0.0036  0.0672 -0.0872
  899loPI    C114041  18.186  10.085   4.314  0.0015 -0.2179  0.0883
  899loPI    C214042  18.565   9.974   4.379  0.1020  0.0734  0.0124
  899loPI    C314043  18.481  10.243   4.095 -0.1734 -0.0605 -0.0363
  899loPI   PO414044  18.058  10.139   4.510 -0.0071 -0.1731 -0.0767
  899loPI   GL114045  17.983  10.038   4.894 -0.0988  0.2944 -0.2086
  899loPI   GL214046  17.860   9.753   5.095 -0.0648 -0.0829 -0.1585
  899loPI   C1A14047  17.994  10.181   5.323  0.1712 -0.1376  0.1632
  899loPI   C2A14048  17.866  10.230   5.775  0.0062  0.0850 -0.2449
  899loPI   C3A14049  17.764  10.261   6.215 -0.2150 -0.0646 -0.0213
  899loPI   C4A14050  17.685  10.303   6.632  0.0210 -0.0512 -0.0465
  899loPI   C5A14051  17.797  10.364   7.073  0.1467 -0.1103  0.3682
  899loPI   C6A14052  17.832  10.686   7.336 -0.1839 -0.0307  0.1805
  899loPI   C1B14053  17.901   9.777   5.608  0.1708  0.1312 -0.2314
  899loPI   C2B14054  17.955   9.718   6.109 -0.1868 -0.1897  0.1377
  899loPI   C3B14055  17.881   9.877   6.536  0.1187 -0.1380 -0.2033
  899loPI   C4B14056  17.883   9.870   6.969  0.0614  0.1071  0.1439
  900loPI    C114057   2.441   8.539   4.817 -0.1139 -0.1908 -0.0811
  900loPI    C214058   2.770   8.616   4.603 -0.2048 -0.2540 -0.2450
  900loPI    C314059   2.434   8.823   4.536 -0.1229  0.0016  0.1116
  900loPI   PO414060   2.557   8.422   5.043  0.3888 -0.1996 -0.0106
  900loPI   GL114061   2.343   8.553   5.466 -0.0084  0.2769 -0.0586
  900loPI   GL214062   2.368   8.801   5.601  0.2245 -0.0745  0.1185
  900loPI   C1A14063   2.030   8.389   5.667  0.0967 -0.1567 -0.1256
  900loPI   C2A14064   1.886   8.246   6.085  0.2821 -0.0351 -0.1060
  900loPI   C3A14065   1.882   8.242   6.439  0.0477 -0.1837  0.1216
  900loPI   C4A14066   1.788   8.060   6.904 -0.3314 -0.3018 -0.0427
  900loPI   C5A14067   1.946   8.215   7.260  0.2864  0.1198  0.0839
  900loPI   C6A14068   2.123   8.418   7.543  0.0186 -0.3331 -0.0333
  900loPI   C1B14069   2.362   8.877   6.075 -0.0475  0.0206  0.0950
  900loPI   C2B14070   2.303   8.873   6.538  0.0014 -0.0040  0.0683
  900loPI   C3B14071   2.486   8.825   6.897 -0.0503  0.2878 -0.4970
  900loPI   C4B14072   2.310   8.784   7.232 -0.1582  0.3933  0.2305
  901loPI    C114073  14.512   3.242   4.821 -0.1637 -0.0735 -0.1367
  901loPI    C214074  14.647   3.106   4.469  0.0663 -0.1071 -0.0372
  901loPI    C314075  14.263   3.209   4.510  0.0815  0.0899 -0.3553
  901loPI   PO414076  14.722   3.159   4.950  0.0017  0.0592 -0.3029
  901loPI   GL114077  14.868   2.898   5.388  0.1187 -0.1142 -0.0739
  901loPI   GL214078  14.680   2.705   5.543  0.0104 -0.0698  0.2728
  901loPI   C1A14079  15.003   2.920   5.841 -0.0140  0.3717  0.0463
  901loPI   C2A14080  15.155   2.912   6.241  0.1393 -0.1042  0.0208
  901loPI   C3A14081  15.481   3.119   6.396  0.1286 -0.0053  0.0773
  901loPI   C4A14082  15.574   3.201   6.726 -0.0401  0.1415 -0.2433
  901loPI   C5A14083  15.564   3.353   7.115  0.0450  0.1605  0.1765
  901loPI   C6A14084  15.285   3.421   7.395  0.0235  0.1597  0.2963
  901loPI   C1B14085  14.618   2.586   5.925 -0.2517  0.1472  0.0331
  901loPI   C2B14086  14.541   2.670   6.271  0.0679 -0.1245  0.0996
  901loPI   C3B14087  14.725   2.680   6.603 -0.1173  0.5071 -0.2091
  901loPI   C4B14088  14.706   2.794   6.942  0.2630 -0.0083 -0.0222
  902loPI    C114089  15.845  11.143   4.732 -0.0359 -0.1202  0.0010
  902loPI    C214090  15.764  11.526   4.815 -0.0182 -0.1171  0.0038
  902loPI    C314091  15.661  11.371   4.461  0.1006 -0.0713 -0.0513
  902loPI   PO414092  15.833  11.035   4.945 -0.1451  0.1735 -0.0212
  902loPI   GL114093  15.764  11.343   5.251  0.2172 -0.1799 -0.0886
  902loPI   GL214094  15.547  10.954   5.455  0.2561 -0.1249  0.0975
  902loPI   C1A14095  15.733  11.424   5.794  0.0860 -0.1269  0.2059
  902loPI   C2A14096  15.638  11.377   6.298  0.0495 -0.1004  0.1590
  902loPI   C3A14097  15.765  11.229   6.728 -0.1153  0.1195  0.1032
  902loPI   C4A14098  16.034  10.942   6.982  0.3583  0.2133  0.3171
  902loPI   C5A14099  16.366  10.642   7.224 -0.1501 -0.3934  0.2716
  902loPI   C6A14100  16.449  10.573   7.640 -0.3282  0.2830 -0.0660
  902loPI   C1B14101  15.407  11.062   5.796  0.0062  0.1554 -0.1545
  902loPI   C2B14102  15.506  10.872   6.192 -0.3302  0.0415  0.0013
  902loPI   C3B14103  15.341  10.903   6.668 -0.2338 -0.1511 -0.1631
  902loPI   C4B14104  15.508  10.791   7.031 -0.2787  0.0307 -0.0026
  903loPI    C114105  14.665   8.797   4.728 -0.0661 -0.1419  0.0856
  903loPI    C214106  14.393   9.090   4.706  0.1017  0.0228  0.1753
  903loPI    C314107  14.460   8.856   4.389 -0.0485  0.0674  0.1096
  903loPI   PO414108  14.610   8.618   4.986 -0.1901 -0.0386 -0.2555
  903loPI   GL114109  14.847   8.419   5.325  0.2252 -0.0830  0.0529
  903loPI   GL214110  14.549   8.185   5.416  0.3340  0.1575 -0.0066
  903loPI   C1A14111  14.817   8.255   5.801 -0.2323 -0.1315 -0.0526
  903loPI   C2A14112  14.625   8.151   6.137 -0.2550  0.2863 -0.0615
  903loPI   C3A14113  14.368   8.242   6.463  0.0045 -0.2031 -0.0546
  903loPI   C4A14114  14.285   8.359   6.823  0.0207 -0.0053  0.0230
  903loPI   C5A14115  14.235   8.319   7.216 -0.0874 -0.1130  0.0642
  903loPI   C6A14116  14.349   8.141   7.605  0.1712  0.5892  0.3149
  903loPI   C1B14117  14.332   7.884   5.756  0.0001  0.1048 -0.0305
  903loPI   C2B14118  14.156   7.846   6.234  0.0553  0.0029  0.0726
  903loPI   C3B14119  14.090   7.886   6.672  0.0692 -0.1655 -0.0222
  903loPI   C4B14120  14.045   7.881   7.073 -0.1311  0.2684 -0.1007
  904loPI    C114121   7.582  10.674   4.666 -0.1211  0.0495 -0.1479
  904loPI    C214122   7.696  10.956   4.406 -0.2195  0.1608 -0.0715
  904loPI    C314123   7.499  10.632   4.277 -0.1496  0.1501 -0.1528
  904loPI   PO414124   7.697  10.746   4.856 -0.1773  0.1770 -0.0754
  904loPI   GL114125   7.664  10.743   5.371 -0.0986  0.0235  0.1186
  904loPI   GL214126   7.361  10.794   5.380  0.0134  0.0285  0.2352
  904loPI   C1A14127   7.640  10.446   5.682  0.3967 -0.1272 -0.1036
  904loPI   C2A14128   7.564  10.409   5.979 -0.0639 -0.0309 -0.0524
  904loPI   C3A14129   7.544  10.415   6.325  0.0500 -0.2837 -0.1154
  904loPI   C4A14130   7.448  10.390   6.746  0.1246  0.0174  0.0146
  904loPI   C5A14131   7.057  10.385   7.143  0.0760 -0.0177 -0.0667
  904loPI   C6A14132   6.736  10.206   7.495 -0.1814 -0.0840  0.0101
  904loPI   C1B14133   7.513  10.935   5.821 -0.1718 -0.2048 -0.0100
  904loPI   C2B14134   7.622  10.896   6.244 -0.1356  0.1001 -0.0271
  904loPI   C3B14135   7.447  10.887   6.598  0.1225 -0.1424 -0.1754
  904loPI   C4B14136   7.148  10.846   6.835  0.3711  0.3714 -0.1599
  905loPI    C114137   0.672  16.032   4.826 -0.2600 -0.0565  0.0739
  905loPI    C214138   0.944  16.063   4.535 -0.1121  0.2738  0.2421
  905loPI    C314139   0.555  16.076   4.446 -0.0745 -0.0149  0.0203
  905loPI   PO414140   0.831  15.870   4.954 -0.1527  0.0615  0.0593
  905loPI   GL114141   1.116  15.990   5.381 -0.3188  0.1338  0.0746
  905loPI   GL214142   1.342  15.766   5.556 -0.1043 -0.2419 -0.0922
  905loPI   C1A14143   0.981  15.971   5.835 -0.2350 -0.3294 -0.0616
  905loPI   C2A14144   1.042  16.012   6.223 -0.2851  0.1179 -0.2304
  905loPI   C3A14145   1.034  15.907   6.599  0.0320 -0.3200  0.3097
  905loPI   C4A14146   1.172  15.740   6.960 -0.2911  0.0326 -0.0926
  905loPI   C5A14147   1.272  15.903   7.352  0.1546 -0.2496  0.2134
  905loPI   C6A14148   1.512  15.759   7.709  0.1275  0.2056  0.4221
  905loPI   C1B14149   1.410  15.744   5.975 -0.0324  0.0836  0.2281
  905loPI   C2B14150   1.458  15.655   6.389 -0.0305  0.1573  0.0925
  905loPI   C3B14151   1.622  15.548   6.728  0.1941 -0.0857 -0.1497
  905loPI   C4B14152   1.571  15.180   6.875  0.0557 -0.0902 -0.1731
  906loPI    C114153  13.262  14.516   5.205  0.1752 -0.0965 -0.0818
  906loPI    C214154  13.181  14.387   4.835  0.0941 -0.1465 -0.0469
  906loPI    C314155  13.561  14.431   4.953  0.1199  0.0607 -0.2022
  906loPI   PO414156  13.136  14.369   5.397  0.3503 -0.1264  0.0378
  906loPI   GL114157  12.988  14.415   5.809 -0.2089 -0.4072 -0.0697
  906loPI   GL214158  12.760  14.555   5.814 -0.2981 -0.0091  0.0743
  906loPI   C1A14159  12.797  14.198   6.167  0.0478 -0.1956  0.0690
  906loPI   C2A14160  12.782  13.813   6.179 -0.1086  0.1228 -0.0970
  906loPI   C3A14161  12.735  13.496   6.445 -0.0357 -0.1871  0.0068
  906loPI   C4A14162  12.977  13.183   6.711 -0.1117  0.0262 -0.0468
  906loPI   C5A14163  12.815  13.037   7.143  0.1083  0.2321 -0.2304
  906loPI   C6A14164  12.529  13.095   7.537 -0.0936  0.0375 -0.2459
  906loPI   C1B14165  12.948  14.883   6.077  0.1223  0.0930  0.1792
  906loPI   C2B14166  13.099  14.947   6.437 -0.1637 -0.1481  0.0211
  906loPI   C3B14167  13.356  15.148   6.698 -0.0934 -0.5498 -0.2621
  906loPI   C4B14168  13.505  15.221   7.066  0.2405  0.0747 -0.1038
  907loPI    C114169   8.812   0.996   4.583  0.0532 -0.0075  0.1690
  907loPI    C214170   8.518   0.728   4.539  0.1296 -0.0794  0.0947
  907loPI    C314171   8.548   1.035   4.285 -0.0059  0.0456  0.2277
  907loPI   PO414172   8.836   0.964   4.972 -0.1262 -0.1836 -0.0316
  907loPI   GL114173   8.969   1.064   5.359  0.1285  0.2445 -0.4715
  907loPI   GL214174   8.595   1.072   5.407  0.1154  0.0678  0.1595
  907loPI   C1A14175   9.270   0.968   5.723 -0.3438 -0.1927 -0.0260
  907loPI   C2A14176   9.319   1.098   6.105 -0.0753 -0.2413  0.0985
  907loPI   C3A14177   9.347   0.881   6.444  0.0102 -0.0482 -0.0252
  907loPI   C4A14178   9.576   0.733   6.880  0.0622  0.2314 -0.1879
  907loPI   C5A14179   9.877   0.707   7.155 -0.0405  0.2460 -0.2243
  907loPI   C6A14180  10.165   1.001   7.342  0.0329 -0.3881  0.0542
  907loPI   C1B14181   8.434   1.065   5.760 -0.1132  0.2172  0.1698
  907loPI   C2B14182   8.350   1.073   6.258  0.0469 -0.0289  0.1769
  907loPI   C3B14183   8.458   1.258   6.676  0.2971 -0.0994 -0.0558
  907loPI   C4B14184   8.159   1.178   7.004 -0.1824 -0.0535 -0.1600
  908loPI    C114185  10.285   6.124   4.891 -0.4497 -0.1082 -0.0846
  908loPI    C214186  10.497   6.393   5.098 -0.2204 -0.1435 -0.2688
  908loPI    C314187  10.189   6.512   4.873 -0.3053 -0.0733 -0.1171
  908loPI   PO414188  10.322   5.905   5.036 -0.2035  0.0746 -0.0849
  908loPI   GL114189  10.528   5.881   5.530  0.0380  0.0061 -0.0561
  908loPI   GL214190  10.378   6.137   5.489  0.0774  0.1220 -0.0674
  908loPI   C1A14191  10.321   5.785   5.936 -0.0140  0.0122 -0.1228
  908loPI   C2A14192  10.249   5.800   6.388  0.1505  0.1174 -0.3064
  908loPI   C3A14193  10.158   5.990   6.782  0.0973 -0.0553  0.0447
  908loPI   C4A14194  10.136   6.144   7.186  0.0957  0.0249  0.0289
  908loPI   C5A14195  10.406   6.347   7.462  0.1880 -0.0252  0.0663
  908loPI   C6A14196  10.674   6.220   7.753  0.1365  0.1326  0.1143
  908loPI   C1B14197  10.179   6.311   5.839  0.1004  0.1589  0.3041
  908loPI   C2B14198  10.196   6.289   6.241 -0.3230  0.0704  0.0168
  908loPI   C3B14199  10.391   6.427   6.468  0.2521  0.0484 -0.0506
  908loPI   C4B14200  10.401   6.452   6.867 -0.2072  0.0405  0.0288
  909loPI    C114201   7.419  15.586   4.484 -0.0362  0.1536  0.1189
  909loPI    C214202   7.492  15.906   4.254  0.1361  0.0394  0.0127
  909loPI    C314203   7.210  15.643   4.148 -0.0209  0.1661  0.1114
  909loPI   PO414204   7.498  15.628   4.800  0.0812 -0.1941  0.0780
  909loPI   GL114205   7.518  15.732   5.294  0.0299  0.4077 -0.1498
  909loPI   GL214206   7.245  15.558   5.429 -0.1823 -0.3391  0.2803
  909loPI   C1A14207   7.634  15.812   5.683  0.2129 -0.1649  0.0286
  909loPI   C2A14208   7.990  15.919   5.844 -0.1240 -0.2145  0.0124
  909loPI   C3A14209   8.042  15.978   6.355  0.1057  0.0136  0.1259
  909loPI   C4A14210   8.151  15.885   6.779 -0.2127  0.0649  0.0005
  909loPI   C5A14211   8.605  15.999   6.945  0.0004  0.0677  0.2298
  909loPI   C6A14212   8.977  16.167   7.173 -0.1898 -0.0148 -0.3144
  909loPI   C1B14213   7.070  15.846   5.699  0.1484 -0.2798 -0.0010
  909loPI   C2B14214   7.137  15.890   6.191 -0.0704  0.0959  0.0966
  909loPI   C3B14215   7.181  16.082   6.677 -0.0765  0.2849  0.3577
  909loPI   C4B14216   7.350  15.953   7.122  0.1282 -0.1602  0.0359
  910loPI    C114217  11.578   8.542   4.598 -0.0353  0.0169  0.1362
  910loPI    C214218  11.262   8.349   4.446  0.1905 -0.2913  0.0474
  910loPI    C314219  11.526   8.523   4.201  0.0195  0.0893  0.1254
  910loPI   PO414220  11.577   8.441   4.823 -0.0141  0.2399  0.1437
  910loPI   GL114221  11.556   8.695   5.146  0.2315  0.3339  0.1567
  910loPI   GL214222  11.834   8.587   5.176 -0.4721 -0.1385  0.1224
  910loPI   C1A14223  11.434   8.743   5.543  0.1500 -0.1549  0.0585
  910loPI   C2A14224  11.385   8.462   5.854  0.1817 -0.0940  0.1845
  910loPI   C3A14225  11.275   8.325   6.354  0.1113  0.1274  0.0894
  910loPI   C4A14226  11.038   8.240   6.637 -0.2008 -0.1280 -0.0831
  910loPI   C5A14227  10.924   8.397   7.025  0.2338 -0.0896 -0.0140
  910loPI   C6A14228  11.198   8.846   7.063 -0.0413 -0.0675 -0.1794
  910loPI   C1B14229  11.894   8.454   5.579 -0.0031 -0.1347  0.0087
  910loPI   C2B14230  12.048   8.411   5.994  0.1770  0.0961  0.1458
  910loPI   C3B14231  12.030   8.214   6.450  0.2121 -0.1586  0.1013
  910loPI   C4B14232  11.939   8.230   6.919 -0.0559 -0.0504  0.0705
  911loPI    C114233   7.360   0.063   4.642  0.1999 -0.1519  0.0278
  911loPI    C214234   7.500   0.359   4.412  0.2268 -0.0249  0.2052
  911loPI    C314235   7.476  -0.013   4.267  0.3130  0.0395  0.0226
  911loPI   PO414236   7.506  -0.011   4.833 -0.0541  0.0590  0.0184
  911loPI   GL114237   7.465   0.105   5.348  0.0549 -0.1730 -0.2171
  911loPI   GL214238   7.786   0.299   5.341  0.0058 -0.1179  0.3049
  911loPI   C1A14239   7.285   0.023   5.787 -0.0912  0.0961  0.2054
  911loPI   C2A14240   6.936  -0.115   5.894 -0.0674  0.0273 -0.0879
  911loPI   C3A14241   6.773  -0.185   6.226 -0.0717 -0.2004  0.4037
  911loPI   C4A14242   6.800  -0.256   6.639  0.0490  0.1446 -0.2356
  911loPI   C5A14243   6.841  -0.340   7.019  0.2286 -0.1827  0.2112
  911loPI   C6A14244   6.592  -0.516   7.344  0.2859 -0.1719 -0.2524
  911loPI   C1B14245   8.024   0.589   5.589  0.3867 -0.1444  0.3157
  911loPI   C2B14246   8.240   0.605   5.980 -0.1122  0.0513  0.2878
  911loPI   C3B14247   8.336   0.575   6.392 -0.0423  0.1939  0.3049
  911loPI   C4B14248   8.165   0.801   6.628  0.2045 -0.3341  0.0276
  912loPI    C114249   2.302   0.366   4.681  0.1343  0.0927 -0.0711
  912loPI    C214250   2.085   0.243   4.368 -0.0439  0.1202  0.0403
  912loPI    C314251   2.481   0.280   4.334 -0.0385 -0.0701 -0.1222
  912loPI   PO414252   2.146   0.297   4.885  0.1278 -0.1707 -0.1680
  912loPI   GL114253   2.194   0.341   5.297 -0.3288  0.2061 -0.0963
  912loPI   GL214254   2.146   0.646   5.478 -0.0364 -0.1906  0.0729
  912loPI   C1A14255   2.465   0.367   5.698 -0.1772  0.1339 -0.2032
  912loPI   C2A14256   2.701   0.379   6.097  0.1419  0.0299 -0.0748
  912loPI   C3A14257   2.813   0.211   6.447  0.0297 -0.1757 -0.0668
  912loPI   C4A14258   2.839   0.058   6.863  0.1990 -0.2538 -0.1248
  912loPI   C5A14259   2.792   0.091   7.275  0.1198 -0.0718 -0.3662
  912loPI   C6A14260   2.998   0.045   7.644 -0.0160 -0.0377  0.0491
  912loPI   C1B14261   2.032   0.431   5.901  0.5373  0.1187 -0.1250
  912loPI   C2B14262   1.704   0.007   6.009  0.2019 -0.0120 -0.1830
  912loPI   C3B14263   1.900  -0.268   6.476  0.0176  0.0385  0.1315
  912loPI   C4B14264   1.751  -0.213   6.913 -0.1826  0.0855  0.0446
  913loPI    C114265   7.136   9.147   5.070 -0.3793  0.0225  0.2015
  913loPI    C214266   6.962   8.869   4.841 -0.0362  0.0094 -0.0520
  913loPI    C314267   6.908   9.257   4.761 -0.2366  0.0127  0.0916
  913loPI   PO414268   7.120   9.168   5.308  0.0672 -0.0306 -0.1936
  913loPI   GL114269   7.316   9.054   5.680 -0.1401  0.1084 -0.0985
  913loPI   GL214270   7.182   8.702   5.549 -0.0075 -0.1642 -0.0089
  913loPI   C1A14271   7.163   9.349   6.051  0.0285 -0.0891 -0.3123
  913loPI   C2A14272   7.328   9.518   6.435 -0.0783 -0.0276 -0.0107
  913loPI   C3A14273   7.368   9.549   6.882  0.1511  0.0156 -0.2952
  913loPI   C4A14274   7.346   9.527   7.318 -0.0027  0.1104  0.0597
  913loPI   C5A14275   7.525   9.409   7.677  0.0692 -0.1393 -0.1307
  913loPI   C6A14276   7.548   9.142   7.891 -0.0934  0.0393 -0.0530
  913loPI   C1B14277   7.027   8.825   5.975 -0.2428  0.0020  0.1164
  913loPI   C2B14278   7.193   8.851   6.371  0.1109  0.3480  0.1150
  913loPI   C3B14279   7.084   9.148   6.748 -0.2209  0.0277 -0.2717
  913loPI   C4B14280   7.047   9.092   7.106  0.3391 -0.4135  0.1222
  914loPI    C114281   4.308   5.117   4.805  0.0933  0.0115  0.0823
  914loPI    C214282   4.007   5.262   4.584  0.2208  0.0591 -0.0613
  914loPI    C314283   4.324   5.492   4.666  0.2399 -0.0062  0.0505
  914loPI   PO414284   4.235   4.973   4.948  0.1019 -0.0168  0.2070
  914loPI   GL114285   4.029   5.011   5.413 -0.1969 -0.0051 -0.0345
  914loPI   GL214286   3.736   5.005   5.586 -0.1476 -0.0603  0.0848
  914loPI   C1A14287   4.190   4.828   5.748 -0.1480 -0.0323 -0.1956
  914loPI   C2A14288   4.492   4.831   6.091 -0.2268  0.0392 -0.0318
  914loPI   C3A14289   4.514   4.895   6.452 -0.0517 -0.4359 -0.0913
  914loPI   C4A14290   4.497   4.719   6.900 -0.0488  0.0054 -0.1794
  914loPI   C5A14291   4.808   4.603   7.193  0.1355 -0.1500  0.0200
  914loPI   C6A14292   4.909   4.649   7.602  0.1002 -0.0708  0.1407
  914loPI   C1B14293   3.725   5.023   5.980 -0.1217  0.1037 -0.1172
  914loPI   C2B14294   3.519   4.994   6.351 -0.1403  0.4344 -0.1072
  914loPI   C3B14295   3.551   5.229   6.719  0.0963 -0.0332 -0.1786
  914loPI   C4B14296   3.738   5.291   6.977 -0.2058  0.2927 -0.0218
  915loPI    C114297   7.514   7.788   4.318 -0.2294 -0.3000  0.1004
  915loPI    C214298   7.299   8.125   4.338  0.3644  0.0936  0.1100
  915loPI    C314299   7.314   7.917   3.996  0.0152  0.0848  0.0962
  915loPI   PO414300   7.492   7.682   4.620  0.0178 -0.4540 -0.1824
  915loPI   GL114301   7.452   7.692   5.133  0.1760  0.0901 -0.0953
  915loPI   GL214302   7.217   7.745   5.215  0.2126  0.0480 -0.1806
  915loPI   C1A14303   7.573   7.719   5.574 -0.1982 -0.2750 -0.1480
  915loPI   C2A14304   7.449   7.740   6.050 -0.2240 -0.1136  0.2402
  915loPI   C3A14305   7.427   7.967   6.460 -0.0396 -0.2576  0.0334
  915loPI   C4A14306   7.501   8.165   6.787 -0.3209 -0.1701 -0.1671
  915loPI   C5A14307   7.436   8.214   7.195 -0.1490  0.1954  0.0010
  915loPI   C6A14308   7.329   8.219   7.516 -0.0037 -0.1136  0.1539
  915loPI   C1B14309   7.025   7.763   5.616  0.1756  0.2069  0.0825
  915loPI   C2B14310   6.868   7.817   6.041 -0.0150  0.0760  0.0745
  915loPI   C3B14311   6.938   7.855   6.493 -0.0783  0.2793  0.0645
  915loPI   C4B14312   7.051   8.065   6.912 -0.3480  0.2162 -0.2731
  916loPI    C114313  17.412  14.399   4.910  0.0344 -0.0533  0.2148
  916loPI    C214314  17.765  14.223   4.843  0.0257 -0.0379  0.1255
  916loPI    C314315  17.529  14.321   4.535  0.0217  0.1121  0.1754
  916loPI   PO414316  17.318  14.649   4.991  0.1102  0.0561 -0.1713
  916loPI   GL114317  17.168  14.746   5.309 -0.0785 -0.2073 -0.0306
  916loPI   GL214318  17.160  14.419   5.394 -0.1279  0.2791 -0.0837
  916loPI   C1A14319  17.105  14.719   5.750  0.0507 -0.0302 -0.0765
  916loPI   C2A14320  17.148  14.888   6.134 -0.1610  0.1924 -0.0529
  916loPI   C3A14321  17.077  15.026   6.551  0.0286 -0.2753 -0.0724
  916loPI   C4A14322  17.006  15.341   6.967  0.1344  0.1326  0.0072
  916loPI   C5A14323  17.192  15.713   7.133  0.1354 -0.1069 -0.0663
  916loPI   C6A14324  17.517  15.926   7.031  0.0275 -0.1444  0.2815
  916loPI   C1B14325  17.272  14.235   5.760  0.0624  0.0310 -0.0688
  916loPI   C2B14326  17.228  14.380   6.199 -0.1204  0.0072 -0.0669
  916loPI   C3B14327  17.007  14.364   6.530 -0.0042 -0.0242  0.1328
  916loPI   C4B14328  16.895  14.556   6.963 -0.2344  0.2258 -0.1320
  917loPI    C114329   9.054  13.342   4.852 -0.1430 -0.1334 -0.0783
  917loPI    C214330   8.974  12.983   4.695 -0.1073 -0.1861  0.0225
  917loPI    C314331   9.307  13.178   4.589 -0.2582 -0.0615 -0.2354
  917loPI   PO414332   9.102  13.280   5.086 -0.2432  0.2466  0.1378
  917loPI   GL114333   9.163  13.285   5.504 -0.0647 -0.1564  0.0757
  917loPI   GL214334   9.349  13.091   5.507  0.0883  0.0184 -0.3494
  917loPI   C1A14335   9.099  13.124   5.980  0.1257  0.4312 -0.1044
  917loPI   C2A14336   9.146  13.115   6.467 -0.0041 -0.0564  0.4512
  917loPI   C3A14337   9.043  12.964   6.824 -0.1327  0.3003 -0.0116
  917loPI   C4A14338   9.015  13.094   7.261 -0.0341  0.4038 -0.2379
  917loPI   C5A14339   9.186  13.468   7.462  0.2626 -0.0211  0.3562
  917loPI   C6A14340   9.564  13.644   7.678 -0.0570 -0.2645 -0.0157
  917loPI   C1B14341   9.575  12.885   5.880  0.1274  0.0026 -0.0247
  917loPI   C2B14342   9.809  12.901   6.299 -0.2679  0.2246  0.1670
  917loPI   C3B14343  10.010  13.060   6.623  0.1577 -0.0119 -0.0696
  917loPI   C4B14344  10.389  12.752   6.893 -0.0023 -0.0032 -0.0993
  918loPI    C114345   5.343  12.616   4.863  0.0804  0.1676  0.0040
  918loPI    C214346   5.322  12.448   4.501  0.3768  0.0201  0.0527
  918loPI    C314347   5.340  12.218   4.828  0.4564  0.1491  0.1398
  918loPI   PO414348   5.524  12.766   4.891 -0.0581 -0.1870  0.2260
  918loPI   GL114349   5.687  12.920   5.307  0.0519  0.4735  0.1220
  918loPI   GL214350   5.397  12.903   5.468 -0.0068 -0.1672  0.0050
  918loPI   C1A14351   5.865  12.919   5.738  0.0882 -0.0791 -0.0518
  918loPI   C2A14352   5.832  12.688   6.099  0.1880 -0.0636  0.0713
  918loPI   C3A14353   5.993  12.728   6.541 -0.1569 -0.6073  0.1722
  918loPI   C4A14354   6.058  12.946   6.968  0.2872 -0.0691  0.1488
  918loPI   C5A14355   5.690  12.919   7.369  0.1463 -0.0465  0.0351
  918loPI   C6A14356   5.453  12.501   7.460 -0.1227  0.0930  0.0386
  918loPI   C1B14357   5.373  12.952   5.903  0.1110 -0.1385  0.0756
  918loPI   C2B14358   5.448  12.985   6.297 -0.0608 -0.2125 -0.4776
  918loPI   C3B14359   5.599  13.038   6.694  0.2850 -0.5494 -0.1513
  918loPI   C4B14360   5.628  13.340   6.993 -0.0685  0.0057 -0.1742
  919loPI    C114361   2.152  17.311   4.723  0.1084  0.0248  0.1091
  919loPI    C214362   2.067  17.202   4.348  0.0581  0.1204  0.0925
  919loPI    C314363   2.405  17.077   4.521 -0.2117 -0.4438  0.2354
  919loPI   PO414364   1.940  17.225   4.903 -0.1084  0.1081  0.1663
  919loPI   GL114365   1.973  17.187   5.283 -0.2547  0.1981 -0.0479
  919loPI   GL214366   2.294  17.437   5.239 -0.1807 -0.1337 -0.0874
  919loPI   C1A14367   1.871  17.201   5.670 -0.0793 -0.2009 -0.2951
  919loPI   C2A14368   2.043  17.347   6.110 -0.1918 -0.0487  0.0693
  919loPI   C3A14369   2.115  17.440   6.503  0.0577 -0.1217 -0.2911
  919loPI   C4A14370   2.064  17.415   6.943 -0.0198 -0.2231 -0.0153
  919loPI   C5A14371   1.710  17.611   6.979  0.0404 -0.0154  0.1651
  919loPI   C6A14372   1.318  17.695   7.133  0.2713  0.1943  0.0602
  919loPI   C1B14373   2.125  17.601   5.522  0.2422  0.0433 -0.1428
  919loPI   C2B14374   2.310  17.727   5.971 -0.2468  0.0122  0.1629
  919loPI   C3B14375   2.401  18.073   6.256  0.2433  0.1015  0.2563
  919loPI   C4B14376   2.480  18.071   6.598  0.2588 -0.2791  0.0892
  920loPI    C114377   2.991  14.942   4.737  0.1950  0.2711  0.0175
  920loPI    C214378   3.361  14.844   4.854 -0.0331 -0.1087  0.4534
  920loPI    C314379   3.136  14.578   4.656 -0.1012  0.0960  0.2519
  920loPI   PO414380   2.855  15.008   4.957 -0.0520  0.1382  0.1453
  920loPI   GL114381   2.677  14.958   5.292  0.2915  0.1538 -0.4351
  920loPI   GL214382   2.599  15.102   5.534  0.0814 -0.3563  0.3251
  920loPI   C1A14383   2.813  14.668   5.721 -0.1308  0.0574 -0.2163
  920loPI   C2A14384   2.787  14.602   6.054 -0.2749  0.1899  0.4856
  920loPI   C3A14385   2.928  14.579   6.517 -0.0585 -0.2215  0.1526
  920loPI   C4A14386   2.892  14.505   6.967 -0.0805 -0.1730 -0.1312
  920loPI   C5A14387   2.813  14.728   7.342 -0.0384 -0.0007  0.0182
  920loPI   C6A14388   3.165  14.708   7.657  0.2207 -0.1873 -0.0622
  920loPI   C1B14389   2.344  14.866   5.923 -0.1866  0.0501  0.0236
  920loPI   C2B14390   2.181  14.714   6.250  0.0174 -0.2384 -0.2695
  920loPI   C3B14391   2.209  14.429   6.596 -0.0798  0.1452  0.2539
  920loPI   C4B14392   2.438  14.153   6.711  0.1105  0.1661 -0.0491
  921loPI    C114393   8.306  14.661   5.060  0.1460 -0.3285 -0.1537
  921loPI    C214394   8.113  14.940   4.848  0.0019 -0.2576  0.0667
  921loPI    C314395   8.489  15.004   4.968 -0.0542 -0.1277  0.1751
  921loPI   PO414396   8.111  14.470   5.055  0.0749  0.1203  0.2643
  921loPI   GL114397   7.618  14.438   5.253 -0.1751 -0.0595 -0.2010
  921loPI   GL214398   7.637  14.783   5.285  0.0343 -0.3236 -0.3359
  921loPI   C1A14399   7.324  14.459   5.534  0.1913  0.0813  0.1760
  921loPI   C2A14400   7.177  14.767   5.890 -0.1375 -0.1792 -0.1529
  921loPI   C3A14401   6.983  14.970   6.310  0.0112  0.0432 -0.2018
  921loPI   C4A14402   7.025  14.852   6.684  0.1087  0.1304  0.2352
  921loPI   C5A14403   6.978  15.182   7.091 -0.0570  0.1177 -0.1187
  921loPI   C6A14404   6.991  15.546   7.331 -0.0965 -0.0961  0.0799
  921loPI   C1B14405   7.685  14.900   5.755  0.1129  0.1176 -0.2868
  921loPI   C2B14406   7.586  14.977   6.153 -0.0632  0.0257 -0.1635
  921loPI   C3B14407   7.571  14.861   6.564  0.1789  0.1022 -0.0542
  921loPI   C4B14408   7.454  14.819   6.943 -0.0608  0.0218 -0.0358
  922loPI    C114409   2.096  11.461   4.635 -0.0224 -0.0853 -0.2684
  922loPI    C214410   1.736  11.288   4.651 -0.0557 -0.0127 -0.2269
  922loPI    C314411   1.958  11.259   4.319  0.0172 -0.2900 -0.1567
  922loPI   PO414412   2.161  11.381   4.979  0.1029 -0.1603 -0.1677
  922loPI   GL114413   2.182  11.421   5.422  0.0441 -0.0349 -0.2411
  922loPI   GL214414   1.948  11.653   5.638  0.1149 -0.0686 -0.0019
  922loPI   C1A14415   2.020  11.185   5.752  0.4573  0.0789  0.1138
  922loPI   C2A14416   1.934  11.140   6.183 -0.1244 -0.0733  0.0628
  922loPI   C3A14417   1.999  11.312   6.520  0.1237  0.1224 -0.1538
  922loPI   C4A14418   1.906  11.323   6.968 -0.0617 -0.3058 -0.0755
  922loPI   C5A14419   1.495  11.471   7.241  0.1056 -0.1864 -0.2132
  922loPI   C6A14420   1.145  11.732   7.427 -0.1255  0.0822  0.0780
  922loPI   C1B14421   2.197  11.537   6.041 -0.6675 -0.2502 -0.0136
  922loPI   C2B14422   2.188  11.818   6.499  0.2044 -0.0257  0.3352
  922loPI   C3B14423   2.398  12.235   6.777  0.1400  0.0850 -0.1368
  922loPI   C4B14424   2.233  12.609   6.983  0.0219 -0.1108 -0.2274
  923loPI    C114425   4.052  17.387   4.859  0.0020  0.1020 -0.2275
  923loPI    C214426   3.842  17.091   4.691 -0.1414  0.0443  0.0481
  923loPI    C314427   4.179  17.220   4.519  0.0388 -0.4252  0.0352
  923loPI   PO414428   3.961  17.388   5.216  0.0012 -0.2899 -0.2814
  923loPI   GL114429   4.138  17.044   5.498 -0.1240 -0.0995 -0.0036
  923loPI   GL214430   4.223  16.731   5.465 -0.1881  0.0052 -0.1314
  923loPI   C1A14431   4.325  17.174   5.888 -0.0505  0.1352 -0.2703
  923loPI   C2A14432   4.410  17.489   6.139 -0.0255 -0.0793 -0.0763
  923loPI   C3A14433   4.637  17.549   6.556 -0.1915 -0.0440 -0.3478
  923loPI   C4A14434   4.537  17.473   6.995 -0.3280 -0.1070 -0.0483
  923loPI   C5A14435   4.657  17.253   7.415 -0.0536  0.2918  0.1369
  923loPI   C6A14436   4.705  16.757   7.362 -0.2062 -0.2740  0.1443
  923loPI   C1B14437   4.299  16.398   5.769 -0.0810 -0.1883 -0.1752
  923loPI   C2B14438   4.439  16.179   6.202  0.0990  0.1482  0.1066
  923loPI   C3B14439   4.370  15.999   6.622 -0.1437 -0.1790 -0.2120
  923loPI   C4B14440   4.450  15.998   7.047  0.2226 -0.1268 -0.1146
  924loPI    C114441  12.023   1.162   4.939  0.3352  0.2137  0.0741
  924loPI    C214442  12.194   1.150   4.577  0.1754 -0.2755  0.0072
  924loPI    C314443  11.802   1.223   4.611  0.2045 -0.1543  0.0889
  924loPI   PO414444  12.084   1.329   5.081  0.2293 -0.1860  0.2040
  924loPI   GL114445  12.291   1.358   5.410  0.3468 -0.0334 -0.0921
  924loPI   GL214446  12.099   1.410   5.626  0.2125 -0.1126 -0.0494
  924loPI   C1A14447  12.562   1.477   5.677 -0.2930 -0.1129  0.1830
  924loPI   C2A14448  12.632   1.550   6.021  0.2444 -0.2128 -0.1194
  924loPI   C3A14449  12.686   1.737   6.604 -0.0656 -0.1261 -0.2651
  924loPI   C4A14450  12.495   1.950   6.940 -0.0794 -0.1461  0.1666
  924loPI   C5A14451  12.326   1.854   7.275 -0.0028 -0.1356 -0.1034
  924loPI   C6A14452  12.413   1.880   7.729 -0.2853 -0.1089  0.3413
  924loPI   C1B14453  12.090   1.560   6.042  0.0869  0.0328 -0.1203
  924loPI   C2B14454  12.192   1.715   6.439 -0.0590 -0.0650 -0.1083
  924loPI   C3B14455  12.042   1.761   6.836  0.1331 -0.0444  0.0326
  924loPI   C4B14456  11.837   1.758   7.266 -0.2547  0.0349  0.0262
  925loPI    C114457   1.435  18.033   4.981 -0.0384 -0.0921  0.0726
  925loPI    C214458   1.572  18.318   4.736 -0.1569  0.1060  0.2330
  925loPI    C314459   1.493  17.952   4.594  0.0074  0.1483  0.0275
  925loPI   PO414460   1.483  18.026   5.168 -0.0683 -0.3745 -0.1327
  925loPI   GL114461   1.479  17.766   5.469 -0.2229 -0.0388  0.2371
  925loPI   GL214462   1.176  17.878   5.619 -0.0375  0.0517 -0.2196
  925loPI   C1A14463   1.747  17.704   5.883  0.0321 -0.0228 -0.2407
  925loPI   C2A14464   1.942  17.849   6.265 -0.2714  0.0327 -0.0973
  925loPI   C3A14465   2.009  17.881   6.755 -0.1130  0.2872  0.0492
  925loPI   C4A14466   2.001  17.999   7.254  0.2857 -0.3778  0.2086
  925loPI   C5A14467   1.550  18.178   7.360 -0.1173 -0.0973 -0.3200
  925loPI   C6A14468   1.158  18.011   7.569  0.1405  0.0627  0.2266
  925loPI   C1B14469   1.317  17.645   6.042  0.1627 -0.0881  0.0629
  925loPI   C2B14470   1.174  17.376   6.378  0.1678 -0.0107  0.2189
  925loPI   C3B14471   1.117  17.327   6.871 -0.1113 -0.1621  0.2693
  925loPI   C4B14472   0.934  17.164   7.228  0.0477  0.0653  0.0111
  926loPI    C114473   6.578  16.828   4.607 -0.0381  0.1785 -0.1661
  926loPI    C214474   6.261  16.674   4.417  0.0482  0.0949 -0.2436
  926loPI    C314475   6.631  16.567   4.308  0.0964 -0.0900  0.0870
  926loPI   PO414476   6.583  16.811   4.847 -0.0533 -0.0082 -0.0055
  926loPI   GL114477   6.512  16.809   5.206  0.0100 -0.2272 -0.0111
  926loPI   GL214478   6.126  16.725   5.312  0.0353  0.1636  0.0705
  926loPI   C1A14479   6.535  16.647   5.638 -0.2418  0.1389 -0.1138
  926loPI   C2A14480   6.393  16.847   6.113  0.2278  0.0981  0.1880
  926loPI   C3A14481   6.332  16.981   6.459  0.0039  0.0300 -0.4056
  926loPI   C4A14482   6.434  17.027   6.906 -0.2676  0.0861 -0.2390
  926loPI   C5A14483   6.208  17.342   7.241  0.1410  0.1320  0.1457
  926loPI   C6A14484   6.349  17.689   7.416 -0.3355 -0.0753 -0.1019
  926loPI   C1B14485   6.053  16.677   5.701 -0.0889  0.0598  0.1662
  926loPI   C2B14486   5.918  16.687   6.136  0.3205  0.0741  0.0373
  926loPI   C3B14487   5.726  16.844   6.534  0.2322  0.0114  0.0534
  926loPI   C4B14488   5.467  16.803   6.874 -0.0942 -0.0013  0.0545
  927loPI    C114489   1.755  13.240   5.035  0.0655  0.1134 -0.1204
  927loPI    C214490   1.699  12.984   4.733  0.0021  0.0247 -0.0344
  927loPI    C314491   1.451  13.294   4.781 -0.0709 -0.0398  0.0075
  927loPI   PO414492   1.988  13.425   5.045  0.1376 -0.3122  0.0640
  927loPI   GL114493   2.031  13.604   5.452 -0.0399  0.1118 -0.3595
  927loPI   GL214494   1.868  13.353   5.518  0.0850  0.0413 -0.2378
  927loPI   C1A14495   1.942  13.659   5.972 -0.0864  0.0360  0.4234
  927loPI   C2A14496   1.845  13.531   6.357  0.1168  0.0940 -0.0274
  927loPI   C3A14497   1.810  13.271   6.634  0.2607  0.1583 -0.1457
  927loPI   C4A14498   1.852  12.933   6.989 -0.0870 -0.1249 -0.2541
  927loPI   C5A14499   1.847  12.549   7.285  0.0050  0.4230  0.1994
  927loPI   C6A14500   1.780  12.403   7.649 -0.1038  0.1362 -0.0490
  927loPI   C1B14501   1.928  13.139   5.926  0.1623 -0.1551  0.2504
  927loPI   C2B14502   2.073  12.944   6.394  0.1568  0.1123  0.1281
  927loPI   C3B14503   2.295  13.112   6.703 -0.1163  0.1138 -0.1490
  927loPI   C4B14504   2.216  13.284   7.148 -0.2394 -0.1617 -0.1700
  928loPI    C114505   4.464   1.314   4.652 -0.0245 -0.2448  0.0491
  928loPI    C214506   4.497   1.710   4.611 -0.1162 -0.2123  0.2751
  928loPI    C314507   4.557   1.471   4.296  0.1667 -0.0339  0.1897
  928loPI   PO414508   4.647   1.290   4.854 -0.1458 -0.1361 -0.0237
  928loPI   GL114509   4.588   1.326   5.257 -0.1589  0.1341 -0.2149
  928loPI   GL214510   4.587   0.963   5.274  0.3088 -0.1503  0.1322
  928loPI   C1A14511   4.448   1.677   5.472  0.0528  0.0426 -0.2135
  928loPI   C2A14512   4.262   1.892   5.872 -0.2219 -0.1291 -0.0602
  928loPI   C3A14513   4.119   1.893   6.261 -0.3721  0.0831 -0.0755
  928loPI   C4A14514   3.961   1.847   6.518 -0.0257  0.0824  0.5097
  928loPI   C5A14515   3.844   1.751   6.874 -0.0142  0.1150  0.0823
  928loPI   C6A14516   3.977   1.630   7.246  0.1080 -0.2568  0.0848
  928loPI   C1B14517   4.617   0.842   5.671 -0.0107 -0.0389  0.3595
  928loPI   C2B14518   4.654   0.904   6.068  0.0361 -0.1025 -0.2386
  928loPI   C3B14519   4.638   1.113   6.397 -0.1364 -0.0444 -0.0059
  928loPI   C4B14520   4.947   1.084   6.750  0.1132  0.4755  0.2090
  929loPI    C114521  12.653   7.521   4.550  0.0481 -0.0068  0.0118
  929loPI    C214522  12.705   7.162   4.381  0.2133 -0.0508  0.1519
  929loPI    C314523  12.812   7.493   4.184 -0.0035 -0.0718 -0.0059
  929loPI   PO414524  12.618   7.451   4.848 -0.1437 -0.0436 -0.2967
  929loPI   GL114525  12.611   7.504   5.188 -0.1580 -0.5586  0.2587
  929loPI   GL214526  12.657   7.748   5.256 -0.0147 -0.0241  0.1747
  929loPI   C1A14527  12.534   7.313   5.632 -0.0079  0.1036 -0.0173
  929loPI   C2A14528  12.231   7.343   5.980  0.0877 -0.0230  0.1833
  929loPI   C3A14529  12.212   7.374   6.484 -0.1813  0.1971 -0.1745
  929loPI   C4A14530  12.261   7.258   6.965 -0.2427  0.0210  0.1302
  929loPI   C5A14531  12.018   7.131   7.322  0.1828  0.2672 -0.0863
  929loPI   C6A14532  11.901   6.793   7.617  0.3687 -0.3197  0.0801
  929loPI   C1B14533  12.613   7.898   5.693  0.0469  0.0592  0.1171
  929loPI   C2B14534  12.663   7.780   6.002 -0.0889 -0.2591  0.0553
  929loPI   C3B14535  12.769   7.437   6.320  0.0021 -0.2098  0.3495
  929loPI   C4B14536  12.740   7.296   6.762  0.0250  0.2508 -0.0857
  930loPI    C114537  10.980  16.669   4.587  0.4015 -0.1181 -0.0503
  930loPI    C214538  10.845  16.866   4.265  0.0185  0.0219  0.1891
  930loPI    C314539  11.092  16.554   4.220 -0.2019 -0.0968 -0.2530
  930loPI   PO414540  10.947  16.899   4.783 -0.1535 -0.0527 -0.1959
  930loPI   GL114541  11.082  16.931   5.270  0.0836 -0.2122 -0.0879
  930loPI   GL214542  11.291  16.979   5.340 -0.0542 -0.0629  0.0175
  930loPI   C1A14543  10.665  17.007   5.483 -0.1525 -0.0978 -0.1086
  930loPI   C2A14544  10.442  16.814   5.820  0.2281  0.1943  0.0362
  930loPI   C3A14545  10.461  16.683   6.195 -0.3106  0.0693 -0.2740
  930loPI   C4A14546  10.545  16.775   6.586  0.0756 -0.0747  0.1915
  930loPI   C5A14547  10.447  16.605   6.910  0.1262  0.0379  0.0882
  930loPI   C6A14548  10.313  16.716   7.279  0.1173  0.0310 -0.1037
  930loPI   C1B14549  11.158  16.979   5.787  0.1780  0.1285  0.0157
  930loPI   C2B14550  10.941  16.941   6.263  0.0398  0.0356  0.3386
  930loPI   C3B14551  11.000  16.891   6.698  0.0235 -0.0840  0.5092
  930loPI   C4B14552  10.935  16.529   6.913 -0.1706  0.0071  0.2712
  931loPI    C114553  17.850   4.411   4.491  0.0622 -0.1073  0.0968
  931loPI    C214554  18.147   4.530   4.731  0.0323  0.1870 -0.0081
  931loPI    C314555  18.212   4.243   4.460  0.1328  0.0272  0.1821
  931loPI   PO414556  17.620   4.437   4.635  0.3773  0.3168  0.1423
  931loPI   GL114557  17.589   4.544   4.986 -0.1440 -0.0002 -0.1087
  931loPI   GL214558  17.379   4.764   4.897 -0.0947 -0.1165  0.0690
  931loPI   C1A14559  17.560   4.368   5.413 -0.0075 -0.1311 -0.3107
  931loPI   C2A14560  17.774   4.297   5.866  0.0734 -0.2810 -0.1817
  931loPI   C3A14561  18.021   4.471   6.256 -0.0337  0.3001 -0.0095
  931loPI   C4A14562  17.795   4.452   6.602 -0.6105 -0.1277  0.2596
  931loPI   C5A14563  17.757   4.708   6.951  0.0686  0.2695  0.0205
  931loPI   C6A14564  17.743   5.097   7.186  0.2666 -0.0169 -0.1260
  931loPI   C1B14565  17.636   5.073   5.048  0.2094 -0.2034 -0.1455
  931loPI   C2B14566  17.662   5.216   5.375 -0.3174 -0.1558 -0.0674
  931loPI   C3B14567  17.560   5.369   5.746 -0.1163 -0.0329 -0.0060
  931loPI   C4B14568  17.393   5.327   6.272 -0.1050  0.1788 -0.2311
  932loPI    C114569   7.403  13.846   4.550  0.0685  0.0796  0.0442
  932loPI    C214570   7.362  14.242   4.584 -0.4256  0.0314  0.0774
  932loPI    C314571   7.392  14.075   4.222  0.1610  0.1252  0.0725
  932loPI   PO414572   7.318  13.714   4.836 -0.2028 -0.0953 -0.0416
  932loPI   GL114573   7.416  13.642   5.271  0.2002  0.1065 -0.1536
  932loPI   GL214574   7.710  13.710   5.254 -0.2285 -0.1235 -0.1399
  932loPI   C1A14575   7.146  13.750   5.477  0.3449  0.2624 -0.4137
  932loPI   C2A14576   6.860  13.804   5.843  0.0055  0.2311 -0.1628
  932loPI   C3A14577   6.616  13.977   6.192  0.1278 -0.1493 -0.0466
  932loPI   C4A14578   6.697  13.862   6.697  0.2398 -0.1922  0.1243
  932loPI   C5A14579   6.609  13.757   7.123 -0.0036  0.0821 -0.3559
  932loPI   C6A14580   6.479  13.757   7.584  0.0646 -0.0493 -0.1859
  932loPI   C1B14581   7.853  13.622   5.665  0.1993  0.3956  0.0504
  932loPI   C2B14582   8.046  13.711   5.862  0.1131  0.2084 -0.2250
  932loPI   C3B14583   8.159  13.900   6.360  0.2844 -0.2017  0.3525
  932loPI   C4B14584   7.968  13.806   6.754  0.2660 -0.1047 -0.1479
  933loPI    C114585   6.042   3.031   4.591 -0.2257 -0.3079 -0.2793
  933loPI    C214586   5.669   2.959   4.466 -0.2404 -0.1371 -0.3358
  933loPI    C314587   5.870   3.275   4.325 -0.0773 -0.2234 -0.2990
  933loPI   PO414588   5.980   2.978   4.936 -0.0756 -0.1975 -0.2702
  933loPI   GL114589   6.151   3.057   5.406  0.1989  0.2428 -0.1006
  933loPI   GL214590   5.860   3.321   5.295  0.1474 -0.2065  0.1312
  933loPI   C1A14591   6.101   3.280   5.763 -0.0432 -0.1788 -0.2742
  933loPI   C2A14592   6.182   3.155   6.247  0.2680 -0.0057  0.0254
  933loPI   C3A14593   6.191   3.091   6.687  0.1418  0.1863 -0.0707
  933loPI   C4A14594   6.109   3.047   7.073  0.2379  0.1588  0.1671
  933loPI   C5A14595   5.880   2.950   7.399  0.0435  0.1893 -0.2124
  933loPI   C6A14596   5.553   3.055   7.687 -0.2460  0.1551 -0.3187
  933loPI   C1B14597   5.640   3.467   5.685 -0.2264  0.0499  0.0062
  933loPI   C2B14598   5.577   3.423   6.003  0.3017  0.1092  0.1782
  933loPI   C3B14599   5.577   3.608   6.398  0.0269 -0.0730 -0.0051
  933loPI   C4B14600   5.501   3.654   6.838 -0.0547 -0.1005  0.0773
  934loPI    C114601   8.627   9.590   5.158  0.2168  0.2669 -0.0206
  934loPI    C214602   8.448   9.249   5.052  0.1825  0.2426  0.1139
  934loPI    C314603   8.729   9.408   4.817  0.2659  0.0720  0.0965
  934loPI   PO414604   8.379   9.664   5.297 -0.0119  0.0413 -0.2215
  934loPI   GL114605   8.345   9.718   5.691 -0.2969 -0.0418 -0.1532
  934loPI   GL214606   8.573  10.021   5.785  0.0429  0.2507  0.0203
  934loPI   C1A14607   8.234   9.645   6.090  0.1358 -0.1528  0.0244
  934loPI   C2A14608   8.287   9.761   6.508  0.0623 -0.0890  0.1190
  934loPI   C3A14609   8.426   9.696   6.977  0.1726  0.4068  0.1523
  934loPI   C4A14610   8.646   9.918   7.256 -0.1188  0.0429 -0.1244
  934loPI   C5A14611   8.888  10.279   7.267  0.2144 -0.3429 -0.1562
  934loPI   C6A14612   8.841  10.634   7.445  0.2622  0.1113  0.1733
  934loPI   C1B14613   8.688   9.891   6.222 -0.2207 -0.0685  0.0160
  934loPI   C2B14614   8.788   9.941   6.633  0.0246 -0.0636 -0.2300
  934loPI   C3B14615   9.223  10.075   6.851  0.0721  0.0019  0.0595
  934loPI   C4B14616   9.355  10.479   6.859  0.0962  0.5480 -0.0235
  935loPI    C114617  13.055  13.513   4.975 -0.0115 -0.0498 -0.0169
  935loPI    C214618  13.255  13.393   4.650  0.0926  0.2606 -0.0711
  935loPI    C314619  12.917  13.207   4.757  0.2350 -0.0589 -0.1636
  935loPI   PO414620  13.207  13.618   5.138  0.1564  0.0873  0.3055
  935loPI   GL114621  13.251  13.403   5.519  0.0321 -0.1256  0.2879
  935loPI   GL214622  13.587  13.415   5.479  0.0763  0.0693  0.0989
  935loPI   C1A14623  13.304  13.495   5.932  0.0017  0.0139 -0.1310
  935loPI   C2A14624  13.340  13.456   6.314 -0.1392 -0.1264  0.3682
  935loPI   C3A14625  13.495  13.158   6.659 -0.0043 -0.2453 -0.0213
  935loPI   C4A14626  13.862  13.021   6.871 -0.2441 -0.3338 -0.1751
  935loPI   C5A14627  14.201  12.706   6.648 -0.5483  0.0017 -0.1125
  935loPI   C6A14628  14.329  12.700   6.207  0.2024 -0.0705  0.0265
  935loPI   C1B14629  13.746  13.290   5.864  0.0266  0.0247  0.1802
  935loPI   C2B14630  13.856  13.344   6.289 -0.0317  0.0892 -0.1249
  935loPI   C3B14631  14.049  13.523   6.629 -0.0483 -0.1486  0.2950
  935loPI   C4B14632  14.174  13.755   6.930 -0.1034 -0.1603  0.1957
  936loPI    C114633   1.073  13.547   4.602  0.0881  0.3255  0.0046
  936loPI    C214634   0.750  13.768   4.518 -0.1587 -0.1317 -0.2982
  936loPI    C314635   1.107  13.869   4.367 -0.1695  0.3238 -0.0378
  936loPI   PO414636   1.016  13.469   4.908  0.0509  0.3361  0.0947
  936loPI   GL114637   0.972  13.733   5.313  0.1064 -0.0174 -0.1820
  936loPI   GL214638   0.923  13.344   5.467 -0.2421 -0.0702 -0.1343
  936loPI   C1A14639   1.084  13.721   5.748 -0.0628 -0.1718  0.0147
  936loPI   C2A14640   1.361  13.680   5.960 -0.0750 -0.0781  0.1896
  936loPI   C3A14641   1.488  13.854   6.219 -0.2995 -0.0755  0.4080
  936loPI   C4A14642   1.482  13.871   6.604 -0.2077 -0.0886  0.0818
  936loPI   C5A14643   1.579  13.684   7.073  0.1415 -0.2420  0.0631
  936loPI   C6A14644   1.561  13.261   7.272  0.1998 -0.1770 -0.0217
  936loPI   C1B14645   1.060  13.180   5.807 -0.1036 -0.3734 -0.1624
  936loPI   C2B14646   1.327  13.262   6.243 -0.2232 -0.1487  0.0165
  936loPI   C3B14647   1.304  12.993   6.582 -0.0448 -0.0111  0.3529
  936loPI   C4B14648   1.360  12.839   6.996 -0.1334 -0.0641  0.4795
  937loPI    C114649  15.980  18.289   4.682 -0.0163  0.1356  0.1016
  937loPI    C214650  16.312  18.082   4.602 -0.1627 -0.1217  0.1482
  937loPI    C314651  16.083  18.216   4.303 -0.0063  0.0787  0.1153
  937loPI   PO414652  15.967  18.220   4.921  0.0139  0.2359 -0.2663
  937loPI   GL114653  15.596  18.022   5.253 -0.0232  0.4226  0.0620
  937loPI   GL214654  15.613  17.772   5.401  0.1522 -0.2155 -0.1172
  937loPI   C1A14655  15.510  18.213   5.583  0.1091 -0.0525  0.1972
  937loPI   C2A14656  15.576  18.210   5.948 -0.0515  0.2021 -0.1769
  937loPI   C3A14657  15.855  18.197   6.369  0.0076 -0.2923 -0.0284
  937loPI   C4A14658  15.926  18.053   6.841 -0.1706 -0.0429  0.1879
  937loPI   C5A14659  16.001  18.012   7.346 -0.3394 -0.3448 -0.1040
  937loPI   C6A14660  15.967  17.819   7.752 -0.1392 -0.0456  0.1042
  937loPI   C1B14661  15.829  17.847   5.684 -0.2526 -0.2258  0.0393
  937loPI   C2B14662  15.764  17.765   6.132  0.0071 -0.0159 -0.0464
  937loPI   C3B14663  15.686  17.664   6.580  0.1965 -0.1410 -0.0281
  937loPI   C4B14664  15.757  17.639   7.076  0.6847  0.0129 -0.3869
  938loPI    C114665   2.661  17.550   4.620  0.0202  0.0467 -0.1157
  938loPI    C214666   2.384  17.584   4.334 -0.0398 -0.0162 -0.0655
  938loPI    C314667   2.747  17.441   4.245 -0.0444  0.0048 -0.1183
  938loPI   PO414668   2.635  17.408   4.885 -0.0733  0.2461 -0.0923
  938loPI   GL114669   2.697  17.144   5.230 -0.1836 -0.1743 -0.2221
  938loPI   GL214670   2.722  16.850   5.315 -0.1350 -0.2611  0.0048
  938loPI   C1A14671   2.342  17.002   5.629 -0.0703 -0.1517  0.1921
  938loPI   C2A14672   2.208  16.782   6.027 -0.1043 -0.1612  0.0549
  938loPI   C3A14673   2.077  16.910   6.440  0.0276  0.0034  0.2901
  938loPI   C4A14674   2.038  16.881   6.918 -0.2647  0.0840 -0.2758
  938loPI   C5A14675   2.036  16.974   7.288  0.0744  0.3770  0.3192
  938loPI   C6A14676   1.880  17.393   7.402 -0.0243  0.0765 -0.0278
  938loPI   C1B14677   2.796  16.818   5.771  0.0231  0.0903 -0.3227
  938loPI   C2B14678   2.942  16.849   6.187  0.1582  0.1362  0.1769
  938loPI   C3B14679   2.934  16.905   6.716 -0.3537  0.0570  0.0569
  938loPI   C4B14680   3.059  16.830   7.167 -0.0921  0.1482 -0.4104
  939loPI    C114681   8.896   2.908   5.318 -0.2853 -0.2544  0.3137
  939loPI    C214682   8.870   3.021   4.935  0.1215 -0.1695  0.3063
  939loPI    C314683   8.742   2.659   5.046 -0.0058 -0.1917  0.0927
  939loPI   PO414684   9.238   2.959   5.364 -0.0385  0.1407 -0.0692
  939loPI   GL114685   9.490   2.842   5.698  0.0427 -0.0625  0.0132
  939loPI   GL214686   9.657   2.636   5.918  0.3947  0.0685 -0.2621
  939loPI   C1A14687   9.505   3.140   5.997 -0.3916  0.1526 -0.1210
  939loPI   C2A14688   9.469   3.106   6.455  0.1238  0.0744 -0.0676
  939loPI   C3A14689   9.448   3.071   6.818  0.3513 -0.0110 -0.0698
  939loPI   C4A14690   9.260   2.978   7.174 -0.0353  0.1596 -0.0588
  939loPI   C5A14691   9.161   2.933   7.583 -0.0794  0.1016 -0.1591
  939loPI   C6A14692   8.825   2.859   7.723  0.1049  0.0439  0.0061
  939loPI   C1B14693   9.783   2.460   6.298 -0.1871  0.0877  0.0416
  939loPI   C2B14694   9.678   2.139   6.632 -0.1810 -0.3573 -0.0621
  939loPI   C3B14695   9.604   2.080   7.172  0.2482 -0.0696  0.0961
  939loPI   C4B14696   9.673   2.203   7.546 -0.1286 -0.2020  0.1228
  940loPI    C114697   1.460   4.810   4.338 -0.1968  0.4308  0.1383
  940loPI    C214698   1.065   4.777   4.285 -0.1294 -0.2199 -0.0530
  940loPI    C314699   1.284   4.989   4.026 -0.3033 -0.1744 -0.1650
  940loPI   PO414700   1.454   4.866   4.668  0.0088 -0.3166 -0.0909
  940loPI   GL114701   1.237   5.235   4.879 -0.3113  0.0895 -0.4496
  940loPI   GL214702   1.107   5.302   4.563  0.1464  0.0653 -0.1797
  940loPI   C1A14703   1.068   5.448   5.165 -0.1097 -0.1879  0.0342
  940loPI   C2A14704   1.198   5.449   5.683  0.0973  0.1670 -0.0551
  940loPI   C3A14705   1.212   5.346   6.097  0.0808 -0.1270 -0.0922
  940loPI   C4A14706   1.286   5.384   6.470 -0.0262  0.1474  0.2510
  940loPI   C5A14707   1.134   5.269   6.934 -0.2045  0.1531 -0.0555
  940loPI   C6A14708   1.006   5.371   7.341 -0.2072 -0.3281  0.0882
  940loPI   C1B14709   0.788   5.285   4.767  0.0638 -0.1272 -0.1646
  940loPI   C2B14710   0.670   5.046   5.096  0.0138  0.2139 -0.1522
  940loPI   C3B14711   0.383   5.043   5.394  0.1527 -0.3613  0.0199
  940loPI   C4B14712   0.216   5.166   5.792  0.2829  0.0402  0.2881
  941loPI    C114713   5.395   9.856   4.576  0.0773 -0.0749  0.1124
  941loPI    C214714   5.082  10.032   4.400  0.1957  0.0432  0.0181
  941loPI    C314715   5.390  10.253   4.529  0.2753 -0.0796  0.0402
  941loPI   PO414716   5.310   9.731   4.777  0.3102  0.0251 -0.1792
  941loPI   GL114717   5.197   9.680   5.223 -0.1748  0.3818  0.0398
  941loPI   GL214718   5.104   9.363   5.435  0.0074  0.0248  0.0717
  941loPI   C1A14719   5.302   9.823   5.641 -0.0251 -0.2322 -0.1243
  941loPI   C2A14720   5.223  10.030   6.061  0.2221  0.0300 -0.0534
  941loPI   C3A14721   5.130  10.101   6.474 -0.1468  0.0642  0.0738
  941loPI   C4A14722   5.041  10.101   6.935 -0.1254 -0.1625  0.3461
  941loPI   C5A14723   5.214  10.482   7.370 -0.0673 -0.3586  0.0640
  941loPI   C6A14724   5.727  10.656   7.287 -0.2650  0.1550 -0.0954
  941loPI   C1B14725   4.932   9.137   5.754 -0.1240 -0.3139 -0.1236
  941loPI   C2B14726   5.105   9.195   6.203  0.0381 -0.2172  0.0796
  941loPI   C3B14727   5.326   9.250   6.558 -0.0008 -0.4426 -0.1233
  941loPI   C4B14728   5.364   9.218   6.996  0.1558 -0.0051  0.3448
  942loPI    C114729  18.613   3.857   4.256  0.1072 -0.0446 -0.2041
  942loPI    C214730  18.425   4.070   3.974 -0.1775 -0.1662 -0.1101
  942loPI    C314731  18.710   3.810   3.871 -0.0467  0.0310 -0.2532
  942loPI   PO414732  18.327   3.747   4.375 -0.2172  0.0923 -0.1210
  942loPI   GL114733  18.129   3.876   4.771  0.0047 -0.1399 -0.0502
  942loPI   GL214734  17.782   4.000   4.857 -0.2594 -0.0483  0.0550
  942loPI   C1A14735  18.329   3.877   5.146  0.0362  0.0938  0.0696
  942loPI   C2A14736  18.619   3.770   5.421 -0.1063  0.1037 -0.0550
  942loPI   C3A14737  18.851   3.737   5.737 -0.0027  0.2556  0.1391
  942loPI   C4A14738  18.834   3.741   6.159 -0.2193 -0.3124  0.2271
  942loPI   C5A14739  18.714   3.832   6.557 -0.0079  0.0442  0.0106
  942loPI   C6A14740  18.535   4.030   7.019 -0.0373  0.0831 -0.1301
  942loPI   C1B14741  17.930   4.217   5.155  0.1097 -0.3672  0.0960
  942loPI   C2B14742  18.179   4.222   5.457 -0.4563  0.0617  0.0120
  942loPI   C3B14743  18.324   4.219   5.829 -0.2040  0.1783  0.2056
  942loPI   C4B14744  18.493   4.136   6.233  0.1640 -0.0597  0.1796
  943loPI    C114745   0.731  13.016   5.006 -0.1158 -0.1555 -0.1108
  943loPI    C214746   0.920  12.885   5.333  0.2393 -0.0156 -0.2544
  943loPI    C314747   0.743  12.625   5.087  0.0262 -0.1270  0.0113
  943loPI   PO414748   0.599  13.248   5.131 -0.1789 -0.0979 -0.0914
  943loPI   GL114749   0.395  13.522   5.415  0.1975 -0.2679 -0.2056
  943loPI   GL214750   0.173  13.412   5.200  0.1041  0.1057 -0.2233
  943loPI   C1A14751   0.643  13.478   5.808  0.3067  0.1724 -0.0079
  943loPI   C2A14752   0.792  13.430   6.174  0.0325 -0.1989  0.1957
  943loPI   C3A14753   0.821  13.153   6.581 -0.3118 -0.0642 -0.0968
  943loPI   C4A14754   0.897  12.919   6.869 -0.3160 -0.2373 -0.3536
  943loPI   C5A14755   1.007  12.605   7.273  0.1063 -0.4448 -0.0164
  943loPI   C6A14756   0.804  12.164   7.383  0.0262 -0.1471 -0.1311
  943loPI   C1B14757  -0.134  13.192   5.533  0.0253  0.0479 -0.2284
  943loPI   C2B14758  -0.292  13.050   5.780  0.2168 -0.0295 -0.1212
  943loPI   C3B14759  -0.453  12.843   6.159 -0.1348  0.0397 -0.4642
  943loPI   C4B14760  -0.489  12.765   6.588  0.0547  0.1339  0.3223
  944loPI    C114761   2.073  11.931   4.921  0.1585 -0.0629  0.0781
  944loPI    C214762   1.722  11.956   4.732  0.1367 -0.2417  0.0936
  944loPI    C314763   2.054  12.091   4.554  0.0953 -0.2835 -0.0161
  944loPI   PO414764   2.022  11.937   5.221 -0.2275  0.0512  0.1067
  944loPI   GL114765   2.190  12.191   5.633  0.0528 -0.0341  0.3665
  944loPI   GL214766   2.382  11.905   5.654 -0.1668 -0.0304 -0.2065
  944loPI   C1A14767   1.914  12.009   5.957 -0.2534 -0.2972  0.2864
  944loPI   C2A14768   1.776  11.706   6.200 -0.0287  0.1210  0.0282
  944loPI   C3A14769   1.697  11.682   6.588 -0.2646  0.0491 -0.0255
  944loPI   C4A14770   1.602  11.834   6.953  0.1136  0.0608  0.1780
  944loPI   C5A14771   1.679  12.006   7.319 -0.0712  0.1784 -0.1133
  944loPI   C6A14772   1.634  11.898   7.814  0.2465  0.0573 -0.1638
  944loPI   C1B14773   2.409  12.018   6.097  0.3037 -0.4068 -0.1605
  944loPI   C2B14774   2.671  12.231   6.277 -0.1361  0.0575 -0.1292
  944loPI   C3B14775   2.514  12.638   6.506  0.2563  0.3291  0.1136
  944loPI   C4B14776   2.698  12.892   6.958  0.2610  0.0584  0.2050
  945loPI    C114777   5.171   4.333   4.773  0.0927 -0.1939 -0.1318
  945loPI    C214778   5.323   4.533   4.462 -0.0682 -0.1934 -0.2111
  945loPI    C314779   5.439   4.158   4.534  0.2297 -0.0765 -0.0658
  945loPI   PO414780   5.222   4.610   4.971  0.1679  0.0366 -0.3647
  945loPI   GL114781   5.058   4.499   5.429  0.0886 -0.2546 -0.0138
  945loPI   GL214782   5.153   4.237   5.289  0.0584 -0.0665  0.0060
  945loPI   C1A14783   5.369   4.509   5.809  0.1893  0.2168  0.2177
  945loPI   C2A14784   5.425   4.829   6.163 -0.2616 -0.0778 -0.1981
  945loPI   C3A14785   5.537   4.960   6.583 -0.0375 -0.0822  0.0465
  945loPI   C4A14786   5.742   4.953   6.904 -0.1747  0.1987  0.0195
  945loPI   C5A14787   5.837   5.094   7.343 -0.1324 -0.0821 -0.2204
  945loPI   C6A14788   5.923   5.377   7.719  0.0583  0.0949 -0.1167
  945loPI   C1B14789   5.092   4.057   5.622  0.1586  0.1310 -0.1092
  945loPI   C2B14790   4.963   4.005   6.073 -0.1259 -0.1497 -0.1400
  945loPI   C3B14791   4.721   3.888   6.446 -0.0243  0.0504  0.3355
  945loPI   C4B14792   4.991   3.698   6.704 -0.0822  0.2007  0.2788
  946loPI    C114793  16.681   8.721   4.548 -0.0110  0.2887  0.2359
  946loPI    C214794  16.282   8.711   4.565 -0.0296  0.0704 -0.1834
  946loPI    C314795  16.465   8.802   4.221  0.2826 -0.2238 -0.1005
  946loPI   PO414796  16.737   8.788   4.841 -0.0762 -0.0646 -0.2522
  946loPI   GL114797  16.770   9.053   5.214 -0.0315  0.1282 -0.0761
  946loPI   GL214798  17.099   9.250   5.314  0.0102 -0.0473  0.1884
  946loPI   C1A14799  16.868   8.825   5.566 -0.1606 -0.3828  0.1460
  946loPI   C2A14800  16.955   8.987   5.973 -0.3212  0.0060  0.0746
  946loPI   C3A14801  16.740   8.910   6.328 -0.0574 -0.3973 -0.1403
  946loPI   C4A14802  16.513   8.722   6.675  0.0861  0.1475 -0.1686
  946loPI   C5A14803  16.340   8.373   6.938  0.0012  0.0677 -0.0149
  946loPI   C6A14804  16.467   8.344   7.405  0.2805  0.1139  0.1618
  946loPI   C1B14805  16.827   9.337   5.642  0.0301  0.4251  0.0042
  946loPI   C2B14806  16.634   9.413   6.052  0.0315 -0.0324  0.2111
  946loPI   C3B14807  16.620   9.565   6.506  0.1900  0.0504  0.0244
  946loPI   C4B14808  16.679   9.919   6.711  0.4735  0.1377 -0.0884
  947loPI    C114809  10.646   6.500   4.668 -0.0066 -0.2181 -0.0137
  947loPI    C214810  10.751   6.555   4.285 -0.1531  0.1811 -0.0001
  947loPI    C314811  10.618   6.198   4.406  0.1297 -0.0186 -0.2634
  947loPI   PO414812  10.839   6.637   4.815  0.4049  0.3303 -0.2849
  947loPI   GL114813  10.941   6.682   5.208  0.0868  0.2525  0.0298
  947loPI   GL214814  10.773   6.793   5.335 -0.0380  0.0814 -0.2902
  947loPI   C1A14815  11.129   6.580   5.666 -0.2427 -0.0901 -0.0532
  947loPI   C2A14816  11.233   6.769   6.075 -0.1964 -0.1847 -0.1541
  947loPI   C3A14817  11.055   6.814   6.533  0.4260 -0.1463 -0.0837
  947loPI   C4A14818  10.764   6.781   6.903 -0.1833  0.1184  0.0689
  947loPI   C5A14819  10.472   6.978   7.213  0.1463 -0.1479 -0.2898
  947loPI   C6A14820  10.024   7.163   7.222 -0.0609 -0.0624 -0.0414
  947loPI   C1B14821  10.635   6.651   5.749 -0.1842 -0.0645  0.4167
  947loPI   C2B14822  10.769   6.588   6.067  0.1599 -0.2126  0.2998
  947loPI   C3B14823  11.059   6.324   6.278  0.2185  0.1375 -0.0269
  947loPI   C4B14824  10.874   6.361   6.710 -0.0728 -0.2583  0.1401
  948loPI    C114825  17.339   7.628   4.952  0.1840  0.0868  0.2620
  948loPI    C214826  17.703   7.761   5.054  0.1807  0.3323 -0.0290
  948loPI    C314827  17.550   7.852   4.696 -0.0847  0.0577  0.0095
  948loPI   PO414828  17.381   7.322   4.987 -0.1199 -0.2807 -0.0202
  948loPI   GL114829  17.243   6.877   5.171 -0.1188  0.0316 -0.1620
  948loPI   GL214830  17.344   6.642   5.253 -0.0078 -0.1543 -0.0162
  948loPI   C1A14831  17.175   7.036   5.615 -0.3199 -0.1176  0.0212
  948loPI   C2A14832  17.301   7.288   5.905 -0.5497 -0.2663 -0.0514
  948loPI   C3A14833  17.597   7.287   6.155  0.1134  0.0459  0.1751
  948loPI   C4A14834  17.647   7.261   6.535 -0.0398 -0.0390  0.0174
  948loPI   C5A14835  17.523   7.318   6.897 -0.2998  0.0027  0.0271
  948loPI   C6A14836  17.287   7.506   7.340  0.1556 -0.1741  0.0930
  948loPI   C1B14837  17.467   6.613   5.634  0.1842 -0.4961  0.0373
  948loPI   C2B14838  17.442   6.710   6.032  0.0913  0.2129  0.3116
  948loPI   C3B14839  17.294   6.935   6.292 -0.1048  0.2313  0.1550
  948loPI   C4B14840  17.158   7.333   6.413 -0.0214  0.0371 -0.0607
  949loPI    C114841  18.492  11.197   4.766  0.1884 -0.0571 -0.0448
  949loPI    C214842  18.128  11.329   4.866  0.1676 -0.2036  0.0749
  949loPI    C314843  18.186  11.149   4.514  0.1674 -0.0007 -0.0302
  949loPI   PO414844  18.605  11.312   5.062 -0.3612 -0.0382  0.0653
  949loPI   GL114845  18.861  11.339   5.440 -0.1911  0.1708 -0.5229
  949loPI   GL214846  19.046  11.120   5.292  0.0567 -0.1164  0.2570
  949loPI   C1A14847  18.637  11.379   5.731  0.0385 -0.0850  0.3435
  949loPI   C2A14848  18.358  11.491   5.925  0.0805  0.1416  0.1216
  949loPI   C3A14849  18.051  11.570   6.178 -0.0615  0.1655  0.0200
  949loPI   C4A14850  17.734  11.617   6.351 -0.0202  0.1193  0.1593
  949loPI   C5A14851  17.547  11.717   6.677  0.0609  0.2588  0.2217
  949loPI   C6A14852  17.503  11.541   7.112  0.0045 -0.0023  0.1828
  949loPI   C1B14853  19.238  10.857   5.687 -0.1143 -0.0449  0.0218
  949loPI   C2B14854  19.181  10.478   6.051 -0.1643  0.0313 -0.1629
  949loPI   C3B14855  19.231  10.612   6.560  0.0154 -0.1622 -0.1119
  949loPI   C4B14856  19.288  10.412   6.972 -0.2355  0.0124 -0.2895
  950loPI    C114857   7.575  11.192   5.126  0.1118 -0.3125  0.1617
  950loPI    C214858   7.807  11.263   4.808 -0.0043  0.0530  0.1546
  950loPI    C314859   7.413  11.208   4.761 -0.0182  0.0847  0.2323
  950loPI   PO414860   7.635  11.367   5.319  0.1942  0.1800 -0.0273
  950loPI   GL114861   7.479  11.498   5.651 -0.0933 -0.3378  0.0078
  950loPI   GL214862   7.447  11.840   5.499  0.1365  0.1461  0.1895
  950loPI   C1A14863   7.418  11.413   6.094  0.4220  0.2422 -0.0954
  950loPI   C2A14864   7.246  11.396   6.508 -0.0652 -0.0185  0.0649
  950loPI   C3A14865   7.384  11.527   6.966  0.3031 -0.0730 -0.0637
  950loPI   C4A14866   7.615  11.599   7.387  0.4826 -0.0977 -0.1731
  950loPI   C5A14867   7.767  11.321   7.714 -0.0947  0.0549  0.3755
  950loPI   C6A14868   7.656  11.104   8.100 -0.0259 -0.0863  0.0766
  950loPI   C1B14869   7.687  11.872   5.881 -0.6216 -0.2438 -0.0225
  950loPI   C2B14870   7.627  11.772   6.319  0.0516 -0.1148 -0.0907
  950loPI   C3B14871   7.676  11.806   6.673  0.4143 -0.2218  0.0854
  950loPI   C4B14872   7.800  11.948   7.068  0.1201 -0.0141  0.3542
  951loPI    C114873   9.299  17.671   4.561 -0.2412  0.3265  0.0555
  951loPI    C214874   9.267  18.055   4.455 -0.1232  0.2500 -0.2668
  951loPI    C314875   9.568  17.833   4.314 -0.1665  0.0489 -0.0482
  951loPI   PO414876   9.337  17.643   4.855  0.3250  0.0489 -0.1623
  951loPI   GL114877   9.260  17.475   5.187  0.1641  0.0389 -0.5117
  951loPI   GL214878   9.000  17.280   5.217  0.0801  0.0438  0.1250
  951loPI   C1A14879   9.288  17.497   5.617  0.1419 -0.3711  0.0592
  951loPI   C2A14880   9.321  17.286   6.040  0.1136  0.2889  0.0985
  951loPI   C3A14881   9.272  17.203   6.601  0.2194  0.1689  0.2390
  951loPI   C4A14882   9.354  17.199   6.993 -0.3969 -0.0881 -0.4136
  951loPI   C5A14883   9.586  17.187   7.450  0.3237  0.0060  0.0189
  951loPI   C6A14884   9.460  17.421   7.916 -0.1850 -0.0973  0.4119
  951loPI   C1B14885   8.881  17.119   5.667  0.0838  0.1201 -0.0923
  951loPI   C2B14886   8.804  17.028   6.058  0.0470 -0.0725  0.2430
  951loPI   C3B14887   8.701  17.116   6.479  0.1116 -0.3050  0.2971
  951loPI   C4B14888   8.799  17.087   6.929 -0.1328  0.1604 -0.0031
  952loPI    C114889  16.864  16.406   5.012 -0.0011  0.1148 -0.2090
  952loPI    C214890  17.033  16.549   4.679  0.1913 -0.0340 -0.1768
  952loPI    C314891  16.963  16.156   4.716  0.0152  0.0027 -0.1101
  952loPI   PO414892  17.104  16.620   5.174  0.2070 -0.1983  0.4610
  952loPI   GL114893  17.189  16.763   5.519 -0.1524 -0.0328  0.1494
  952loPI   GL214894  17.365  16.381   5.513  0.1961 -0.0534 -0.1543
  952loPI   C1A14895  17.345  16.689   5.894  0.1462 -0.3665 -0.0714
  952loPI   C2A14896  17.384  16.593   6.388 -0.0723  0.0473 -0.4190
  952loPI   C3A14897  17.433  16.631   6.777 -0.3380  0.1431  0.2327
  952loPI   C4A14898  17.441  16.996   6.987  0.1732  0.3134 -0.0721
  952loPI   C5A14899  17.649  17.298   7.082  0.0629 -0.0336 -0.1417
  952loPI   C6A14900  17.624  17.596   7.429 -0.0246  0.3920 -0.1148
  952loPI   C1B14901  17.320  16.160   5.889  0.1880  0.1252  0.0938
  952loPI   C2B14902  17.154  15.983   6.254 -0.3533 -0.0103  0.1919
  952loPI   C3B14903  16.810  15.654   6.496 -0.0507  0.0223 -0.0804
  952loPI   C4B14904  16.518  15.357   6.319  0.1657 -0.0127 -0.1788
  953loPI    C114905  11.201   0.671   5.230  0.0934  0.0959  0.0289
  953loPI    C214906  11.069   0.884   4.919  0.3517  0.3395  0.0818
  953loPI    C314907  11.262   0.539   4.858 -0.1637  0.0543 -0.0008
  953loPI   PO414908  11.294   0.845   5.357  0.0267 -0.1378 -0.3226
  953loPI   GL114909  11.289   1.157   5.677  0.0239 -0.2891  0.1015
  953loPI   GL214910  11.407   0.979   5.838 -0.2277  0.0382 -0.1147
  953loPI   C1A14911  11.106   1.433   5.995 -0.0980  0.0024 -0.0699
  953loPI   C2A14912  11.099   1.424   6.486 -0.1167 -0.0494  0.0566
  953loPI   C3A14913  11.024   1.539   6.930  0.0431 -0.1557 -0.2886
  953loPI   C4A14914  10.937   1.462   7.259 -0.0925 -0.0872 -0.1892
  953loPI   C5A14915  10.739   1.477   7.673 -0.1355 -0.2697 -0.0576
  953loPI   C6A14916  10.485   1.162   7.838  0.1637 -0.1269 -0.1589
  953loPI   C1B14917  11.411   1.023   6.207  0.1996  0.0946 -0.2120
  953loPI   C2B14918  11.433   1.032   6.586  0.0435  0.0894  0.0184
  953loPI   C3B14919  11.319   1.144   6.887  0.1908 -0.1357  0.0942
  953loPI   C4B14920  11.396   1.229   7.241  0.0172 -0.1598 -0.0610
  954loPI    C114921  12.309  10.225   4.769 -0.1321 -0.1611 -0.0111
  954loPI    C214922  12.187  10.345   4.408  0.0555 -0.2358 -0.1009
  954loPI    C314923  11.972  10.436   4.732  0.0519  0.1070 -0.1958
  954loPI   PO414924  12.627  10.374   4.806  0.2015 -0.0295 -0.0848
  954loPI   GL114925  12.800  10.260   5.163  0.5277 -0.0480 -0.1462
  954loPI   GL214926  12.556  10.145   5.255  0.1098  0.0210 -0.1555
  954loPI   C1A14927  12.963  10.153   5.516 -0.2315  0.3461 -0.0331
  954loPI   C2A14928  12.802  10.060   5.935 -0.2410 -0.0076  0.0977
  954loPI   C3A14929  12.920  10.003   6.291  0.2921  0.0939  0.0140
  954loPI   C4A14930  12.838   9.892   6.689 -0.1100 -0.2399 -0.1990
  954loPI   C5A14931  12.691   9.950   7.123  0.1942 -0.0623  0.0144
  954loPI   C6A14932  12.535  10.078   7.483  0.0889 -0.1730  0.1448
  954loPI   C1B14933  12.378   9.827   5.611  0.2515 -0.4713  0.5049
  954loPI   C2B14934  12.170   9.824   6.026  0.3831 -0.2637  0.2557
  954loPI   C3B14935  12.015   9.797   6.501 -0.2947 -0.1128  0.2274
  954loPI   C4B14936  11.780   9.959   6.858  0.3208  0.1367  0.2633
  955loPI    C114937   7.693   4.177   4.716  0.1305  0.5300 -0.1410
  955loPI    C214938   8.035   4.008   4.598 -0.0377  0.1311 -0.0737
  955loPI    C314939   7.782   4.157   4.326  0.0728  0.2009 -0.1396
  955loPI   PO414940   7.679   3.968   4.997 -0.1577  0.0852 -0.0389
  955loPI   GL114941   7.635   4.095   5.403  0.1867 -0.2993 -0.0659
  955loPI   GL214942   7.649   4.012   5.695 -0.1183 -0.0203 -0.0499
  955loPI   C1A14943   7.197   4.190   5.569  0.1502 -0.2322 -0.3758
  955loPI   C2A14944   6.982   4.345   6.001 -0.3012 -0.3004 -0.1074
  955loPI   C3A14945   6.785   4.357   6.345 -0.1034  0.2286 -0.2621
  955loPI   C4A14946   6.757   4.306   6.835  0.1545  0.1946 -0.0026
  955loPI   C5A14947   6.839   4.285   7.336  0.0154 -0.1646 -0.0792
  955loPI   C6A14948   6.527   4.295   7.693 -0.0629 -0.1906  0.0904
  955loPI   C1B14949   7.812   4.122   6.045 -0.3345 -0.0110 -0.0605
  955loPI   C2B14950   8.162   4.105   6.286 -0.1796  0.1390 -0.1491
  955loPI   C3B14951   8.211   3.890   6.575  0.1420 -0.1244  0.0021
  955loPI   C4B14952   8.208   3.827   6.977  0.0308 -0.1841  0.1470
  956loPI    C114953   8.233  17.243   4.815 -0.0192 -0.0563 -0.1020
  956loPI    C214954   7.971  17.388   5.081  0.0235  0.0124 -0.0971
  956loPI    C314955   8.009  17.561   4.722  0.1340  0.0652 -0.0605
  956loPI   PO414956   8.510  17.232   4.996  0.1821 -0.1226  0.1865
  956loPI   GL114957   8.612  17.028   5.273 -0.0436  0.1072  0.2678
  956loPI   GL214958   8.261  16.990   5.377  0.1413 -0.6283  0.3327
  956loPI   C1A14959   8.648  16.671   5.631  0.0618 -0.0828 -0.3898
  956loPI   C2A14960   8.529  16.613   5.992 -0.0021  0.0083  0.1549
  956loPI   C3A14961   8.598  16.574   6.465 -0.0918 -0.2288  0.0507
  956loPI   C4A14962   8.714  16.485   6.958  0.1645  0.0186 -0.1850
  956loPI   C5A14963   8.828  16.593   7.375  0.0463  0.0306 -0.2466
  956loPI   C6A14964   8.970  16.474   7.731  0.1209 -0.1641  0.1158
  956loPI   C1B14965   8.139  16.948   5.811 -0.0828 -0.0067 -0.2764
  956loPI   C2B14966   8.182  16.919   6.304  0.3564 -0.1006  0.0297
  956loPI   C3B14967   8.272  16.876   6.731  0.3597  0.1626 -0.0117
  956loPI   C4B14968   8.304  16.761   7.081 -0.0773 -0.1438  0.1353
  957loPI    C114969   0.844   4.178   4.256 -0.2956  0.0046 -0.1930
  957loPI    C214970   0.847   4.447   3.960 -0.1081  0.1536 -0.0589
  957loPI    C314971   1.192   4.299   4.099 -0.2052 -0.0761 -0.0577
  957loPI   PO414972   0.714   4.316   4.485  0.2482  0.3896 -0.0360
  957loPI   GL114973   0.458   4.393   4.815  0.2379  0.0409 -0.0314
  957loPI   GL214974   0.361   4.643   4.987  0.0222 -0.1806  0.0446
  957loPI   C1A14975   0.380   4.221   5.142 -0.2181 -0.0269 -0.2581
  957loPI   C2A14976   0.696   4.125   5.399 -0.1754 -0.0571  0.0367
  957loPI   C3A14977   0.684   3.985   5.848  0.2826  0.0154  0.0115
  957loPI   C4A14978   0.688   4.023   6.252  0.0925  0.0110 -0.1703
  957loPI   C5A14979   0.606   3.840   6.631 -0.0742 -0.0280 -0.2721
  957loPI   C6A14980   0.845   3.512   6.705 -0.0348  0.1357  0.3204
  957loPI   C1B14981   0.627   4.619   5.340 -0.0894  0.1579  0.0677
  957loPI   C2B14982   0.575   4.754   5.777  0.0233 -0.1023 -0.2814
  957loPI   C3B14983   0.563   4.915   6.107 -0.0924  0.4439  0.4065
  957loPI   C4B14984   0.323   5.175   6.264  0.4270 -0.1501  0.0163
  958loPI    C114985   2.222   3.026   4.279  0.2144 -0.1251  0.0610
  958loPI    C214986   2.520   2.761   4.247  0.1296 -0.1991 -0.1354
  958loPI    C314987   2.527   3.098   4.031  0.2705 -0.0056  0.1636
  958loPI   PO414988   2.215   3.022   4.584  0.1443  0.0122 -0.0447
  958loPI   GL114989   2.302   2.772   5.011 -0.0392 -0.3004  0.1786
  958loPI   GL214990   1.974   2.627   4.917  0.1392  0.0186  0.2592
  958loPI   C1A14991   2.309   3.065   5.369 -0.2397 -0.0221 -0.0931
  958loPI   C2A14992   2.255   3.291   5.693  0.1762 -0.0003 -0.0782
  958loPI   C3A14993   2.039   3.394   6.003 -0.0205  0.1398 -0.2682
  958loPI   C4A14994   1.753   3.266   6.405 -0.3489  0.1541 -0.1242
  958loPI   C5A14995   1.615   3.224   6.712  0.0595 -0.0974 -0.2715
  958loPI   C6A14996   1.252   3.311   6.858  0.0444  0.0536 -0.1292
  958loPI   C1B14997   1.899   2.698   5.368  0.1471 -0.0035 -0.1389
  958loPI   C2B14998   2.045   2.835   5.733 -0.2307  0.3146  0.2361
  958loPI   C3B14999   1.848   2.760   6.146 -0.1919 -0.2414  0.0735
  958loPI   C4B15000   1.911   2.586   6.549 -0.1272 -0.0883 -0.2175
  959loPI    C115001   4.022  17.848   5.005  0.2440  0.1951  0.0955
  959loPI    C215002   4.077  18.143   4.740 -0.2293  0.0889 -0.1313
  959loPI    C315003   3.864  17.820   4.638 -0.0391 -0.1606  0.2390
  959loPI   PO415004   3.935  17.963   5.294 -0.0816  0.1063  0.0022
  959loPI   GL115005   3.778  17.793   5.653  0.2088  0.2888  0.0871
  959loPI   GL215006   4.089  17.622   5.673  0.0078  0.1482  0.2422
  959loPI   C1A15007   3.819  17.906   6.029  0.1198 -0.2627  0.4302
  959loPI   C2A15008   4.036  17.757   6.386  0.2725  0.1448  0.0660
  959loPI   C3A15009   4.145  17.686   6.745 -0.3119 -0.4172  0.4223
  959loPI   C4A15010   3.979  17.681   7.029 -0.1209  0.5713  0.2313
  959loPI   C5A15011   3.871  17.729   7.423  0.0495  0.1496 -0.0557
  959loPI   C6A15012   3.717  17.759   7.858  0.0909  0.2024 -0.1982
  959loPI   C1B15013   3.910  17.392   5.991  0.1273 -0.0882  0.2051
  959loPI   C2B15014   3.949  17.286   6.371 -0.0238 -0.1408  0.3935
  959loPI   C3B15015   3.967  17.217   6.867  0.0976  0.2653 -0.1799
  959loPI   C4B15016   4.093  17.270   7.251 -0.1703  0.2273 -0.2825
  960loPI    C115017   1.967  10.187   4.936 -0.0389 -0.1693  0.0728
  960loPI    C215018   1.821   9.906   4.692  0.0179 -0.0455 -0.1059
  960loPI    C315019   1.757  10.292   4.612 -0.0105 -0.0049  0.1069
  960loPI   PO415020   1.910  10.187   5.173  0.1503  0.1231 -0.0186
  960loPI   GL115021   1.974  10.289   5.566  0.0185 -0.1491  0.3236
  960loPI   GL215022   2.060  10.650   5.631  0.0950 -0.0090 -0.1985
  960loPI   C1A15023   2.005  10.256   6.025 -0.0850 -0.0869  0.1005
  960loPI   C2A15024   2.206  10.298   6.405  0.2706 -0.0522 -0.3171
  960loPI   C3A15025   2.198  10.356   6.868  0.0373 -0.1343  0.0647
  960loPI   C4A15026   2.211  10.203   7.283  0.3346 -0.1769 -0.0817
  960loPI   C5A15027   2.373   9.821   7.597 -0.1593 -0.0796 -0.0553
  960loPI   C6A15028   2.123   9.468   7.816 -0.3709  0.2193  0.1132
  960loPI   C1B15029   2.342  10.870   5.908  0.0492 -0.1244 -0.1481
  960loPI   C2B15030   2.643  10.682   6.076  0.1277 -0.4705 -0.1248
  960loPI   C3B15031   2.718  10.396   6.386  0.2157  0.3028  0.0736
  960loPI   C4B15032   2.673  10.231   6.719 -0.3276  0.2015  0.0500
  961loPI    C115033   4.647  17.404   4.731 -0.2405 -0.0433 -0.0805
  961loPI    C215034   4.367  17.680   4.655  0.0056  0.2472  0.0417
  961loPI    C315035   4.591  17.533   4.357 -0.0463  0.2662 -0.0068
  961loPI   PO415036   4.556  17.247   4.942  0.1634  0.2621 -0.1112
  961loPI   GL115037   4.668  17.108   5.408  0.0519  0.2689  0.0769
  961loPI   GL215038   4.854  17.297   5.604 -0.0206  0.1403  0.0263
  961loPI   C1A15039   4.661  16.819   5.744 -0.0585 -0.2519  0.0656
  961loPI   C2A15040   4.538  16.720   6.129  0.4049 -0.1473 -0.2801
  961loPI   C3A15041   4.633  16.546   6.512 -0.0863 -0.0791  0.2715
  961loPI   C4A15042   4.536  16.441   6.831  0.1583  0.3392  0.0005
  961loPI   C5A15043   4.312  16.475   7.290  0.0926  0.0128  0.2791
  961loPI   C6A15044   3.985  16.342   7.626 -0.1894 -0.1605 -0.2435
  961loPI   C1B15045   4.816  17.215   6.049  0.1533 -0.1607 -0.0148
  961loPI   C2B15046   4.636  17.090   6.401 -0.0971  0.2949  0.1478
  961loPI   C3B15047   4.399  16.999   6.643  0.1316  0.0136  0.0397
  961loPI   C4B15048   4.335  16.894   6.989 -0.2367  0.1608 -0.4796
  962loPI    C115049  18.376  10.703   4.825 -0.0058  0.1390  0.1230
  962loPI    C215050  18.322  10.331   4.960 -0.0315  0.1288  0.0848
  962loPI    C315051  18.505  10.392   4.610 -0.2402  0.1410 -0.0241
  962loPI   PO415052  18.244  10.818   4.919  0.1386  0.2298  0.3385
  962loPI   GL115053  17.942  10.718   5.181 -0.0011 -0.1446 -0.0706
  962loPI   GL215054  17.996  11.053   5.283 -0.1183  0.1217  0.1355
  962loPI   C1A15055  17.787  10.625   5.512 -0.0695 -0.2545  0.1304
  962loPI   C2A15056  17.750  10.717   5.970 -0.3318  0.2077  0.3626
  962loPI   C3A15057  17.842  10.803   6.448  0.1019  0.3900 -0.1218
  962loPI   C4A15058  17.813  10.830   6.888  0.1271  0.3234 -0.0159
  962loPI   C5A15059  17.834  11.151   7.203  0.1629  0.1706 -0.0514
  962loPI   C6A15060  17.977  11.103   7.586  0.0403 -0.1088 -0.2029
  962loPI   C1B15061  18.199  10.872   5.710 -0.1628  0.0222 -0.0029
  962loPI   C2B15062  18.180  11.084   6.131  0.0208  0.0464 -0.1081
  962loPI   C3B15063  18.082  11.223   6.588 -0.1623 -0.1016 -0.2555
  962loPI   C4B15064  17.981  11.502   6.895  0.2883  0.4455 -0.0473
  963loPI    C115065   3.904   0.858   4.820 -0.2026 -0.0448  0.2188
  963loPI    C215066   4.063   0.516   4.686  0.0140  0.0711  0.1767
  963loPI    C315067   4.026   0.829   4.440 -0.2335  0.0620  0.2005
  963loPI   PO415068   4.109   0.726   5.122 -0.1776  0.1855  0.0712
  963loPI   GL115069   4.079   0.917   5.423  0.2219  0.1520  0.0833
  963loPI   GL215070   3.773   1.114   5.285  0.0799 -0.1326 -0.4125
  963loPI   C1A15071   4.101   0.974   5.789  0.3504  0.0884  0.2077
  963loPI   C2A15072   4.144   0.903   6.118  0.2991  0.0617 -0.0987
  963loPI   C3A15073   4.066   0.868   6.615 -0.1324 -0.1309  0.0693
  963loPI   C4A15074   4.161   0.920   7.019 -0.0028  0.0227 -0.3372
  963loPI   C5A15075   4.493   1.287   6.931  0.1597  0.2796  0.0636
  963loPI   C6A15076   4.756   1.658   7.103 -0.0956 -0.1787 -0.0881
  963loPI   C1B15077   3.637   0.871   5.567  0.2487 -0.4699 -0.2036
  963loPI   C2B15078   3.517   1.007   6.009 -0.0579  0.1809  0.0477
  963loPI   C3B15079   3.206   1.194   6.174 -0.1793  0.0994  0.3942
  963loPI   C4B15080   2.821   1.268   6.079  0.2668 -0.2178  0.2338
  964loPI    C115081   9.037  14.179   4.839 -0.1092  0.0355  0.2125
  964loPI    C215082   9.212  14.524   4.738 -0.0392 -0.0002  0.2107
  964loPI    C315083   9.098  14.266   4.454  0.0586 -0.0522  0.2182
  964loPI   PO415084   9.026  14.202   5.134 -0.0201 -0.0442 -0.1263
  964loPI   GL115085   9.175  13.799   5.447  0.0383 -0.1058  0.3384
  964loPI   GL215086   8.791  13.937   5.473 -0.3292 -0.2593  0.0125
  964loPI   C1A15087   9.136  13.596   5.856  0.1319 -0.1861 -0.0093
  964loPI   C2A15088   9.142  13.772   6.232 -0.1102  0.1129 -0.2266
  964loPI   C3A15089   8.998  13.582   6.523  0.0367  0.1701  0.1256
  964loPI   C4A15090   8.944  13.461   6.913  0.0004  0.1748 -0.2607
  964loPI   C5A15091   8.636  13.419   7.309 -0.0108 -0.2940 -0.1321
  964loPI   C6A15092   8.517  13.010   7.356 -0.1045  0.1517  0.0589
  964loPI   C1B15093   8.922  14.083   5.938  0.0152 -0.0814  0.0598
  964loPI   C2B15094   9.049  14.270   6.336 -0.0312 -0.1617  0.3059
  964loPI   C3B15095   9.139  14.327   6.788 -0.3128  0.0183 -0.0028
  964loPI   C4B15096   9.515  14.203   7.010  0.1585  0.0463 -0.2892
  965loPI    C115097  11.178   6.342   4.485  0.2856 -0.1060 -0.2262
  965loPI    C215098  11.308   6.545   4.166  0.4846 -0.0503 -0.1119
  965loPI    C315099  11.123   6.194   4.118  0.2185  0.1124 -0.3056
  965loPI   PO415100  11.307   6.266   4.657 -0.0489  0.1094  0.1203
  965loPI   GL115101  11.290   6.241   5.093  0.1061  0.1185 -0.1281
  965loPI   GL215102  11.513   6.403   5.331  0.1773 -0.1301 -0.0305
  965loPI   C1A15103  10.948   6.234   5.396 -0.0688 -0.0262  0.2927
  965loPI   C2A15104  10.876   6.140   5.793  0.2148 -0.1725 -0.0820
  965loPI   C3A15105  10.643   6.080   6.105 -0.2326  0.1244 -0.0669
  965loPI   C4A15106  10.692   5.982   6.490 -0.0268 -0.0532  0.1338
  965loPI   C5A15107  11.109   5.971   6.591  0.2388  0.2967  0.1394
  965loPI   C6A15108  11.493   6.113   6.519 -0.0388 -0.1387  0.2074
  965loPI   C1B15109  11.606   6.516   5.747 -0.1846 -0.2247 -0.1427
  965loPI   C2B15110  11.597   6.492   6.176  0.1113  0.2322 -0.1898
  965loPI   C3B15111  11.514   6.670   6.621 -0.1678  0.2471 -0.0665
  965loPI   C4B15112  11.219   6.555   6.993  0.0779  0.0907  0.1277
  966loPI    C115113   0.912   2.965   4.538  0.0216  0.2132 -0.0701
  966loPI    C215114   1.035   2.592   4.610 -0.0257  0.1666 -0.2275
  966loPI    C315115   0.654   2.693   4.677  0.0384  0.2461  0.0263
  966loPI   PO415116   0.925   3.224   4.647  0.2541 -0.0466  0.0828
  966loPI   GL115117   0.681   3.223   4.955 -0.5259 -0.2362  0.1863
  966loPI   GL215118   0.362   3.096   5.132 -0.0109  0.0001 -0.0073
  966loPI   C1A15119   0.910   3.203   5.390 -0.1325  0.0762  0.0196
  966loPI   C2A15120   1.015   3.357   5.783  0.4286  0.2171 -0.1060
  966loPI   C3A15121   1.414   3.532   5.803 -0.0099  0.1124  0.1860
  966loPI   C4A15122   1.593   3.640   6.159 -0.0028 -0.2912 -0.2798
  966loPI   C5A15123   1.475   3.736   6.632 -0.0529 -0.3182 -0.2204
  966loPI   C6A15124   1.576   3.521   7.106  0.0586 -0.2075 -0.0417
  966loPI   C1B15125   0.409   3.231   5.540  0.1282  0.2474  0.3443
  966loPI   C2B15126   0.133   3.380   5.759 -0.3024  0.1997  0.0241
  966loPI   C3B15127   0.088   3.434   6.057  0.4091  0.4376  0.1500
  966loPI   C4B15128  -0.083   3.466   6.578 -0.0568 -0.0310 -0.0836
  967loPI    C115129   0.251  13.086   4.821  0.2640  0.0317 -0.0677
  967loPI    C215130   0.478  12.982   4.508 -0.1128 -0.0988 -0.3045
  967loPI    C315131   0.472  13.362   4.634  0.2594 -0.1008 -0.2716
  967loPI   PO415132   0.058  12.965   4.823 -0.2010  0.1411 -0.3413
  967loPI   GL115133  -0.069  12.814   5.242 -0.1404  0.0606  0.2075
  967loPI   GL215134   0.288  12.903   5.324 -0.1932  0.0361  0.0284
  967loPI   C1A15135  -0.055  12.644   5.625  0.2662  0.0255  0.3623
  967loPI   C2A15136   0.048  12.744   6.009  0.0435 -0.2805  0.1048
  967loPI   C3A15137  -0.041  12.615   6.367 -0.0409 -0.0404 -0.3049
  967loPI   C4A15138  -0.090  12.428   6.729  0.3107  0.0548 -0.1572
  967loPI   C5A15139  -0.165  11.948   6.864  0.1831  0.2937 -0.1066
  967loPI   C6A15140  -0.382  11.827   7.179 -0.1617  0.3707 -0.0530
  967loPI   C1B15141   0.326  13.090   5.692  0.0506 -0.4635  0.0069
  967loPI   C2B15142   0.305  13.225   6.145  0.0987 -0.1840  0.0314
  967loPI   C3B15143   0.203  13.431   6.492  0.0424 -0.0832 -0.1271
  967loPI   C4B15144   0.208  13.405   6.977 -0.2534 -0.1363  0.3406
  968loPI    C115145  18.745  15.475   4.622  0.0954  0.0737 -0.0409
  968loPI    C215146  18.490  15.720   4.435  0.0940  0.0413 -0.0815
  968loPI    C315147  18.857  15.662   4.287  0.1031  0.0385 -0.0580
  968loPI   PO415148  18.837  15.514   4.867  0.2864 -0.2230 -0.2164
  968loPI   GL115149  19.098  15.547   5.247  0.1895 -0.0250  0.3249
  968loPI   GL215150  18.938  15.818   5.266 -0.1185 -0.0604 -0.0304
  968loPI   C1A15151  19.004  15.282   5.648 -0.2030  0.0998  0.2115
  968loPI   C2A15152  19.063  15.230   6.153  0.1315  0.1391 -0.1051
  968loPI   C3A15153  19.028  15.274   6.617  0.1193  0.5285 -0.2206
  968loPI   C4A15154  19.144  15.306   7.048  0.2466  0.0880  0.1197
  968loPI   C5A15155  19.441  15.733   7.235  0.2089 -0.1309 -0.1727
  968loPI   C6A15156  19.663  16.115   7.565  0.0965  0.2943  0.0454
  968loPI   C1B15157  19.123  15.823   5.652  0.1917  0.0327 -0.1803
  968loPI   C2B15158  19.132  15.710   6.066 -0.0868 -0.1293 -0.0522
  968loPI   C3B15159  19.189  15.796   6.409  0.0235  0.1447 -0.1462
  968loPI   C4B15160  19.238  15.715   6.756  0.3513  0.0505  0.0810
  969loPI    C115161   8.047   9.520   4.846  0.0482 -0.1399  0.0537
  969loPI    C215162   7.883   9.339   4.529  0.0834 -0.0396 -0.0221
  969loPI    C315163   8.280   9.334   4.579  0.0723 -0.1199  0.0607
  969loPI   PO415164   7.803   9.393   5.039 -0.0777  0.0175  0.3718
  969loPI   GL115165   7.611   9.387   5.446 -0.1425  0.1938  0.1621
  969loPI   GL215166   7.894   9.613   5.544 -0.0215  0.2945 -0.1310
  969loPI   C1A15167   7.894   9.212   5.788 -0.1044  0.1560 -0.1350
  969loPI   C2A15168   7.630   9.101   6.169  0.1443  0.1345  0.3467
  969loPI   C3A15169   7.635   9.064   6.583 -0.1074  0.1172  0.1791
  969loPI   C4A15170   7.762   9.063   7.019  0.2609  0.4017  0.2492
  969loPI   C5A15171   7.882   9.059   7.430 -0.0027  0.1380 -0.0586
  969loPI   C6A15172   8.025   9.314   7.859  0.1351 -0.0585 -0.2137
  969loPI   C1B15173   7.715   9.599   6.014 -0.5307  0.0247 -0.0310
  969loPI   C2B15174   7.835   9.518   6.421 -0.0145 -0.0291 -0.2894
  969loPI   C3B15175   7.844   9.546   6.929 -0.1641 -0.0310 -0.1366
  969loPI   C4B15176   7.840   9.574   7.352 -0.0639 -0.0030 -0.0553
  970loPI    C115177  15.693  19.034   4.981 -0.0987 -0.0058  0.1929
  970loPI    C215178  15.431  18.876   4.723  0.0693  0.0199  0.0042
  970loPI    C315179  15.822  18.800   4.683  0.0949  0.0035  0.2682
  970loPI   PO415180  15.684  18.957   5.219 -0.1255 -0.2098 -0.2051
  970loPI   GL115181  15.568  18.900   5.636  0.1822  0.1240 -0.1427
  970loPI   GL215182  15.671  19.209   5.652  0.0958 -0.2629  0.1370
  970loPI   C1A15183  15.731  18.670   6.028 -0.1999  0.0957 -0.0005
  970loPI   C2A15184  15.758  18.749   6.432  0.0149  0.1128  0.0260
  970loPI   C3A15185  15.794  18.549   6.819 -0.2499  0.1749 -0.0749
  970loPI   C4A15186  15.573  18.314   7.171 -0.1106 -0.2170 -0.0772
  970loPI   C5A15187  15.598  18.342   7.600 -0.0432 -0.0745  0.1607
  970loPI   C6A15188  15.962  18.323   7.780 -0.1597 -0.1604 -0.2279
  970loPI   C1B15189  15.376  19.143   6.064  0.0173  0.0813  0.3874
  970loPI   C2B15190  15.297  18.972   6.525  0.0358 -0.0049 -0.1052
  970loPI   C3B15191  15.330  18.893   6.951 -0.2866  0.0066  0.3435
  970loPI   C4B15192  15.427  18.798   7.374 -0.2997 -0.3722  0.2072
  971loPI    C115193  11.327   0.196   5.244 -0.4155 -0.0539  0.1172
  971loPI    C215194  11.674   0.000   5.208 -0.3782  0.0064  0.1460
  971loPI    C315195  11.450   0.071   4.884 -0.2603  0.1545  0.0954
  971loPI   PO415196  11.356   0.189   5.520 -0.2140  0.2804 -0.2363
  971loPI   GL115197  11.269  -0.135   5.833 -0.0187 -0.4904  0.0285
  971loPI   GL215198  10.981   0.033   5.870 -0.0744 -0.3243 -0.0954
  971loPI   C1A15199  11.518  -0.016   6.215 -0.0816  0.0771  0.0594
  971loPI   C2A15200  11.977  -0.127   6.213  0.1116  0.1465 -0.0727
  971loPI   C3A15201  12.181  -0.136   6.680  0.1319  0.0341  0.2383
  971loPI   C4A15202  12.186  -0.369   7.084 -0.2105 -0.1556 -0.1815
  971loPI   C5A15203  12.328  -0.626   7.366  0.3683  0.0156 -0.3683
  971loPI   C6A15204  12.225  -0.869   7.732  0.1272 -0.4401  0.1204
  971loPI   C1B15205  11.090  -0.331   6.213  0.3280  0.0373 -0.1354
  971loPI   C2B15206  11.083  -0.336   6.638 -0.0144 -0.1383  0.0093
  971loPI   C3B15207  11.389  -0.535   7.008  0.1752 -0.1611  0.0767
  971loPI   C4B15208  11.516  -0.652   7.341 -0.0072  0.2014  0.1632
  972loPI    C115209  12.831   6.693   4.414  0.2173 -0.0034  0.1755
  972loPI    C215210  12.723   6.309   4.383  0.1010  0.0306  0.1546
  972loPI    C315211  13.058   6.437   4.207 -0.0120  0.0003 -0.0869
  972loPI   PO415212  12.798   6.811   4.733 -0.0689  0.2151 -0.2296
  972loPI   GL115213  12.446   6.956   5.074 -0.0683  0.0406  0.3085
  972loPI   GL215214  12.846   7.070   5.176  0.0638 -0.1254  0.2519
  972loPI   C1A15215  12.249   6.984   5.359 -0.1333  0.1274  0.0758
  972loPI   C2A15216  12.337   6.907   5.890  0.0270 -0.0039 -0.0554
  972loPI   C3A15217  12.447   6.978   6.269 -0.0720 -0.0822  0.1455
  972loPI   C4A15218  12.397   6.930   6.661  0.2818 -0.2342 -0.1645
  972loPI   C5A15219  12.621   6.927   7.086  0.0607 -0.1133 -0.1677
  972loPI   C6A15220  12.879   6.876   7.395 -0.0397 -0.2766  0.1243
  972loPI   C1B15221  12.801   6.956   5.531 -0.0518  0.1551  0.0844
  972loPI   C2B15222  12.868   6.997   6.014  0.0928  0.1064  0.2543
  972loPI   C3B15223  12.949   6.968   6.491 -0.0908 -0.3320 -0.0895
  972loPI   C4B15224  13.096   6.877   6.900  0.0555 -0.0579  0.0009
  973loPI    C115225   8.150  16.036   4.863 -0.3395 -0.0975 -0.0823
  973loPI    C215226   8.425  15.872   5.103 -0.1351  0.2572 -0.0678
  973loPI    C315227   8.463  15.843   4.705 -0.2051  0.1033 -0.0640
  973loPI   PO415228   8.117  16.311   4.921  0.0990 -0.3132 -0.2950
  973loPI   GL115229   8.055  16.451   5.351 -0.2973  0.0375 -0.0390
  973loPI   GL215230   8.050  16.153   5.384 -0.0934  0.2111 -0.2374
  973loPI   C1A15231   8.088  16.454   5.815 -0.0485  0.0308 -0.2692
  973loPI   C2A15232   8.120  16.453   6.250  0.0592  0.1652  0.1769
  973loPI   C3A15233   8.225  16.370   6.700  0.2580  0.4548 -0.3267
  973loPI   C4A15234   8.176  16.272   7.075  0.0982 -0.1846  0.1387
  973loPI   C5A15235   8.380  16.435   7.485 -0.0208 -0.0655 -0.0392
  973loPI   C6A15236   8.602  16.722   7.899  0.2737 -0.0524  0.1282
  973loPI   C1B15237   8.395  16.083   5.571 -0.1002 -0.2090 -0.2837
  973loPI   C2B15238   8.452  16.140   5.968  0.2674  0.0715 -0.0226
  973loPI   C3B15239   8.657  16.075   6.326 -0.0839 -0.1247 -0.0580
  973loPI   C4B15240   8.947  16.193   6.639  0.1560 -0.1020 -0.0968
  974loPI    C115241   6.130   8.896   4.883  0.1431 -0.1145  0.0326
  974loPI    C215242   6.460   9.076   5.021 -0.0012  0.0849  0.1215
  974loPI    C315243   6.489   8.729   4.824  0.2531  0.0576  0.2041
  974loPI   PO415244   5.989   8.795   5.097  0.0050 -0.0862  0.0685
  974loPI   GL115245   5.825   8.619   5.350 -0.0450  0.0765 -0.0451
  974loPI   GL215246   5.923   8.225   5.293  0.0554  0.0368  0.1641
  974loPI   C1A15247   5.769   8.913   5.734  0.0620  0.0647 -0.1890
  974loPI   C2A15248   5.633   8.997   6.125 -0.0665  0.1001 -0.0255
  974loPI   C3A15249   5.749   9.002   6.575  0.0109 -0.1701 -0.2732
  974loPI   C4A15250   5.869   9.170   7.023  0.0005 -0.2189 -0.0568
  974loPI   C5A15251   5.742   9.336   7.402  0.1343 -0.3240  0.1924
  974loPI   C6A15252   5.762   9.141   7.784  0.0660 -0.0573  0.0287
  974loPI   C1B15253   5.961   8.242   5.710  0.1687 -0.4912 -0.0688
  974loPI   C2B15254   6.238   8.685   5.856 -0.0205  0.2972  0.1562
  974loPI   C3B15255   6.567   8.856   5.823  0.1100  0.2793  0.1995
  974loPI   C4B15256   6.689   9.236   5.844 -0.1419  0.2256 -0.1230
  975loPI    C115257   1.780   7.163   4.393 -0.0480 -0.1079 -0.2737
  975loPI    C215258   1.447   7.346   4.267  0.0070  0.0646 -0.1724
  975loPI    C315259   1.800   7.438   4.103  0.0389  0.0695 -0.1014
  975loPI   PO415260   1.842   7.228   4.699  0.1245 -0.1100 -0.2182
  975loPI   GL115261   1.712   7.207   5.106 -0.3632  0.2331  0.0781
  975loPI   GL215262   2.034   7.299   5.277 -0.0435  0.1446 -0.1842
  975loPI   C1A15263   1.611   7.324   5.512 -0.2369 -0.2051 -0.0170
  975loPI   C2A15264   1.603   7.364   5.970  0.0799  0.1689  0.0878
  975loPI   C3A15265   1.912   7.276   6.208  0.0430  0.0016  0.1082
  975loPI   C4A15266   1.956   7.048   6.552  0.1420 -0.0373  0.0748
  975loPI   C5A15267   1.710   6.803   6.768 -0.2328 -0.1034 -0.0433
  975loPI   C6A15268   1.454   6.837   7.087  0.0915 -0.2101  0.0849
  975loPI   C1B15269   2.055   7.573   5.568  0.2653  0.0081 -0.0295
  975loPI   C2B15270   1.949   7.719   6.039 -0.0718 -0.2023 -0.0035
  975loPI   C3B15271   1.882   7.739   6.504  0.1802 -0.1252  0.1075
  975loPI   C4B15272   1.969   7.506   6.892 -0.0775 -0.1183  0.2694
  976loPI    C115273  17.450  17.047   5.158  0.0391  0.0068 -0.1594
  976loPI    C215274  17.342  17.316   4.883 -0.4196 -0.0423 -0.0342
  976loPI    C315275  17.356  16.928   4.788 -0.0783 -0.0103 -0.1245
  976loPI   PO415276  17.387  17.218   5.416 -0.0779  0.2126  0.0744
  976loPI   GL115277  17.338  17.169   5.860  0.0202  0.0019 -0.2425
  976loPI   GL215278  17.360  17.506   5.828  0.0632  0.1884 -0.1734
  976loPI   C1A15279  17.626  17.263   6.170  0.0711  0.0976  0.0972
  976loPI   C2A15280  17.728  17.007   6.497  0.0232 -0.0188  0.2105
  976loPI   C3A15281  17.916  16.872   6.848 -0.1681 -0.4513 -0.1801
  976loPI   C4A15282  17.954  16.919   7.356  0.4176 -0.0041  0.0625
  976loPI   C5A15283  18.155  16.935   7.709 -0.1554  0.1425  0.0813
  976loPI   C6A15284  18.492  17.035   7.989 -0.2907  0.0061  0.1740
  976loPI   C1B15285  17.272  17.649   6.266 -0.1635 -0.1094 -0.2924
  976loPI   C2B15286  17.003  17.885   6.546  0.1405 -0.1494 -0.1941
  976loPI   C3B15287  16.991  18.067   6.983  0.1945 -0.0734  0.0878
  976loPI   C4B15288  17.190  18.127   7.491  0.0209  0.0125 -0.0022
  977loPI    C115289   5.067  17.324   5.100 -0.0354 -0.1981 -0.1657
  977loPI    C215290   5.141  17.444   4.726 -0.0279 -0.0667 -0.1227
  977loPI    C315291   5.443  17.394   4.983 -0.0456 -0.0094 -0.0904
  977loPI   PO415292   4.926  17.548   5.179  0.1849 -0.0602  0.1774
  977loPI   GL115293   4.983  17.907   5.415 -0.1951  0.3612 -0.0653
  977loPI   GL215294   5.020  18.222   5.453 -0.2749 -0.0648  0.1751
  977loPI   C1A15295   4.798  17.844   5.860 -0.1328  0.1902 -0.1459
  977loPI   C2A15296   5.007  17.781   6.243  0.0784  0.2523 -0.4558
  977loPI   C3A15297   5.108  17.445   6.515  0.0329 -0.0648 -0.2374
  977loPI   C4A15298   5.137  17.359   6.998 -0.0385 -0.1328  0.2705
  977loPI   C5A15299   5.047  17.598   7.323  0.1318 -0.1570 -0.0856
  977loPI   C6A15300   4.832  17.930   7.492  0.0661 -0.1246  0.0905
  977loPI   C1B15301   5.207  18.131   5.876 -0.0029  0.0417  0.0394
  977loPI   C2B15302   5.349  18.151   6.289  0.2372  0.0067 -0.1149
  977loPI   C3B15303   5.652  18.200   6.639 -0.1083 -0.1274 -0.1865
  977loPI   C4B15304   5.724  18.159   7.081 -0.0781 -0.0854  0.1189
  978loPI    C115305  11.628   7.826   4.792  0.1748  0.0978  0.1777
  978loPI    C215306  11.661   8.033   4.451 -0.0748  0.0701  0.1350
  978loPI    C315307  11.860   7.689   4.497 -0.1356  0.0118 -0.0314
  978loPI   PO415308  11.694   7.964   4.984 -0.2482  0.1225 -0.0132
  978loPI   GL115309  11.881   7.935   5.293 -0.0474 -0.0608  0.1140
  978loPI   GL215310  12.239   8.011   5.359  0.2576 -0.0204 -0.0216
  978loPI   C1A15311  11.709   7.971   5.763 -0.0924 -0.3123  0.2549
  978loPI   C2A15312  11.663   7.996   6.183  0.0085 -0.2806 -0.3719
  978loPI   C3A15313  11.580   8.062   6.628  0.1119 -0.1398 -0.1339
  978loPI   C4A15314  11.459   8.277   6.996 -0.3842  0.1115  0.2912
  978loPI   C5A15315  11.223   8.520   7.445  0.4124 -0.3026  0.1063
  978loPI   C6A15316  10.932   8.687   7.623 -0.2664 -0.1134  0.1767
  978loPI   C1B15317  12.393   8.336   5.640 -0.2401  0.0671  0.2647
  978loPI   C2B15318  12.507   8.266   6.077  0.3952 -0.0694  0.0074
  978loPI   C3B15319  12.517   7.870   6.497 -0.0895  0.0732  0.0167
  978loPI   C4B15320  12.477   7.677   6.937 -0.1460  0.1928 -0.1856
  979loPI    C115321   2.340  14.422   5.054  0.0975  0.0206  0.1128
  979loPI    C215322   2.378  14.521   4.669 -0.3241  0.0581  0.0755
  979loPI    C315323   2.702  14.495   4.902 -0.0799  0.1879 -0.2415
  979loPI   PO415324   2.103  14.439   5.085  0.3850 -0.2837 -0.2422
  979loPI   GL115325   1.946  14.699   5.443 -0.0645  0.0928 -0.1570
  979loPI   GL215326   2.285  14.653   5.501  0.2721  0.0805  0.0110
  979loPI   C1A15327   1.830  14.757   5.902  0.2822  0.0150 -0.0735
  979loPI   C2A15328   1.694  14.703   6.293 -0.0966 -0.0460 -0.0183
  979loPI   C3A15329   1.798  14.632   6.807  0.1244 -0.2625 -0.0359
  979loPI   C4A15330   1.887  14.802   7.107 -0.3411 -0.1993  0.1394
  979loPI   C5A15331   1.691  15.168   7.394 -0.1949  0.1406 -0.4355
  979loPI   C6A15332   1.718  15.545   7.229  0.1047 -0.2990 -0.4379
  979loPI   C1B15333   2.272  14.396   5.804 -0.0827 -0.1461  0.6714
  979loPI   C2B15334   2.440  14.277   6.175 -0.0788  0.1748 -0.0424
  979loPI   C3B15335   2.364  13.924   6.083 -0.0812 -0.0850 -0.0307
  979loPI   C4B15336   2.293  13.916   5.722 -0.4958  0.0698  0.0575
  980loPI    C115337   7.631   1.284   4.727  0.0272  0.1335  0.0618
  980loPI    C215338   7.607   1.660   4.592  0.3213  0.0791 -0.1523
  980loPI    C315339   7.605   1.354   4.334  0.0146 -0.0734  0.0246
  980loPI   PO415340   7.843   1.228   4.930  0.0566 -0.0998  0.1092
  980loPI   GL115341   7.714   1.100   5.361 -0.2141  0.0818  0.0327
  980loPI   GL215342   7.970   1.085   5.469 -0.1486  0.0845  0.0398
  980loPI   C1A15343   7.535   1.184   5.704  0.1144  0.2739  0.0213
  980loPI   C2A15344   7.439   1.159   6.101 -0.0075 -0.0753 -0.0664
  980loPI   C3A15345   7.253   1.259   6.467 -0.0484  0.4351  0.1684
  980loPI   C4A15346   7.189   1.145   6.794  0.0367 -0.1542 -0.0304
  980loPI   C5A15347   7.163   1.456   7.137  0.1795 -0.0276 -0.2602
  980loPI   C6A15348   7.494   1.820   7.414  0.0319  0.0324  0.4787
  980loPI   C1B15349   7.942   1.181   5.942 -0.0311  0.1158  0.0001
  980loPI   C2B15350   7.840   0.876   6.234  0.0066  0.1671  0.1812
  980loPI   C3B15351   7.428   0.760   6.447  0.1900 -0.0331  0.2550
  980loPI   C4B15352   7.148   0.641   6.839 -0.0520 -0.1993 -0.0234
  981loPI    C115353   9.156   2.442   5.311 -0.0586 -0.0382 -0.0639
  981loPI    C215354   9.407   2.303   5.589  0.0635 -0.0882 -0.1981
  981loPI    C315355   9.542   2.545   5.300 -0.1180  0.1906 -0.0539
  981loPI   PO415356   8.878   2.490   5.505  0.2464 -0.2183 -0.1671
  981loPI   GL115357   8.564   2.746   5.694 -0.1178  0.2308  0.2526
  981loPI   GL215358   8.230   2.929   5.726 -0.0131 -0.1514 -0.1592
  981loPI   C1A15359   8.698   2.763   6.135 -0.1758  0.1586  0.1314
  981loPI   C2A15360   8.500   2.882   6.462 -0.1777 -0.0449 -0.2828
  981loPI   C3A15361   8.378   2.642   6.893 -0.1132 -0.2313  0.0452
  981loPI   C4A15362   8.422   2.920   7.247 -0.1688  0.0534  0.0005
  981loPI   C5A15363   8.564   3.184   7.445 -0.2212  0.0477  0.0790
  981loPI   C6A15364   8.599   3.473   7.764  0.0771  0.0129 -0.0122
  981loPI   C1B15365   8.150   2.583   6.047  0.2470  0.2407 -0.1131
  981loPI   C2B15366   7.949   2.518   6.437  0.0155 -0.0363  0.0601
  981loPI   C3B15367   7.910   2.508   6.865 -0.5924  0.2420  0.2438
  981loPI   C4B15368   7.982   2.604   7.232  0.3210 -0.3779 -0.4192
  982loPI    C115369  11.731   3.069   4.858  0.0458 -0.3177 -0.1443
  982loPI    C215370  12.109   3.050   4.731  0.1432  0.2046  0.0426
  982loPI    C315371  11.831   3.229   4.506  0.0773  0.1210  0.0571
  982loPI   PO415372  11.795   3.083   5.132 -0.1826  0.1216 -0.1922
  982loPI   GL115373  11.542   2.980   5.451 -0.2002  0.0929 -0.2612
  982loPI   GL215374  11.786   2.818   5.596  0.2453  0.1873  0.0328
  982loPI   C1A15375  11.191   3.214   5.763  0.0385 -0.1174 -0.1094
  982loPI   C2A15376  10.941   3.291   6.118 -0.0496  0.0223 -0.0463
  982loPI   C3A15377  11.133   3.354   6.498  0.0083 -0.1389 -0.0439
  982loPI   C4A15378  11.161   3.432   6.844  0.0852 -0.0729  0.2087
  982loPI   C5A15379  11.152   3.384   7.279  0.0398 -0.0812  0.1061
  982loPI   C6A15380  11.437   3.271   7.511  0.3272  0.0289  0.0567
  982loPI   C1B15381  11.636   2.800   5.942  0.0281  0.1003 -0.1030
  982loPI   C2B15382  11.713   2.551   6.271 -0.3231 -0.0568 -0.1149
  982loPI   C3B15383  11.732   2.554   6.724  0.0372  0.3126  0.1530
  982loPI   C4B15384  11.684   2.564   7.213  0.2053 -0.0900  0.1402
  983loPI    C115385  13.473   8.818   4.601 -0.0272  0.0349  0.2095
  983loPI    C215386  13.252   8.632   4.325  0.1091  0.1191  0.0421
  983loPI    C315387  13.644   8.560   4.349  0.1076  0.1536  0.1787
  983loPI   PO415388  13.315   8.788   4.799 -0.0742  0.1812  0.3388
  983loPI   GL115389  13.399   8.844   5.243  0.2364 -0.1182  0.2411
  983loPI   GL215390  13.385   8.548   5.285  0.0871 -0.1045 -0.0186
  983loPI   C1A15391  13.302   8.938   5.647 -0.0497 -0.1345 -0.3349
  983loPI   C2A15392  13.181   8.957   5.981 -0.0292 -0.1648  0.0416
  983loPI   C3A15393  13.188   8.938   6.412  0.2779  0.3289 -0.0654
  983loPI   C4A15394  12.909   8.853   6.780  0.3040 -0.0721  0.0846
  983loPI   C5A15395  12.874   9.101   7.114 -0.0040 -0.1355 -0.1343
  983loPI   C6A15396  12.847   9.073   7.580  0.0190  0.5365 -0.1469
  983loPI   C1B15397  13.383   8.357   5.631  0.2761 -0.3701  0.0325
  983loPI   C2B15398  13.312   8.361   6.060  0.2482  0.0483 -0.3148
  983loPI   C3B15399  13.310   8.340   6.519  0.0923  0.1304 -0.0485
  983loPI   C4B15400  13.180   8.323   7.012 -0.3206  0.0454  0.1201
  984loPI    C115401  16.897  11.241   4.606 -0.2098 -0.0301 -0.0038
  984loPI    C215402  16.598  11.441   4.432 -0.2628 -0.1392 -0.0391
  984loPI    C315403  16.656  11.054   4.346 -0.0785 -0.1046 -0.0731
  984loPI   PO415404  16.807  11.294   4.886 -0.0844 -0.2949 -0.0121
  984loPI   GL115405  17.105  11.472   5.275 -0.0151  0.0911 -0.0139
  984loPI   GL215406  17.016  11.733   5.247 -0.1732 -0.1572  0.0527
  984loPI   C1A15407  17.013  11.434   5.749  0.3241 -0.0755 -0.1043
  984loPI   C2A15408  16.762  11.544   5.970 -0.0910  0.0878 -0.1671
  984loPI   C3A15409  16.737  11.589   6.376  0.0162 -0.1192 -0.2412
  984loPI   C4A15410  16.653  11.544   6.792  0.0278  0.2124  0.1201
  984loPI   C5A15411  16.285  11.567   7.160 -0.1706  0.0983 -0.1567
  984loPI   C6A15412  15.931  11.368   7.177  0.1602  0.0373 -0.2918
  984loPI   C1B15413  16.972  11.956   5.661  0.0127  0.1720 -0.2850
  984loPI   C2B15414  16.971  12.012   6.130 -0.0040  0.3382 -0.0491
  984loPI   C3B15415  17.085  12.002   6.454 -0.0830  0.0181 -0.0878
  984loPI   C4B15416  17.298  12.104   6.805 -0.2103  0.1416 -0.2331
  985loPI    C115417   6.285   7.240   4.655  0.2173  0.0653 -0.0240
  985loPI    C215418   6.669   7.323   4.579  0.1455  0.1678 -0.2878
  985loPI    C315419   6.436   7.595   4.757  0.2061  0.0867 -0.0815
  985loPI   PO415420   6.197   6.993   4.818 -0.4731  0.0579  0.0235
  985loPI   GL115421   6.028   6.916   5.207 -0.3502 -0.0535 -0.3953
  985loPI   GL215422   6.037   7.267   5.273  0.0853 -0.0452 -0.0907
  985loPI   C1A15423   6.174   6.567   5.565 -0.2415 -0.1066  0.3278
  985loPI   C2A15424   6.137   6.620   5.974 -0.0434 -0.0890  0.1463
  985loPI   C3A15425   6.030   6.625   6.406  0.0192 -0.0120  0.3382
  985loPI   C4A15426   5.902   6.555   6.868 -0.1551  0.1500 -0.4148
  985loPI   C5A15427   5.724   6.559   7.282  0.1006 -0.2381  0.0461
  985loPI   C6A15428   5.347   6.395   7.485  0.2633  0.2642  0.0228
  985loPI   C1B15429   6.041   7.096   5.682  0.0070 -0.0002  0.1393
  985loPI   C2B15430   6.062   7.145   6.096 -0.1696 -0.0418 -0.2539
  985loPI   C3B15431   6.016   7.050   6.594  0.0696 -0.0447 -0.0107
  985loPI   C4B15432   5.909   7.073   6.961 -0.0231 -0.0130  0.1604
  986loPI    C115433   4.668  16.709   4.827  0.0270  0.0191 -0.1564
  986loPI    C215434   4.920  16.995   4.707  0.1214 -0.0418 -0.1048
  986loPI    C315435   4.596  16.909   4.489  0.1481  0.0331 -0.1743
  986loPI   PO415436   4.679  16.749   5.069  0.3309 -0.0077  0.0636
  986loPI   GL115437   4.776  16.587   5.358  0.1094 -0.0395 -0.5241
  986loPI   GL215438   4.880  16.297   5.057  0.0051 -0.2218 -0.2274
  986loPI   C1A15439   4.825  16.371   5.791  0.0301  0.3165  0.0757
  986loPI   C2A15440   4.932  16.360   6.195 -0.0756  0.0335  0.1650
  986loPI   C3A15441   4.901  16.097   6.519 -0.1851 -0.3235  0.1825
  986loPI   C4A15442   4.894  15.925   6.877  0.0052 -0.3101  0.2872
  986loPI   C5A15443   4.950  15.633   7.206 -0.0266  0.1192 -0.1074
  986loPI   C6A15444   5.271  15.401   7.414  0.2340 -0.1978 -0.0353
  986loPI   C1B15445   4.659  16.030   5.361  0.1747  0.1549 -0.0099
  986loPI   C2B15446   4.785  15.921   5.668  0.0701  0.1404  0.1544
  986loPI   C3B15447   4.820  15.825   6.068 -0.0672  0.1624  0.2334
  986loPI   C4B15448   5.041  15.465   6.231 -0.0174 -0.0775  0.1527
  987loPI    C115449   4.126  18.573   5.115 -0.0189 -0.0627  0.2347
  987loPI    C215450   3.778  18.377   5.100 -0.0282 -0.0475  0.2506
  987loPI    C315451   3.824  18.684   5.352 -0.2338  0.3963 -0.2337
  987loPI   PO415452   4.288  18.426   5.139  0.0928  0.1592  0.0583
  987loPI   GL115453   4.524  18.341   5.505 -0.1014  0.1827 -0.0840
  987loPI   GL215454   4.464  18.018   5.566  0.2120 -0.0857 -0.1379
  987loPI   C1A15455   4.439  18.504   5.899 -0.1539  0.1158  0.3330
  987loPI   C2A15456   4.300  18.439   6.290  0.0144  0.1225 -0.1482
  987loPI   C3A15457   4.316  18.742   6.514  0.1902 -0.0450  0.3046
  987loPI   C4A15458   4.429  18.968   6.796 -0.0985 -0.0245 -0.1064
  987loPI   C5A15459   4.374  19.007   7.259 -0.3032  0.0018 -0.0776
  987loPI   C6A15460   4.455  18.771   7.622 -0.2038  0.1116  0.1899
  987loPI   C1B15461   4.340  17.979   6.037  0.1391 -0.2270 -0.1266
  987loPI   C2B15462   4.482  18.017   6.498 -0.3471  0.2222  0.0083
  987loPI   C3B15463   4.877  17.982   6.682  0.0040 -0.0153 -0.1638
  987loPI   C4B15464   5.044  18.016   7.061 -0.1753 -0.2615 -0.3169
  988loPI    C115465   7.222   0.779   4.357  0.0105 -0.0295  0.0884
  988loPI    C215466   7.212   1.006   4.028  0.1395 -0.1163  0.0237
  988loPI    C315467   7.286   0.614   3.998  0.1431 -0.1261  0.1553
  988loPI   PO415468   7.181   0.957   4.594  0.2671  0.1047 -0.0353
  988loPI   GL115469   7.323   1.043   4.993  0.0142  0.0835 -0.1416
  988loPI   GL215470   7.124   1.173   5.253  0.0378  0.4498 -0.0782
  988loPI   C1A15471   7.347   0.765   5.443 -0.1830  0.5843  0.4360
  988loPI   C2A15472   7.523   0.688   5.849 -0.3137  0.0139 -0.2019
  988loPI   C3A15473   7.628   0.390   6.134  0.0573 -0.1323 -0.2205
  988loPI   C4A15474   7.899   0.390   6.451 -0.3179 -0.3311 -0.0470
  988loPI   C5A15475   7.863   0.454   6.822  0.2872  0.2937 -0.2599
  988loPI   C6A15476   7.732   0.554   7.276 -0.2923  0.0302 -0.2940
  988loPI   C1B15477   6.850   0.887   5.606 -0.1183  0.0654 -0.0066
  988loPI   C2B15478   6.636   0.891   6.019 -0.1581  0.3041  0.1278
  988loPI   C3B15479   6.722   1.039   6.424 -0.1693  0.0545 -0.0648
  988loPI   C4B15480   6.592   1.323   6.784 -0.0184  0.0609 -0.0308
  989loPI    C115481   2.737   3.622   4.666 -0.2908 -0.0744  0.1599
  989loPI    C215482   2.610   3.854   4.365  0.0946  0.1832  0.1885
  989loPI    C315483   2.586   3.456   4.336  0.1933  0.2029 -0.2154
  989loPI   PO415484   2.683   3.803   4.908 -0.0284 -0.1196  0.0598
  989loPI   GL115485   2.450   4.053   5.186  0.1909 -0.0262  0.2038
  989loPI   GL215486   2.243   4.066   5.331  0.0262  0.0776  0.0539
  989loPI   C1A15487   2.639   4.068   5.652 -0.1152 -0.0988  0.0014
  989loPI   C2A15488   2.896   3.967   5.963  0.1372 -0.1401 -0.2047
  989loPI   C3A15489   2.866   4.179   6.270 -0.3439 -0.1521 -0.1289
  989loPI   C4A15490   2.875   4.328   6.728 -0.0914  0.0280  0.1264
  989loPI   C5A15491   2.967   4.257   7.182  0.2344  0.2508  0.1467
  989loPI   C6A15492   3.117   4.015   7.291 -0.0245  0.1931 -0.0258
  989loPI   C1B15493   2.204   3.798   5.671  0.0426 -0.2352  0.2206
  989loPI   C2B15494   2.372   3.732   6.126 -0.0402  0.0593  0.2880
  989loPI   C3B15495   2.546   3.448   6.490 -0.1426  0.1431 -0.0567
  989loPI   C4B15496   2.639   3.182   6.831 -0.2267  0.0364  0.5009
  990loPI    C115497  18.474   5.189   4.400 -0.2196 -0.0813 -0.1670
  990loPI    C215498  18.757   4.931   4.286  0.0459  0.2052 -0.1689
  990loPI    C315499  18.533   5.116   4.011 -0.1296 -0.0028 -0.1684
  990loPI   PO415500  18.400   5.037   4.646  0.0323 -0.0851  0.0984
  990loPI   GL115501  18.543   5.017   5.091  0.0243 -0.0954 -0.1082
  990loPI   GL215502  18.732   5.260   5.144  0.0707 -0.2941 -0.0136
  990loPI   C1A15503  18.083   4.789   5.135 -0.2465  0.1961 -0.0426
  990loPI   C2A15504  17.957   4.642   5.549 -0.0927  0.2612  0.0402
  990loPI   C3A15505  18.245   4.726   5.879 -0.4168 -0.0389 -0.1394
  990loPI   C4A15506  18.408   4.715   6.245  0.3216 -0.2031 -0.0620
  990loPI   C5A15507  18.313   4.496   6.608 -0.1379  0.2293 -0.1311
  990loPI   C6A15508  18.165   4.339   7.072  0.0971  0.1267  0.0197
  990loPI   C1B15509  18.493   5.177   5.572 -0.0146 -0.3338 -0.1401
  990loPI   C2B15510  18.368   5.243   6.090 -0.0745 -0.1512  0.2402
  990loPI   C3B15511  18.375   5.325   6.536  0.4615  0.0389  0.2087
  990loPI   C4B15512  18.387   5.307   6.934 -0.0303 -0.3076 -0.3556
  991loPI    C115513   6.863  14.742   4.649  0.1333  0.2447 -0.0186
  991loPI    C215514   7.193  14.697   4.428 -0.1075 -0.3939 -0.2753
  991loPI    C315515   6.844  14.778   4.251 -0.0712  0.4989  0.0117
  991loPI   PO415516   6.834  14.924   4.824  0.2450 -0.0250 -0.0791
  991loPI   GL115517   6.895  15.056   5.264 -0.0316 -0.1491  0.0340
  991loPI   GL215518   7.202  15.013   5.277  0.0009 -0.0730 -0.1657
  991loPI   C1A15519   6.716  14.914   5.763 -0.0332 -0.2223 -0.1251
  991loPI   C2A15520   6.308  14.977   5.949  0.1236  0.1468  0.4651
  991loPI   C3A15521   6.224  15.165   6.359  0.1526 -0.0507  0.3139
  991loPI   C4A15522   6.103  15.235   6.739 -0.0799  0.0822 -0.2310
  991loPI   C5A15523   6.144  15.514   7.101  0.0684  0.0051 -0.0245
  991loPI   C6A15524   5.976  15.886   7.259 -0.0628  0.0274  0.0027
  991loPI   C1B15525   7.252  15.202   5.702  0.1046 -0.0739 -0.0818
  991loPI   C2B15526   7.227  15.384   6.110 -0.2192 -0.0754  0.2821
  991loPI   C3B15527   7.379  15.324   6.504 -0.1629  0.1624 -0.0473
  991loPI   C4B15528   7.428  15.388   6.934 -0.0796  0.1888 -0.0799
  992loPI    C115529   8.976   5.395   4.789  0.2167 -0.3894  0.3017
  992loPI    C215530   8.999   4.996   4.780 -0.0660 -0.4037  0.0653
  992loPI    C315531   9.136   5.212   4.471 -0.0403 -0.3244  0.1318
  992loPI   PO415532   8.667   5.386   4.876  0.2142  0.0100 -0.1616
  992loPI   GL115533   8.558   5.472   5.318  0.0006  0.1781  0.0428
  992loPI   GL215534   8.492   5.714   5.324  0.2195 -0.2006  0.0794
  992loPI   C1A15535   8.883   5.575   5.754  0.0558  0.0373 -0.1682
  992loPI   C2A15536   8.850   5.602   6.254  0.0382 -0.1202  0.1496
  992loPI   C3A15537   8.763   5.532   6.724  0.1091  0.0308  0.0112
  992loPI   C4A15538   8.957   5.230   7.028 -0.3894 -0.0413  0.2072
  992loPI   C5A15539   8.943   5.321   7.548 -0.0067  0.1511  0.3543
  992loPI   C6A15540   8.933   5.253   8.063 -0.1143 -0.1382 -0.1800
  992loPI   C1B15541   8.351   5.582   5.733  0.4376  0.2029 -0.0070
  992loPI   C2B15542   8.381   5.556   6.244 -0.1839  0.0184 -0.0215
  992loPI   C3B15543   8.317   5.323   6.646 -0.1320  0.2129  0.0575
  992loPI   C4B15544   8.205   5.365   7.048 -0.2855 -0.4084  0.4001
  993loPI    C115545  12.995  16.135   5.096 -0.0494  0.2094 -0.0563
  993loPI    C215546  12.811  16.282   4.773 -0.1202  0.3854  0.0622
  993loPI    C315547  13.210  16.264   4.784 -0.1254 -0.0253 -0.2077
  993loPI   PO415548  12.828  16.187   5.286  0.1655  0.5023  0.1453
  993loPI   GL115549  12.890  16.282   5.732  0.0137 -0.1257  0.0205
  993loPI   GL215550  12.826  15.900   5.854 -0.0967 -0.2082  0.2241
  993loPI   C1A15551  13.137  16.441   6.001 -0.0373 -0.1581  0.2617
  993loPI   C2A15552  13.246  16.436   6.331  0.0593  0.0563 -0.0690
  993loPI   C3A15553  13.337  16.133   6.568  0.0259  0.1266 -0.0763
  993loPI   C4A15554  13.459  16.037   6.918  0.1021 -0.1064 -0.0919
  993loPI   C5A15555  13.748  16.021   7.350 -0.0038  0.2031  0.0456
  993loPI   C6A15556  13.541  16.063   7.723 -0.0733 -0.2115  0.1954
  993loPI   C1B15557  12.838  16.119   6.224 -0.1395  0.0404  0.0105
  993loPI   C2B15558  12.804  16.194   6.654 -0.2184  0.3622  0.3105
  993loPI   C3B15559  12.986  16.246   7.105 -0.0148  0.0290 -0.0762
  993loPI   C4B15560  13.043  16.149   7.541 -0.3052 -0.2189  0.2100
  994loPI    C115561  15.404   2.436   4.809 -0.0124 -0.1092  0.0387
  994loPI    C215562  15.510   2.266   4.462 -0.1336 -0.2501  0.0695
  994loPI    C315563  15.472   2.663   4.487 -0.1106 -0.2384 -0.0749
  994loPI   PO415564  15.624   2.162   4.967  0.4318  0.0085  0.4573
  994loPI   GL115565  15.678   2.057   5.423  0.2688  0.4113  0.1717
  994loPI   GL215566  15.461   2.199   5.495 -0.0436 -0.1650 -0.0951
  994loPI   C1A15567  15.694   1.962   5.812  0.0982 -0.0855 -0.0999
  994loPI   C2A15568  15.631   1.885   6.201  0.0655  0.0294 -0.1408
  994loPI   C3A15569  15.697   2.150   6.547 -0.2175 -0.2617 -0.0274
  994loPI   C4A15570  16.019   2.485   6.616  0.0816  0.0315 -0.2797
  994loPI   C5A15571  16.121   2.494   7.011 -0.1075 -0.1832 -0.1119
  994loPI   C6A15572  16.230   2.295   7.349 -0.1477  0.0900 -0.2518
  994loPI   C1B15573  15.652   2.447   5.803 -0.3306 -0.1203 -0.0899
  994loPI   C2B15574  15.583   2.634   6.301 -0.1573 -0.0493  0.0429
  994loPI   C3B15575  15.577   2.728   6.773 -0.1349 -0.3094 -0.4177
  994loPI   C4B15576  15.802   2.890   7.096  0.1882  0.1609  0.1285
  995loPI    C115577   2.027   5.995   5.054 -0.0473  0.2854  0.0565
  995loPI    C215578   1.942   5.911   4.673  0.1347 -0.0595  0.0870
  995loPI    C315579   1.687   5.806   4.962  0.1917 -0.1780  0.0945
  995loPI   PO415580   2.244   5.927   5.113  0.0474  0.1184 -0.0117
  995loPI   GL115581   2.423   5.926   5.487  0.0906  0.4247  0.0411
  995loPI   GL215582   2.666   5.769   5.610 -0.0796 -0.2288 -0.1469
  995loPI   C1A15583   2.183   5.805   5.787  0.0697 -0.2054  0.0868
  995loPI   C2A15584   2.033   5.949   6.152 -0.2279 -0.0337 -0.0633
  995loPI   C3A15585   2.192   5.927   6.544 -0.1825  0.1882  0.2289
  995loPI   C4A15586   2.077   6.261   6.973  0.3614 -0.3484 -0.0372
  995loPI   C5A15587   2.011   6.464   7.213 -0.2524 -0.0569  0.3323
  995loPI   C6A15588   1.644   6.706   7.505 -0.0275 -0.1129 -0.2894
  995loPI   C1B15589   2.570   5.492   5.963 -0.0913 -0.0595  0.0730
  995loPI   C2B15590   2.630   5.370   6.419 -0.1706 -0.1116 -0.0566
  995loPI   C3B15591   2.595   5.289   6.799 -0.2027  0.1345 -0.0490
  995loPI   C4B15592   2.472   5.125   7.147 -0.0514  0.1211  0.1643
  996loPI    C115593   3.750  15.109   5.044 -0.2294  0.0367  0.0605
  996loPI    C215594   3.710  15.499   4.961 -0.0459  0.0356 -0.0369
  996loPI    C315595   3.695  15.228   4.666  0.1134 -0.0078 -0.0062
  996loPI   PO415596   3.974  15.127   5.256 -0.0667 -0.1305  0.0609
  996loPI   GL115597   4.060  15.336   5.546 -0.1747 -0.0724  0.4291
  996loPI   GL215598   3.835  15.662   5.531 -0.1151  0.0425 -0.3727
  996loPI   C1A15599   4.074  15.246   5.910 -0.1555  0.1304 -0.0319
  996loPI   C2A15600   4.160  15.173   6.387 -0.1421  0.0193  0.4054
  996loPI   C3A15601   4.287  15.167   6.812 -0.0997 -0.2169 -0.1878
  996loPI   C4A15602   4.339  15.041   7.193 -0.0623  0.2525 -0.1475
  996loPI   C5A15603   4.248  14.968   7.585  0.0067 -0.1360 -0.0243
  996loPI   C6A15604   4.355  14.764   7.852 -0.0127  0.0027 -0.0019
  996loPI   C1B15605   3.734  15.728   5.987 -0.2101  0.2148  0.1315
  996loPI   C2B15606   3.812  15.547   6.363  0.2600 -0.2551  0.1132
  996loPI   C3B15607   4.011  15.619   6.717  0.0643  0.1471 -0.2130
  996loPI   C4B15608   4.047  15.865   7.212  0.3203  0.1331  0.1988
  997loPI    C115609   1.525  18.953   5.006 -0.1471  0.2786 -0.0668
  997loPI    C215610   1.897  19.030   5.129 -0.1008  0.2861 -0.2102
  997loPI    C315611   1.792  19.106   4.751 -0.1478 -0.0437 -0.2665
  997loPI   PO415612   1.410  18.993   5.243 -0.1117 -0.0307 -0.0398
  997loPI   GL115613   1.328  19.166   5.533  0.3096  0.2490 -0.3088
  997loPI   GL215614   1.692  19.390   5.494  0.0143 -0.1962 -0.2483
  997loPI   C1A15615   1.206  19.159   5.969  0.1104  0.2091 -0.0562
  997loPI   C2A15616   1.427  19.361   6.344 -0.0920 -0.2210  0.1315
  997loPI   C3A15617   1.514  19.188   6.650 -0.0465 -0.1615 -0.1359
  997loPI   C4A15618   1.368  19.230   7.068 -0.0374  0.2183  0.0796
  997loPI   C5A15619   1.604  19.369   7.284 -0.1222  0.0009 -0.0589
  997loPI   C6A15620   1.760  19.825   7.253 -0.2046 -0.0980 -0.0839
  997loPI   C1B15621   1.492  19.587   5.853  0.2079  0.0253  0.0354
  997loPI   C2B15622   1.661  19.760   6.124  0.0207  0.4080 -0.2602
  997loPI   C3B15623   1.546  19.787   6.557 -0.0016  0.0114 -0.2537
  997loPI   C4B15624   1.640  20.134   6.875  0.0107  0.0470 -0.0832
  998loPI    C115625  16.127   9.886   4.988  0.2110 -0.2348 -0.1554
  998loPI    C215626  15.973   9.521   5.044  0.2301 -0.2461 -0.1760
  998loPI    C315627  15.904   9.717   4.702 -0.1327 -0.0557  0.0005
  998loPI   PO415628  16.020  10.082   5.082 -0.0687  0.2080 -0.0033
  998loPI   GL115629  15.841  10.207   5.405  0.0904 -0.1498  0.1956
  998loPI   GL215630  15.543  10.463   5.386 -0.0164  0.1626 -0.1146
  998loPI   C1A15631  15.660  10.122   5.860 -0.0174 -0.1959 -0.0719
  998loPI   C2A15632  15.576  10.026   6.309 -0.2073 -0.1951 -0.3184
  998loPI   C3A15633  15.764   9.972   6.645 -0.2564 -0.2080  0.0498
  998loPI   C4A15634  15.832   9.953   7.077  0.0628  0.0838  0.0406
  998loPI   C5A15635  16.139   9.750   7.370 -0.3749 -0.2352  0.1121
  998loPI   C6A15636  16.392   9.297   7.487 -0.0482  0.0074 -0.0469
  998loPI   C1B15637  15.877  10.714   5.728 -0.0468  0.0086  0.0070
  998loPI   C2B15638  16.041  10.974   6.033  0.1038  0.0512  0.1403
  998loPI   C3B15639  16.117  10.923   6.452  0.1236 -0.0160  0.0717
  998loPI   C4B15640  16.239  10.620   6.603  0.3171 -0.0400 -0.1774
  999loPI    C115641  10.584  18.069   5.008 -0.2144 -0.3410  0.0958
  999loPI    C215642  10.563  17.682   4.909 -0.1746 -0.2686 -0.2049
  999loPI    C315643  10.757  17.939   4.672  0.0697 -0.1163  0.1506
  999loPI   PO415644  10.635  18.022   5.284 -0.0052 -0.1552 -0.2875
  999loPI   GL115645  10.613  17.915   5.679 -0.2894  0.0674  0.2901
  999loPI   GL215646  10.464  18.099   5.806 -0.1141 -0.1581 -0.1061
  999loPI   C1A15647  10.654  17.744   6.066  0.1487  0.2454  0.0162
  999loPI   C2A15648  10.682  17.773   6.569  0.3177  0.1319 -0.3811
  999loPI   C3A15649  10.878  17.769   6.938 -0.2620  0.2508 -0.0723
  999loPI   C4A15650  10.834  17.786   7.297 -0.1218 -0.1417 -0.0742
  999loPI   C5A15651  10.973  17.802   7.641  0.3154  0.0765  0.1963
  999loPI   C6A15652  10.867  18.021   8.074  0.1175  0.0829  0.3763
  999loPI   C1B15653  10.339  18.100   6.161  0.0904 -0.3323  0.2798
  999loPI   C2B15654  10.311  18.128   6.587 -0.2167 -0.1808 -0.5481
  999loPI   C3B15655  10.513  18.085   7.049  0.1256 -0.0827  0.1844
  999loPI   C4B15656  10.401  17.989   7.430 -0.1558  0.1617 -0.1866
 1000loPI    C115657   2.812  13.388   4.758 -0.3580  0.1764 -0.0002
 1000loPI    C215658   3.160  13.338   4.566 -0.3796 -0.0202  0.0095
 1000loPI    C315659   3.023  13.707   4.639 -0.2038  0.0580 -0.0486
 1000loPI   PO415660   2.864  13.206   4.961 -0.1837  0.0756  0.0604
 1000loPI   GL115661   3.137  13.258   5.414 -0.0314 -0.0940 -0.1371
 1000loPI   GL215662   3.433  13.440   5.476  0.0962 -0.1011  0.1864
 1000loPI   C1A15663   3.047  13.241   5.824  0.2742  0.1026  0.0431
 1000loPI   C2A15664   3.147  13.204   6.277  0.2631  0.0390  0.0033
 1000loPI   C3A15665   3.133  13.072   6.752  0.1137 -0.2673  0.0061
 1000loPI   C4A15666   3.191  12.906   7.106  0.0297 -0.0819 -0.1373
 1000loPI   C5A15667   3.314  12.846   7.534 -0.0446  0.0086  0.1119
 1000loPI   C6A15668   3.426  12.840   7.900  0.1598  0.1182 -0.3051
 1000loPI   C1B15669   3.590  13.317   5.888 -0.0273 -0.1294  0.0012
 1000loPI   C2B15670   3.658  13.213   6.391  0.0564 -0.3247  0.5401
 1000loPI   C3B15671   3.646  13.030   6.834 -0.0349  0.1198 -0.1012
 1000loPI   C4B15672   3.667  13.135   7.258 -0.1451  0.0265  0.2184
 1001loPI    C115673   4.946   6.232   4.731  0.2032 -0.2245 -0.0590
 1001loPI    C215674   4.705   6.441   4.490  0.1651  0.0813  0.2365
 1001loPI    C315675   5.101   6.455   4.438  0.1553  0.1162  0.1697
 1001loPI   PO415676   4.787   6.273   4.978  0.0365 -0.3389  0.1446
 1001loPI   GL115677   4.440   6.268   5.293  0.1584 -0.0675 -0.2067
 1001loPI   GL215678   4.119   6.493   5.291 -0.0969  0.1231 -0.3634
 1001loPI   C1A15679   4.469   6.277   5.742  0.0484  0.2179 -0.1234
 1001loPI   C2A15680   4.296   6.351   6.106  0.0098  0.0026 -0.0834
 1001loPI   C3A15681   4.050   6.547   6.288 -0.3724 -0.0559  0.0221
 1001loPI   C4A15682   3.886   6.791   6.553 -0.0522 -0.0273 -0.0266
 1001loPI   C5A15683   3.938   7.005   6.970  0.2756 -0.1446 -0.2044
 1001loPI   C6A15684   3.829   7.064   7.428 -0.1459 -0.1250 -0.2212
 1001loPI   C1B15685   3.886   6.445   5.667  0.1552 -0.0363  0.1612
 1001loPI   C2B15686   3.586   6.476   6.034 -0.1432  0.0576  0.0663
 1001loPI   C3B15687   3.507   6.454   6.479  0.2526  0.1606 -0.2030
 1001loPI   C4B15688   3.646   6.347   6.868 -0.1316 -0.2736 -0.0847
 1002loPI    C115689   0.031   5.710   4.240  0.2401 -0.3217 -0.1120
 1002loPI    C215690  -0.292   5.499   4.136 -0.0388  0.0615 -0.0439
 1002loPI    C315691  -0.238   5.866   3.988  0.4704 -0.0727 -0.2087
 1002loPI   PO415692   0.010   5.735   4.507 -0.4097 -0.0386 -0.1294
 1002loPI   GL115693   0.058   5.616   4.884  0.1482 -0.1175 -0.1280
 1002loPI   GL215694  -0.212   5.760   5.009 -0.1729  0.0487 -0.0352
 1002loPI   C1A15695   0.064   5.422   5.302  0.0195  0.3221 -0.0636
 1002loPI   C2A15696  -0.242   5.597   5.555  0.1180 -0.1073 -0.0086
 1002loPI   C3A15697  -0.404   5.643   5.985 -0.3143  0.0817 -0.0826
 1002loPI   C4A15698  -0.360   5.681   6.408  0.0556 -0.2216 -0.2386
 1002loPI   C5A15699  -0.409   5.667   6.801 -0.0509  0.2035 -0.3140
 1002loPI   C6A15700  -0.370   5.570   7.210 -0.0836  0.0313 -0.1142
 1002loPI   C1B15701  -0.397   6.067   5.334  0.3076  0.3482  0.2402
 1002loPI   C2B15702  -0.096   6.105   5.749  0.4367  0.0016  0.0508
 1002loPI   C3B15703  -0.084   6.095   6.233  0.1989 -0.1146  0.1502
 1002loPI   C4B15704   0.025   5.921   6.581  0.1830 -0.1222  0.0011
 1003loPI    C115705   3.944   3.776   4.715  0.0113 -0.1025 -0.0667
 1003loPI    C215706   4.037   3.388   4.744  0.1645 -0.0748 -0.1765
 1003loPI    C315707   4.327   3.661   4.704  0.0761  0.0790  0.1846
 1003loPI   PO415708   3.748   3.863   4.858 -0.3148  0.0389 -0.2697
 1003loPI   GL115709   4.004   4.053   5.338 -0.1001 -0.0155 -0.2261
 1003loPI   GL215710   4.119   3.713   5.454 -0.1184 -0.3322 -0.0228
 1003loPI   C1A15711   4.110   4.185   5.676 -0.2238  0.1667  0.1952
 1003loPI   C2A15712   4.352   4.378   6.040  0.3234  0.0102 -0.1491
 1003loPI   C3A15713   4.591   4.394   6.410  0.0577  0.2679  0.1478
 1003loPI   C4A15714   4.743   4.297   6.763 -0.0524 -0.1261 -0.0155
 1003loPI   C5A15715   4.846   4.058   7.232 -0.3032  0.1481  0.1720
 1003loPI   C6A15716   5.047   3.615   7.178  0.0217  0.1564 -0.2352
 1003loPI   C1B15717   4.106   3.495   5.974 -0.1441 -0.3092 -0.0633
 1003loPI   C2B15718   4.076   3.424   6.362  0.0257 -0.2916  0.3207
 1003loPI   C3B15719   4.215   3.472   6.786 -0.2233  0.2014  0.2420
 1003loPI   C4B15720   4.536   3.696   6.954 -0.1573  0.2131 -0.1754
 1004loPI    C115721   5.449   0.738   4.607 -0.0744  0.0586  0.0026
 1004loPI    C215722   5.540   1.046   4.368 -0.1793 -0.0635 -0.1976
 1004loPI    C315723   5.218   0.821   4.291  0.0151 -0.3542 -0.1780
 1004loPI   PO415724   5.397   0.902   4.890  0.3277  0.1781  0.1173
 1004loPI   GL115725   5.277   0.886   5.270  0.0874 -0.3484 -0.2249
 1004loPI   GL215726   5.101   0.851   5.327 -0.2127 -0.1732  0.2159
 1004loPI   C1A15727   5.364   1.215   5.615 -0.1162 -0.0298  0.1353
 1004loPI   C2A15728   5.389   1.607   5.771  0.1379  0.1329  0.0796
 1004loPI   C3A15729   5.328   2.024   6.062  0.0614  0.3731  0.1742
 1004loPI   C4A15730   5.476   2.242   6.456 -0.1433 -0.3399  0.0308
 1004loPI   C5A15731   5.704   2.178   6.867 -0.4298  0.1844 -0.0863
 1004loPI   C6A15732   5.738   2.020   7.299  0.0884  0.1604 -0.1840
 1004loPI   C1B15733   5.079   0.817   5.763 -0.2688 -0.2181 -0.0986
 1004loPI   C2B15734   5.127   1.047   6.084 -0.1785 -0.1208  0.1197
 1004loPI   C3B15735   5.039   1.420   6.281 -0.0780  0.0645  0.0302
 1004loPI   C4B15736   4.887   1.530   6.613  0.1435  0.0607  0.1019
 1005loPI    C115737   9.716   6.430   4.846  0.1056  0.0521  0.0681
 1005loPI    C215738   9.627   6.346   4.465  0.2031  0.0067  0.0552
 1005loPI    C315739   9.797   6.696   4.559 -0.0592  0.1274  0.0897
 1005loPI   PO415740   9.545   6.457   5.008  0.0489  0.2570  0.1071
 1005loPI   GL115741   9.465   6.446   5.388 -0.1411  0.1893 -0.2045
 1005loPI   GL215742   9.612   6.223   5.634 -0.0602  0.0458  0.1860
 1005loPI   C1A15743   9.425   6.727   5.667  0.0615 -0.3986  0.1095
 1005loPI   C2A15744   9.055   6.983   5.897 -0.0005 -0.0427  0.1708
 1005loPI   C3A15745   8.986   7.348   6.136 -0.3249 -0.0054  0.0961
 1005loPI   C4A15746   8.781   7.564   6.457  0.1310 -0.0982  0.1232
 1005loPI   C5A15747   8.820   7.971   6.629  0.0737  0.1040  0.0275
 1005loPI   C6A15748   8.838   8.373   6.712 -0.4834 -0.1346  0.0157
 1005loPI   C1B15749   9.553   6.327   5.982 -0.1582  0.0974  0.0777
 1005loPI   C2B15750   9.366   6.531   6.360  0.4919 -0.1487 -0.0550
 1005loPI   C3B15751   9.204   6.507   6.704  0.0513  0.0379  0.0589
 1005loPI   C4B15752   9.242   6.435   7.082 -0.0834 -0.0556 -0.2403
 1006loPI    C115753   7.613  15.111   4.909  0.2719 -0.3300  0.1162
 1006loPI    C215754   7.853  15.313   4.661  0.0852 -0.1480  0.0810
 1006loPI    C315755   7.544  15.106   4.515 -0.0888  0.0472  0.1679
 1006loPI   PO415756   7.564  15.259   5.096 -0.1005  0.1276 -0.1515
 1006loPI   GL115757   7.757  15.287   5.438 -0.0253 -0.0343 -0.3496
 1006loPI   GL215758   8.026  15.134   5.288  0.0050  0.5077  0.4540
 1006loPI   C1A15759   7.713  15.404   5.924 -0.1531 -0.0674 -0.0786
 1006loPI   C2A15760   7.571  15.742   6.204 -0.0936  0.1183  0.0664
 1006loPI   C3A15761   7.589  15.765   6.649 -0.2565  0.0307 -0.1371
 1006loPI   C4A15762   7.857  15.637   7.080  0.0777  0.1918  0.1797
 1006loPI   C5A15763   8.295  15.796   7.251 -0.0465  0.2292 -0.3311
 1006loPI   C6A15764   8.601  15.954   7.460  0.1711  0.1979 -0.0988
 1006loPI   C1B15765   8.145  15.128   5.800 -0.4261  0.1343  0.1188
 1006loPI   C2B15766   8.133  14.641   6.087 -0.0333 -0.2904 -0.2212
 1006loPI   C3B15767   8.033  14.493   6.461  0.2836  0.4369  0.2096
 1006loPI   C4B15768   8.007  14.604   6.897 -0.3171  0.3210  0.1826
 1007loPI    C115769   6.314   3.352   4.968  0.1950 -0.2034 -0.0204
 1007loPI    C215770   5.981   3.559   4.888  0.2610  0.0743  0.3966
 1007loPI    C315771   6.264   3.519   4.608  0.0180  0.1050  0.1431
 1007loPI   PO415772   6.347   3.455   5.223  0.1266 -0.1396  0.3444
 1007loPI   GL115773   6.641   3.539   5.603  0.0196  0.0921 -0.1313
 1007loPI   GL215774   6.968   3.638   5.581  0.1873  0.2929  0.0687
 1007loPI   C1A15775   6.588   3.437   5.980  0.1817 -0.0939  0.2076
 1007loPI   C2A15776   6.515   3.502   6.451  0.0600  0.1496 -0.0696
 1007loPI   C3A15777   6.557   3.345   6.908  0.2471  0.1331 -0.3896
 1007loPI   C4A15778   6.520   3.272   7.313 -0.2016  0.1977  0.1869
 1007loPI   C5A15779   6.414   3.433   7.672 -0.0444  0.1680  0.0734
 1007loPI   C6A15780   6.216   3.490   8.068  0.1993  0.1016 -0.2749
 1007loPI   C1B15781   6.966   3.773   6.023  0.2860  0.3291  0.0777
 1007loPI   C2B15782   7.002   3.916   6.426  0.0941  0.1852  0.0813
 1007loPI   C3B15783   6.921   3.731   6.730 -0.0145 -0.0210  0.0529
 1007loPI   C4B15784   6.931   3.584   7.138 -0.2553  0.0701 -0.0604
 1008loPI    C115785   9.799   2.110   5.093 -0.2844 -0.1071  0.1239
 1008loPI    C215786   9.875   2.467   4.931 -0.0414 -0.2133 -0.0004
 1008loPI    C315787   9.539   2.273   4.835 -0.0736 -0.1125 -0.0953
 1008loPI   PO415788   9.834   2.150   5.407 -0.2116 -0.0758  0.1168
 1008loPI   GL115789   9.979   2.314   5.772 -0.4730 -0.0502 -0.1051
 1008loPI   GL215790  10.190   2.559   5.860  0.2273  0.1495 -0.2388
 1008loPI   C1A15791  10.304   2.125   6.108  0.1835 -0.1037 -0.0999
 1008loPI   C2A15792  10.650   2.196   6.552  0.2186  0.0506  0.0154
 1008loPI   C3A15793  10.624   2.408   6.925 -0.1126  0.1888  0.2906
 1008loPI   C4A15794  10.650   2.778   7.214 -0.2915  0.1702 -0.2471
 1008loPI   C5A15795  10.939   2.971   7.580 -0.1660 -0.2383  0.0358
 1008loPI   C6A15796  11.264   2.802   7.828  0.1787  0.1645 -0.2789
 1008loPI   C1B15797  10.301   2.613   6.269 -0.3917  0.1307  0.1834
 1008loPI   C2B15798  10.148   2.415   6.599 -0.0395 -0.1241  0.1423
 1008loPI   C3B15799  10.074   2.447   7.124 -0.0831  0.1374  0.1269
 1008loPI   C4B15800   9.944   2.656   7.555  0.3679  0.0118 -0.1646
 1009loPI    C115801   6.018  12.579   4.853 -0.1652  0.0484 -0.2394
 1009loPI    C215802   5.838  12.239   4.743 -0.1151  0.0063 -0.1917
 1009loPI    C315803   5.837  12.554   4.497 -0.0888 -0.0557 -0.2716
 1009loPI   PO415804   6.057  12.564   5.197 -0.0295  0.2338 -0.0292
 1009loPI   GL115805   5.803  12.453   5.633  0.0619 -0.2461  0.3683
 1009loPI   GL215806   5.544  12.498   5.668  0.0590  0.4053 -0.0072
 1009loPI   C1A15807   5.854  12.124   5.995 -0.4125  0.0862 -0.3782
 1009loPI   C2A15808   6.101  12.220   6.380  0.0268 -0.3899 -0.1657
 1009loPI   C3A15809   5.993  12.223   6.763  0.0136  0.2438 -0.0553
 1009loPI   C4A15810   6.255  12.115   7.077 -0.0149  0.0219 -0.0134
 1009loPI   C5A15811   6.580  11.967   7.453 -0.2722  0.0086 -0.0418
 1009loPI   C6A15812   6.502  11.552   7.663  0.1381 -0.1748  0.1722
 1009loPI   C1B15813   5.418  12.457   6.029 -0.1744 -0.0333  0.0684
 1009loPI   C2B15814   5.578  12.366   6.488 -0.2461 -0.4570  0.2300
 1009loPI   C3B15815   5.697  12.576   6.930  0.1086 -0.1259 -0.0247
 1009loPI   C4B15816   6.004  12.443   7.317  0.0622  0.0724 -0.0735
 1010loPI    C115817   8.876   4.080   4.932  0.0159  0.1364 -0.0581
 1010loPI    C215818   8.565   4.128   5.179 -0.1893 -0.1423 -0.2555
 1010loPI    C315819   8.502   4.053   4.791  0.1274 -0.0670 -0.3241
 1010loPI   PO415820   9.027   3.999   5.113  0.1203  0.0391 -0.4063
 1010loPI   GL115821   9.075   4.242   5.499 -0.0643  0.0852  0.0022
 1010loPI   GL215822   8.754   4.404   5.561 -0.6275  0.0928 -0.3165
 1010loPI   C1A15823   8.945   4.160   5.931  0.2303  0.3080 -0.4268
 1010loPI   C2A15824   9.053   4.060   6.328 -0.0438 -0.3970  0.0138
 1010loPI   C3A15825   9.123   4.150   6.788  0.0018  0.1207 -0.2453
 1010loPI   C4A15826   9.252   3.946   7.205  0.1075  0.1058  0.1058
 1010loPI   C5A15827   9.546   3.983   7.495 -0.0212 -0.2501 -0.1400
 1010loPI   C6A15828   9.881   4.273   7.652  0.0869  0.2134 -0.0193
 1010loPI   C1B15829   8.733   4.675   5.898  0.2437 -0.1068 -0.2288
 1010loPI   C2B15830   8.492   4.754   6.144 -0.0479 -0.0086 -0.1913
 1010loPI   C3B15831   8.183   4.590   6.421 -0.2139 -0.0591 -0.0323
 1010loPI   C4B15832   8.091   4.439   6.811  0.0930 -0.1078 -0.0706
 1011loPI    C115833   3.299   2.814   4.685 -0.2013  0.0848 -0.1295
 1011loPI    C215834   3.368   3.113   4.428 -0.1670  0.1437 -0.0521
 1011loPI    C315835   3.474   2.739   4.333  0.0636  0.2002 -0.0255
 1011loPI   PO415836   3.291   2.905   4.903  0.0180  0.1484  0.2070
 1011loPI   GL115837   3.255   3.035   5.246 -0.0828 -0.0550  0.0380
 1011loPI   GL215838   3.003   3.334   5.249 -0.3715  0.1698 -0.1244
 1011loPI   C1A15839   3.262   3.239   5.689  0.0588  0.1614  0.0865
 1011loPI   C2A15840   3.437   3.131   6.110  0.0187 -0.0306  0.0248
 1011loPI   C3A15841   3.548   3.341   6.396 -0.1644 -0.2875  0.0448
 1011loPI   C4A15842   3.458   3.386   6.846 -0.1130  0.3077  0.0851
 1011loPI   C5A15843   3.420   3.619   7.281 -0.0585 -0.3069  0.1733
 1011loPI   C6A15844   3.646   4.053   7.424  0.0501 -0.1941  0.1619
 1011loPI   C1B15845   2.712   3.539   5.602  0.0833  0.0239  0.1797
 1011loPI   C2B15846   2.808   3.437   5.977  0.1063  0.0921  0.1320
 1011loPI   C3B15847   2.958   3.253   6.127  0.0568  0.2190 -0.1847
 1011loPI   C4B15848   3.105   3.225   6.560  0.0230 -0.1248 -0.1583
 1012loPI    C115849  13.405  17.471   5.004  0.0050  0.0077  0.1402
 1012loPI    C215850  13.147  17.761   4.907 -0.1406 -0.1782 -0.0362
 1012loPI    C315851  13.097  17.392   4.762  0.1343 -0.2549  0.0584
 1012loPI   PO415852  13.382  17.475   5.247  0.1692 -0.0910  0.2809
 1012loPI   GL115853  13.691  17.311   5.506  0.2173  0.0076 -0.0351
 1012loPI   GL215854  13.799  16.996   5.655  0.1692  0.0203 -0.2525
 1012loPI   C1A15855  13.748  17.394   5.920  0.0276 -0.1466  0.0967
 1012loPI   C2A15856  13.768  17.223   6.302 -0.2595  0.0921  0.4380
 1012loPI   C3A15857  13.793  17.110   6.687  0.1555 -0.0158 -0.0967
 1012loPI   C4A15858  13.756  16.944   7.123 -0.1534 -0.3391  0.3507
 1012loPI   C5A15859  13.691  17.030   7.662  0.1433  0.0389 -0.2413
 1012loPI   C6A15860  13.709  17.161   8.122 -0.1458  0.3266  0.0746
 1012loPI   C1B15861  14.147  17.089   5.882 -0.0454 -0.2604  0.0118
 1012loPI   C2B15862  14.566  17.225   5.983  0.2145 -0.0206 -0.0767
 1012loPI   C3B15863  14.901  17.194   5.794 -0.0733 -0.0734 -0.1714
 1012loPI   C4B15864  15.263  16.807   5.888  0.0241  0.0043 -0.1339
 1013loPI    C115865  11.375  14.017   4.865  0.1270 -0.0540 -0.2443
 1013loPI    C215866  11.382  14.340   4.628 -0.1121  0.2033  0.0890
 1013loPI    C315867  11.088  14.071   4.592  0.1382 -0.0349 -0.2524
 1013loPI   PO415868  11.414  14.149   5.095 -0.0155  0.2647  0.2753
 1013loPI   GL115869  11.187  14.149   5.446 -0.2079 -0.5390 -0.1117
 1013loPI   GL215870  11.483  14.069   5.639 -0.1246 -0.0391 -0.5348
 1013loPI   C1A15871  10.858  14.153   5.660  0.1646 -0.2967  0.0988
 1013loPI   C2A15872  10.774  14.388   6.056  0.3114  0.1537 -0.0488
 1013loPI   C3A15873  10.705  14.528   6.482 -0.0277 -0.1628  0.1404
 1013loPI   C4A15874  10.594  14.639   6.889 -0.1436  0.0893 -0.0361
 1013loPI   C5A15875  10.401  14.847   7.171  0.2581  0.0684  0.0074
 1013loPI   C6A15876  10.327  14.761   7.577 -0.1074  0.4204  0.0835
 1013loPI   C1B15877  11.562  14.121   6.011  0.2662 -0.1686  0.0421
 1013loPI   C2B15878  11.946  14.237   6.297  0.0889 -0.0668  0.0921
 1013loPI   C3B15879  12.061  14.114   6.747  0.0406  0.3331  0.1974
 1013loPI   C4B15880  11.978  13.922   7.157  0.1280  0.0222 -0.1430
 1014loPI    C115881  11.728   1.621   4.920 -0.0849  0.0530 -0.1187
 1014loPI    C215882  11.744   2.016   4.858  0.2308  0.0012 -0.3919
 1014loPI    C315883  12.054   1.784   4.756  0.2191 -0.2684  0.1500
 1014loPI   PO415884  11.694   1.595   5.195  0.2356 -0.0104  0.2387
 1014loPI   GL115885  11.548   1.602   5.550 -0.1289 -0.1043 -0.0122
 1014loPI   GL215886  11.335   1.772   5.699 -0.0285  0.1135 -0.0663
 1014loPI   C1A15887  11.644   1.421   5.966  0.1875  0.0325  0.1633
 1014loPI   C2A15888  11.658   1.514   6.387  0.1019 -0.3905 -0.1816
 1014loPI   C3A15889  11.545   1.647   6.889  0.2454  0.1145 -0.2958
 1014loPI   C4A15890  11.339   1.764   7.258 -0.2116 -0.0186 -0.0193
 1014loPI   C5A15891  11.052   1.898   7.538 -0.0016 -0.3134 -0.2213
 1014loPI   C6A15892  10.779   1.974   7.853 -0.4156  0.1645  0.0764
 1014loPI   C1B15893  11.314   1.842   6.195 -0.1824  0.0912  0.3642
 1014loPI   C2B15894  11.135   1.898   6.554 -0.1064 -0.1700  0.2098
 1014loPI   C3B15895  10.974   2.028   6.941 -0.1557  0.2386  0.0854
 1014loPI   C4B15896  10.673   2.023   7.220 -0.2911  0.0388  0.1144
 1015loPI    C115897   5.995  17.396   4.836 -0.0461 -0.1462  0.1039
 1015loPI    C215898   6.112  17.022   4.917 -0.1239 -0.1609  0.1490
 1015loPI    C315899   5.857  17.091   4.616 -0.0677 -0.1381  0.1064
 1015loPI   PO415900   6.241  17.527   4.898  0.1637  0.1581 -0.3542
 1015loPI   GL115901   6.313  17.751   5.241  0.1523 -0.3642  0.2301
 1015loPI   GL215902   6.597  17.846   5.307  0.0802  0.1064 -0.2515
 1015loPI   C1A15903   6.356  17.650   5.741 -0.0453 -0.0825  0.0428
 1015loPI   C2A15904   6.041  17.670   6.074  0.0313 -0.2028 -0.1038
 1015loPI   C3A15905   5.647  17.801   6.351 -0.0352  0.0945 -0.1131
 1015loPI   C4A15906   5.389  17.761   6.782 -0.1644 -0.0473  0.0989
 1015loPI   C5A15907   5.490  17.698   7.235  0.0094  0.0536  0.0756
 1015loPI   C6A15908   5.871  17.813   7.414  0.1012  0.0424 -0.0537
 1015loPI   C1B15909   6.694  18.041   5.753 -0.1366  0.1290 -0.1791
 1015loPI   C2B15910   6.675  17.908   6.246 -0.1556  0.0869 -0.2234
 1015loPI   C3B15911   6.666  17.990   6.627 -0.0807 -0.2257 -0.0151
 1015loPI   C4B15912   6.660  18.327   6.862 -0.0480 -0.0895  0.3289
 1016loPI    C115913   2.512   1.007   4.243 -0.0548  0.0257  0.2436
 1016loPI    C215914   2.209   1.259   4.179 -0.1341 -0.1317 -0.0167
 1016loPI    C315915   2.448   1.154   3.877 -0.0040 -0.2441  0.1240
 1016loPI   PO415916   2.426   0.810   4.422  0.1331  0.1573  0.0726
 1016loPI   GL115917   2.401   0.778   4.938  0.0118  0.2697  0.2904
 1016loPI   GL215918   2.367   1.069   5.226 -0.0389 -0.1018 -0.0728
 1016loPI   C1A15919   2.615   0.657   5.357 -0.0644  0.0964  0.2959
 1016loPI   C2A15920   2.472   0.853   5.833  0.0176 -0.0480  0.0567
 1016loPI   C3A15921   2.208   0.826   6.167 -0.2864 -0.0073  0.0497
 1016loPI   C4A15922   2.039   0.819   6.579  0.2775 -0.1397  0.2984
 1016loPI   C5A15923   2.138   0.697   6.939 -0.2709 -0.1608 -0.1215
 1016loPI   C6A15924   2.584   0.494   7.037 -0.2368 -0.1822  0.1626
 1016loPI   C1B15925   2.277   1.276   5.615  0.0394 -0.0313 -0.0002
 1016loPI   C2B15926   2.323   1.282   6.015  0.0984  0.0157  0.0895
 1016loPI   C3B15927   2.459   1.282   6.447 -0.0536  0.0287 -0.3073
 1016loPI   C4B15928   2.474   1.447   6.932 -0.1124 -0.1139  0.3292
 1017loPI    C115929   4.166   2.145   4.558 -0.0673  0.0165  0.1108
 1017loPI    C215930   3.803   1.980   4.525  0.0981 -0.3533  0.0883
 1017loPI    C315931   4.115   1.814   4.339  0.2746 -0.0165  0.0769
 1017loPI   PO415932   4.215   2.244   4.806 -0.0665  0.0922 -0.0545
 1017loPI   GL115933   3.934   2.386   5.196 -0.3271  0.1883  0.3700
 1017loPI   GL215934   3.636   2.566   5.186 -0.0907 -0.1045 -0.1581
 1017loPI   C1A15935   3.691   2.158   5.467 -0.0391 -0.1404 -0.1867
 1017loPI   C2A15936   3.740   1.931   5.912 -0.0252 -0.0453 -0.2077
 1017loPI   C3A15937   3.566   1.999   6.230 -0.2010  0.1874 -0.2148
 1017loPI   C4A15938   3.457   2.122   6.601  0.0861 -0.0980  0.0061
 1017loPI   C5A15939   3.178   1.966   6.930  0.1284  0.0171  0.0704
 1017loPI   C6A15940   2.990   1.670   7.165  0.0417 -0.2297  0.0431
 1017loPI   C1B15941   3.423   2.593   5.534  0.1799 -0.3343 -0.0712
 1017loPI   C2B15942   3.435   2.685   5.917  0.0714 -0.2191  0.3790
 1017loPI   C3B15943   3.339   2.767   6.377  0.4384  0.0208 -0.3903
 1017loPI   C4B15944   3.634   2.652   6.678 -0.1734 -0.0431 -0.0476
 1018loPI    C115945   8.581  13.262   4.836 -0.2438  0.0394  0.0380
 1018loPI    C215946   8.531  13.200   4.444 -0.3403  0.1852  0.0266
 1018loPI    C315947   8.692  13.542   4.573 -0.2348  0.1044  0.1108
 1018loPI   PO415948   8.590  13.054   5.048 -0.4303  0.4142  0.2106
 1018loPI   GL115949   8.446  12.943   5.462 -0.1455  0.1099  0.1697
 1018loPI   GL215950   8.658  12.903   5.702 -0.2319  0.3195  0.0619
 1018loPI   C1A15951   8.206  13.236   5.786 -0.0916 -0.0862  0.0873
 1018loPI   C2A15952   8.141  13.371   6.210 -0.0225  0.0591  0.0597
 1018loPI   C3A15953   8.225  13.439   6.611 -0.0459  0.1208  0.2905
 1018loPI   C4A15954   8.478  13.695   6.789  0.0186 -0.0310 -0.2487
 1018loPI   C5A15955   8.514  13.899   7.167 -0.1194 -0.1570 -0.2595
 1018loPI   C6A15956   8.416  14.242   7.517 -0.0680  0.1190 -0.0649
 1018loPI   C1B15957   8.512  12.961   6.120  0.1564 -0.5582  0.0327
 1018loPI   C2B15958   8.657  13.155   6.510 -0.0022  0.0797 -0.0660
 1018loPI   C3B15959   8.530  13.119   6.877  0.0969 -0.2902 -0.0335
 1018loPI   C4B15960   8.189  13.440   7.119  0.0474 -0.0734  0.5134
 1019loPI    C115961  10.861  18.537   4.864  0.1802 -0.0503 -0.0321
 1019loPI    C215962  10.521  18.725   4.958  0.0941 -0.2848  0.1355
 1019loPI    C315963  10.536  18.488   4.636  0.2390  0.1024 -0.1507
 1019loPI   PO415964  10.934  18.401   5.125  0.1422  0.2442 -0.1759
 1019loPI   GL115965  11.097  18.182   5.439  0.1401  0.0168  0.0946
 1019loPI   GL215966  10.982  18.327   5.672  0.1479  0.4415  0.1519
 1019loPI   C1A15967  11.483  18.165   5.661 -0.2460  0.0985 -0.0272
 1019loPI   C2A15968  11.432  18.124   6.062 -0.2530  0.1218 -0.3332
 1019loPI   C3A15969  11.361  18.117   6.560  0.3242  0.1282 -0.1665
 1019loPI   C4A15970  11.337  17.962   7.019 -0.0057  0.2193 -0.3352
 1019loPI   C5A15971  11.363  17.594   7.340 -0.1087 -0.0270 -0.0084
 1019loPI   C6A15972  11.778  17.505   7.533 -0.4378  0.0362  0.0921
 1019loPI   C1B15973  10.964  18.129   6.025  0.1155 -0.3357  0.4251
 1019loPI   C2B15974  10.783  18.232   6.364 -0.2793  0.2533 -0.2824
 1019loPI   C3B15975  10.922  18.317   6.787 -0.0567  0.3760 -0.0028
 1019loPI   C4B15976  10.971  18.350   7.199  0.2804  0.0852 -0.4044
 1020loPI    C115977  11.770  13.697   5.028 -0.0399  0.0233  0.0269
 1020loPI    C215978  11.614  13.330   5.056 -0.1135  0.0698  0.2356
 1020loPI    C315979  11.517  13.565   4.747  0.0297 -0.1305  0.0355
 1020loPI   PO415980  11.700  13.785   5.241 -0.1258  0.0146 -0.3102
 1020loPI   GL115981  11.414  13.512   5.593  0.0329  0.0227  0.2911
 1020loPI   GL215982  11.172  13.702   5.696 -0.2615  0.0072 -0.0271
 1020loPI   C1A15983  11.656  13.653   5.955  0.1583 -0.0387  0.0138
 1020loPI   C2A15984  11.660  13.718   6.420 -0.0319 -0.0240  0.1868
 1020loPI   C3A15985  11.780  13.567   6.818  0.1516  0.0378  0.0291
 1020loPI   C4A15986  11.853  13.279   7.174  0.0853  0.0736 -0.1463
 1020loPI   C5A15987  12.124  13.287   7.473 -0.1996 -0.1171 -0.4229
 1020loPI   C6A15988  12.387  13.689   7.456  0.0060 -0.2565 -0.1702
 1020loPI   C1B15989  10.994  13.888   6.112 -0.1362  0.0940 -0.1543
 1020loPI   C2B15990  11.054  14.036   6.636 -0.0468  0.0385 -0.3127
 1020loPI   C3B15991  11.062  14.430   6.827  0.3734  0.3208 -0.1793
 1020loPI   C4B15992  11.407  14.682   6.995 -0.1533  0.0071  0.1389
 1021loPI    C115993  10.856  12.717   5.091  0.0122 -0.2219 -0.0694
 1021loPI    C215994  10.894  12.638   4.701 -0.0395 -0.2024 -0.0785
 1021loPI    C315995  10.534  12.723   4.853 -0.0189 -0.2064 -0.0273
 1021loPI   PO415996  11.050  12.459   5.129  0.1326  0.3841 -0.1958
 1021loPI   GL115997  10.809  12.142   5.496  0.1607 -0.0166  0.2487
 1021loPI   GL215998  10.830  11.736   5.272  0.0019 -0.1670 -0.1117
 1021loPI   C1A15999  11.015  12.066   5.852 -0.2505  0.0251  0.1366
 1021loPI   C2A16000  11.056  11.881   6.235  0.0870  0.0077  0.0446
 1021loPI   C3A16001  11.225  11.808   6.531 -0.1654 -0.1920  0.1001
 1021loPI   C4A16002  11.268  11.855   7.003 -0.0436 -0.3300  0.0817
 1021loPI   C5A16003  11.216  12.028   7.335  0.1960 -0.1285  0.1071
 1021loPI   C6A16004  11.306  12.108   7.734  0.1466 -0.4971  0.1014
 1021loPI   C1B16005  10.807  11.607   5.637 -0.5750  0.2135 -0.2578
 1021loPI   C2B16006  10.601  11.755   5.959 -0.1773 -0.0525  0.4230
 1021loPI   C3B16007  10.342  11.499   6.282  0.0999 -0.0370  0.0981
 1021loPI   C4B16008  10.344  11.489   6.749 -0.0280 -0.0844  0.3558
 1022loPI    C116009  18.992   3.485   4.132 -0.0255  0.2126  0.2026
 1022loPI    C216010  19.227   3.746   3.940 -0.0139 -0.0469 -0.1473
 1022loPI    C316011  19.113   3.408   3.758 -0.2217 -0.1771  0.2136
 1022loPI   PO416012  19.126   3.459   4.376  0.1318 -0.1116  0.0328
 1022loPI   GL116013  19.257   3.707   4.820 -0.0759 -0.2628 -0.2098
 1022loPI   GL216014  19.145   3.447   4.917 -0.0266 -0.3226 -0.1256
 1022loPI   C1A16015  19.138   3.736   5.256 -0.0581 -0.1327  0.1735
 1022loPI   C2A16016  19.370   3.848   5.646  0.0461 -0.1579  0.2054
 1022loPI   C3A16017  19.341   3.907   6.042  0.0095 -0.3321  0.2130
 1022loPI   C4A16018  19.282   3.973   6.559 -0.0707 -0.1759  0.0676
 1022loPI   C5A16019  19.417   3.982   6.967  0.1237  0.2316  0.0688
 1022loPI   C6A16020  19.540   3.849   7.437  0.1346  0.0701 -0.1042
 1022loPI   C1B16021  18.850   3.330   5.192 -0.1905  0.1110 -0.2514
 1022loPI   C2B16022  18.723   3.273   5.574 -0.1340 -0.2583 -0.0999
 1022loPI   C3B16023  18.727   3.292   5.957 -0.2402 -0.0511 -0.1245
 1022loPI   C4B16024  18.876   3.039   6.273  0.0276 -0.1136  0.2515
 1023loPI    C116025  19.076   7.047   4.575  0.2088  0.1164 -0.1626
 1023loPI    C216026  19.026   6.651   4.611 -0.1534  0.1842  0.1393
 1023loPI    C316027  19.100   6.812   4.252 -0.2175 -0.1339 -0.0193
 1023loPI   PO416028  18.814   7.104   4.755 -0.2501 -0.1823  0.0924
 1023loPI   GL116029  18.704   7.188   5.158 -0.1006 -0.1837 -0.0047
 1023loPI   GL216030  18.772   7.471   5.288  0.0282 -0.1112 -0.0542
 1023loPI   C1A16031  18.775   7.062   5.532 -0.2168 -0.1123 -0.1011
 1023loPI   C2A16032  18.726   6.932   5.890 -0.1148  0.1385 -0.0880
 1023loPI   C3A16033  18.698   6.810   6.327 -0.2031  0.0794  0.5027
 1023loPI   C4A16034  18.797   6.590   6.711  0.2258  0.2910  0.0877
 1023loPI   C5A16035  19.115   6.575   7.112  0.0073  0.2208  0.1553
 1023loPI   C6A16036  19.590   6.613   7.232  0.0390  0.1169 -0.1858
 1023loPI   C1B16037  18.488   7.524   5.679  0.0704 -0.0331  0.2002
 1023loPI   C2B16038  18.017   7.534   5.742 -0.0038 -0.0180  0.2770
 1023loPI   C3B16039  17.726   7.097   5.681 -0.2813 -0.2539 -0.0819
 1023loPI   C4B16040  17.954   6.691   5.680 -0.3021 -0.0056  0.1530
 1024loPI    C116041  16.863  10.013   4.346  0.0568 -0.0981 -0.1776
 1024loPI    C216042  16.724   9.649   4.434  0.1075 -0.0933 -0.0771
 1024loPI    C316043  16.868   9.725   4.068 -0.2242 -0.0771 -0.2071
 1024loPI   PO416044  16.881  10.164   4.592  0.0047 -0.2430  0.1294
 1024loPI   GL116045  17.078  10.143   4.917  0.1840  0.3074 -0.1238
 1024loPI   GL216046  16.880  10.433   5.083 -0.1276  0.2134 -0.0513
 1024loPI   C1A16047  17.186   9.765   5.256  0.0218  0.0444  0.2224
 1024loPI   C2A16048  17.510   9.519   5.569  0.1536 -0.0335 -0.1505
 1024loPI   C3A16049  17.364   9.390   5.982  0.1723  0.1348  0.0182
 1024loPI   C4A16050  17.106   9.298   6.383  0.0626 -0.0461 -0.0976
 1024loPI   C5A16051  16.997   9.103   6.733 -0.1091 -0.0388  0.1529
 1024loPI   C6A16052  17.341   9.058   7.087  0.1986 -0.2565 -0.0952
 1024loPI   C1B16053  16.933  10.190   5.448  0.0001  0.1079  0.3366
 1024loPI   C2B16054  17.009   9.779   5.742  0.1656  0.0681  0.1137
 1024loPI   C3B16055  16.997   9.745   6.225  0.0768  0.1037 -0.0200
 1024loPI   C4B16056  17.071   9.682   6.732  0.2546  0.0270 -0.1569
 1025loPI    C116057  13.581  10.679   4.680 -0.0996 -0.2255 -0.2236
 1025loPI    C216058  13.687  10.545   4.318 -0.2067 -0.0848 -0.3082
 1025loPI    C316059  13.640  10.937   4.380  0.1654 -0.0760 -0.0469
 1025loPI   PO416060  13.656  10.582   4.844 -0.3180  0.0565  0.0725
 1025loPI   GL116061  13.594  10.755   5.273  0.1298  0.1217 -0.0066
 1025loPI   GL216062  13.524  10.419   5.330 -0.3109  0.0291  0.0455
 1025loPI   C1A16063  13.856  10.680   5.593  0.0795 -0.3790 -0.1472
 1025loPI   C2A16064  13.898  10.651   6.075 -0.1786  0.3112  0.0586
 1025loPI   C3A16065  13.829  10.765   6.504 -0.1715 -0.3516  0.2364
 1025loPI   C4A16066  14.123  10.922   6.832 -0.3021  0.1705  0.0840
 1025loPI   C5A16067  14.432  11.154   7.010 -0.0444  0.0261 -0.0713
 1025loPI   C6A16068  14.682  11.472   7.077  0.0355  0.1222  0.0612
 1025loPI   C1B16069  13.392  10.365   5.768  0.1030 -0.2126  0.2636
 1025loPI   C2B16070  13.458  10.245   6.295 -0.1531 -0.0937 -0.0694
 1025loPI   C3B16071  13.502  10.189   6.688 -0.2040 -0.0095  0.0577
 1025loPI   C4B16072  13.557  10.368   6.970  0.0628  0.1002 -0.2564
 1026loPI    C116073  17.102  12.598   4.620 -0.2170  0.0349 -0.0385
 1026loPI    C216074  16.761  12.392   4.589 -0.2134  0.0398 -0.1142
 1026loPI    C316075  17.092  12.260   4.407 -0.1368 -0.0444  0.0819
 1026loPI   PO416076  17.194  12.694   4.824  0.3479 -0.2582 -0.1954
 1026loPI   GL116077  17.222  12.814   5.145 -0.1117 -0.0084 -0.1905
 1026loPI   GL216078  17.473  12.910   5.260 -0.1101  0.0680  0.0572
 1026loPI   C1A16079  17.023  12.981   5.506 -0.0336  0.0842 -0.0618
 1026loPI   C2A16080  16.756  12.927   5.913  0.0817 -0.2554  0.0047
 1026loPI   C3A16081  16.705  12.849   6.411  0.1593 -0.2021  0.0614
 1026loPI   C4A16082  16.556  13.102   6.645 -0.0494 -0.3275  0.1086
 1026loPI   C5A16083  16.198  13.362   6.788 -0.2273  0.1408 -0.1813
 1026loPI   C6A16084  15.892  13.687   6.837  0.3934  0.0240 -0.2908
 1026loPI   C1B16085  17.461  12.785   5.720 -0.2862  0.0908  0.0635
 1026loPI   C2B16086  17.160  12.877   6.132  0.1139 -0.1100  0.1316
 1026loPI   C3B16087  17.186  13.012   6.583  0.1841 -0.1483 -0.1014
 1026loPI   C4B16088  17.019  12.856   6.853 -0.0069 -0.1813 -0.2531
 1027loPI    C116089  14.856   9.286   4.659 -0.2945  0.2574 -0.1730
 1027loPI    C216090  15.060   9.614   4.762 -0.1977  0.1263  0.0612
 1027loPI    C316091  15.180   9.394   4.450 -0.1526  0.2096  0.0195
 1027loPI   PO416092  14.854   9.184   4.964  0.0016 -0.0188 -0.0204
 1027loPI   GL116093  14.930   8.982   5.199  0.0914  0.2661 -0.2215
 1027loPI   GL216094  15.273   9.203   5.297  0.0633  0.0399  0.0181
 1027loPI   C1A16095  15.074   8.991   5.692 -0.3673 -0.1205 -0.0962
 1027loPI   C2A16096  14.911   9.366   5.896 -0.2613  0.1985 -0.0544
 1027loPI   C3A16097  15.163   9.553   6.150 -0.1099  0.0588  0.1565
 1027loPI   C4A16098  15.269   9.524   6.513 -0.4948  0.1021 -0.4012
 1027loPI   C5A16099  15.721   9.457   6.710  0.0342 -0.2201  0.1132
 1027loPI   C6A16100  16.014   9.378   7.110  0.0741  0.2592  0.0892
 1027loPI   C1B16101  15.354   9.454   5.623  0.0021 -0.3980 -0.0742
 1027loPI   C2B16102  15.660   9.576   5.989 -0.2458  0.2313 -0.2353
 1027loPI   C3B16103  15.792   9.282   6.237  0.1714  0.0625  0.0816
 1027loPI   C4B16104  15.686   8.957   6.476 -0.2355 -0.1941 -0.0474
 1028loPI    C116105   8.667   6.381   4.636  0.1290 -0.0684  0.1599
 1028loPI    C216106   8.646   6.486   4.251  0.0357  0.2260  0.2423
 1028loPI    C316107   8.653   6.099   4.353 -0.0177  0.1457 -0.0497
 1028loPI   PO416108   8.438   6.537   4.724  0.2851 -0.2545  0.0159
 1028loPI   GL116109   8.152   6.414   5.076 -0.0052 -0.1040 -0.1156
 1028loPI   GL216110   7.862   6.357   5.167 -0.0004 -0.0899 -0.1561
 1028loPI   C1A16111   8.252   6.555   5.443  0.0541  0.3065 -0.0597
 1028loPI   C2A16112   8.346   6.516   5.802 -0.1424 -0.2658 -0.0815
 1028loPI   C3A16113   8.446   6.363   6.191  0.3184  0.0068  0.0241
 1028loPI   C4A16114   8.612   6.489   6.611  0.0333 -0.0458 -0.1247
 1028loPI   C5A16115   8.536   6.672   6.970  0.1643 -0.0593 -0.2106
 1028loPI   C6A16116   8.835   6.897   7.256 -0.1605 -0.1572 -0.1022
 1028loPI   C1B16117   7.809   6.351   5.693  0.4662 -0.2597 -0.0254
 1028loPI   C2B16118   7.940   6.490   6.201  0.1383  0.0848  0.0069
 1028loPI   C3B16119   8.111   6.447   6.764 -0.1539 -0.1884  0.4152
 1028loPI   C4B16120   8.170   6.180   7.150  0.0323 -0.1149  0.0175
 1029loPI    C116121  15.147  16.089   4.857 -0.0144  0.0873  0.0876
 1029loPI    C216122  15.472  16.078   4.624  0.1421  0.0710  0.3045
 1029loPI    C316123  15.203  15.783   4.605  0.0890  0.1330  0.0547
 1029loPI   PO416124  15.182  16.353   4.958 -0.0243  0.2676  0.2964
 1029loPI   GL116125  15.296  16.396   5.408 -0.0686  0.1504 -0.1142
 1029loPI   GL216126  15.076  16.093   5.365 -0.0129 -0.0765 -0.4133
 1029loPI   C1A16127  15.503  16.397   5.828  0.2164 -0.0145 -0.0646
 1029loPI   C2A16128  15.527  16.497   6.231 -0.2382 -0.1142  0.5021
 1029loPI   C3A16129  15.298  16.392   6.566 -0.1492  0.0416  0.0596
 1029loPI   C4A16130  14.995  16.367   6.891 -0.0351 -0.0866  0.2427
 1029loPI   C5A16131  14.907  16.202   7.251 -0.0023  0.0360  0.0841
 1029loPI   C6A16132  15.204  16.061   7.530 -0.0014 -0.1436 -0.0868
 1029loPI   C1B16133  15.150  15.974   5.696 -0.0056 -0.3262 -0.0812
 1029loPI   C2B16134  15.217  16.078   6.115 -0.0992  0.1605 -0.1236
 1029loPI   C3B16135  15.081  15.971   6.502 -0.1823  0.2573  0.0148
 1029loPI   C4B16136  15.137  15.894   6.894 -0.3771 -0.2661 -0.0613
 1030loPI    C116137  14.145   2.496   4.833  0.0388  0.1614  0.0105
 1030loPI    C216138  14.012   2.259   4.540  0.0933  0.0093  0.1072
 1030loPI    C316139  14.402   2.269   4.627  0.1157  0.2683 -0.0123
 1030loPI   PO416140  14.020   2.471   5.002 -0.1246  0.2008 -0.2420
 1030loPI   GL116141  13.678   2.324   5.280  0.1318 -0.2072  0.0243
 1030loPI   GL216142  13.538   2.565   5.475  0.1025 -0.0994 -0.1006
 1030loPI   C1A16143  13.717   2.132   5.709 -0.1538  0.3504  0.1494
 1030loPI   C2A16144  13.737   2.043   6.161 -0.1609  0.0022 -0.4000
 1030loPI   C3A16145  13.878   2.049   6.563  0.0129 -0.0442  0.0992
 1030loPI   C4A16146  13.957   2.100   7.002  0.1983  0.2462 -0.2452
 1030loPI   C5A16147  14.027   1.942   7.438  0.3004  0.0766  0.2065
 1030loPI   C6A16148  14.063   1.585   7.584  0.1439  0.0308  0.0452
 1030loPI   C1B16149  13.367   2.422   5.895 -0.1860 -0.2628  0.0914
 1030loPI   C2B16150  13.237   2.032   6.083 -0.1858  0.0605  0.2113
 1030loPI   C3B16151  13.298   1.814   6.399 -0.1859 -0.0882  0.2567
 1030loPI   C4B16152  13.567   1.643   6.654  0.0490 -0.0257 -0.1777
 1031loPI    C116153  11.025  17.520   4.779 -0.0318 -0.2025 -0.4085
 1031loPI    C216154  11.115  17.343   4.432  0.2866 -0.0924 -0.3853
 1031loPI    C316155  11.317  17.668   4.549  0.2627 -0.1971 -0.0411
 1031loPI   PO416156  11.162  17.422   5.030  0.1438 -0.1272  0.1061
 1031loPI   GL116157  11.376  17.449   5.463 -0.2871 -0.0609  0.1526
 1031loPI   GL216158  11.466  17.752   5.424 -0.0375  0.3652  0.2138
 1031loPI   C1A16159  11.121  17.659   5.826  0.4609  0.4203 -0.0113
 1031loPI   C2A16160  11.088  17.551   6.259  0.5731 -0.0047  0.0942
 1031loPI   C3A16161  11.193  17.434   6.613 -0.2352 -0.1790 -0.3772
 1031loPI   C4A16162  11.153  17.294   6.987 -0.1079 -0.0395  0.0093
 1031loPI   C5A16163  10.950  17.361   7.384  0.0972 -0.1852  0.1789
 1031loPI   C6A16164  10.626  17.295   7.636  0.1752  0.2303 -0.1321
 1031loPI   C1B16165  11.704  17.744   5.809 -0.0011  0.1861  0.2860
 1031loPI   C2B16166  11.602  17.661   6.268 -0.1625  0.1899  0.3786
 1031loPI   C3B16167  11.645  17.616   6.691 -0.1146 -0.0365  0.0191
 1031loPI   C4B16168  11.678  17.275   7.062 -0.2649  0.1448 -0.1914
 1032loPI    C116169   2.514  11.861   5.090 -0.0438 -0.0981  0.0265
 1032loPI    C216170   2.663  11.495   5.032 -0.1887 -0.1380 -0.1005
 1032loPI    C316171   2.536  11.711   4.720 -0.1368  0.0066 -0.0222
 1032loPI   PO416172   2.728  11.975   5.292  0.0292  0.2667 -0.0377
 1032loPI   GL116173   2.633  12.380   5.685 -0.1175  0.2299 -0.0088
 1032loPI   GL216174   2.415  12.623   5.561 -0.0593 -0.1213  0.1596
 1032loPI   C1A16175   2.952  12.128   5.889 -0.0592  0.1573 -0.1936
 1032loPI   C2A16176   3.078  12.037   6.259  0.1033  0.0459 -0.0184
 1032loPI   C3A16177   3.257  11.993   6.661 -0.0637  0.0838 -0.2067
 1032loPI   C4A16178   3.664  12.147   6.806 -0.1697  0.0796 -0.0489
 1032loPI   C5A16179   3.951  12.240   7.139  0.1679 -0.6077 -0.4399
 1032loPI   C6A16180   4.124  12.414   7.452  0.1798  0.0798  0.0661
 1032loPI   C1B16181   2.519  12.786   5.994 -0.0341 -0.2038 -0.2010
 1032loPI   C2B16182   2.688  13.011   6.277  0.0541 -0.0293  0.1888
 1032loPI   C3B16183   2.727  13.344   6.507  0.0509 -0.0426  0.1313
 1032loPI   C4B16184   2.654  13.453   6.951 -0.1264 -0.0904  0.2029
 1033loPI    C116185   5.965   6.430   4.829  0.0937 -0.0280  0.0044
 1033loPI    C216186   5.637   6.435   4.600  0.1279 -0.2345 -0.0508
 1033loPI    C316187   5.993   6.350   4.438  0.1244 -0.5755  0.1100
 1033loPI   PO416188   5.896   6.241   5.000  0.1901 -0.0673 -0.0687
 1033loPI   GL116189   5.657   6.123   5.392  0.0196 -0.0890  0.0913
 1033loPI   GL216190   5.364   6.179   5.425 -0.2778  0.2605  0.2207
 1033loPI   C1A16191   5.876   6.193   5.713 -0.1323 -0.0485 -0.2035
 1033loPI   C2A16192   5.702   6.295   6.181 -0.1382 -0.1359 -0.1704
 1033loPI   C3A16193   5.732   6.250   6.519  0.2127 -0.2271 -0.1925
 1033loPI   C4A16194   5.888   6.046   6.963 -0.1549  0.0880 -0.0292
 1033loPI   C5A16195   6.229   6.110   7.319  0.0222  0.0700 -0.1619
 1033loPI   C6A16196   6.662   6.083   7.399  0.1568 -0.2292  0.0517
 1033loPI   C1B16197   5.336   6.425   5.716 -0.0233 -0.1227  0.0305
 1033loPI   C2B16198   5.148   6.592   6.143  0.2258 -0.3451  0.2221
 1033loPI   C3B16199   4.928   6.803   6.541 -0.1817 -0.1464 -0.2177
 1033loPI   C4B16200   4.926   6.950   6.949 -0.1281 -0.0410  0.3237
 1034loPI    C116201   6.919   4.173   4.537 -0.0029 -0.1736  0.1630
 1034loPI    C216202   6.821   3.842   4.335  0.1503 -0.0987 -0.0378
 1034loPI    C316203   7.196   3.980   4.322  0.0415  0.1970 -0.1237
 1034loPI   PO416204   6.755   4.115   4.794 -0.0822 -0.2025  0.0005
 1034loPI   GL116205   6.716   4.161   5.276 -0.1228 -0.1939 -0.0762
 1034loPI   GL216206   6.745   4.437   5.263 -0.4334 -0.0174 -0.2708
 1034loPI   C1A16207   6.602   3.986   5.766 -0.0843 -0.1090  0.1859
 1034loPI   C2A16208   6.406   3.950   6.218 -0.3156 -0.5083  0.1158
 1034loPI   C3A16209   6.378   3.987   6.581  0.2151  0.0320  0.0892
 1034loPI   C4A16210   6.471   3.846   6.943 -0.1755  0.3079 -0.2551
 1034loPI   C5A16211   6.605   3.882   7.459  0.3381 -0.0281  0.3658
 1034loPI   C6A16212   6.623   3.830   7.919 -0.0641  0.1855  0.3370
 1034loPI   C1B16213   6.623   4.496   5.651  0.0621  0.0910 -0.2228
 1034loPI   C2B16214   6.391   4.408   5.992  0.2151  0.1140  0.2200
 1034loPI   C3B16215   6.226   4.432   6.342 -0.0234 -0.3647 -0.0597
 1034loPI   C4B16216   5.714   4.534   6.426 -0.0167 -0.1824  0.1922
 1035loPI    C116217   1.033   7.549   4.865 -0.0930 -0.0547 -0.1061
 1035loPI    C216218   1.369   7.663   4.681  0.0451 -0.3616 -0.0514
 1035loPI    C316219   1.044   7.573   4.466 -0.1286  0.3025 -0.0880
 1035loPI   PO416220   1.068   7.695   5.170 -0.0317  0.0125  0.1322
 1035loPI   GL116221   1.084   7.715   5.619  0.0831  0.6044 -0.2092
 1035loPI   GL216222   0.771   7.692   5.668  0.0299  0.0734 -0.3521
 1035loPI   C1A16223   1.063   7.607   6.101  0.1891 -0.1782 -0.1419
 1035loPI   C2A16224   1.316   7.479   6.420 -0.3789 -0.2805 -0.4209
 1035loPI   C3A16225   1.485   7.629   6.827  0.1356 -0.0700  0.1159
 1035loPI   C4A16226   1.514   7.356   7.136  0.0210 -0.3059 -0.1506
 1035loPI   C5A16227   1.356   7.115   7.480  0.1308  0.2695 -0.2529
 1035loPI   C6A16228   1.362   7.057   7.884  0.2809 -0.3214  0.1320
 1035loPI   C1B16229   0.663   7.930   5.959 -0.0667 -0.1983 -0.0831
 1035loPI   C2B16230   0.552   8.205   6.379 -0.0998 -0.1149  0.1284
 1035loPI   C3B16231   0.533   8.190   6.810 -0.2265  0.0879  0.1267
 1035loPI   C4B16232   0.566   7.766   7.043  0.1587  0.3362 -0.0514
 1036loPI    C116233  14.157   8.143   4.693 -0.1918 -0.1982  0.0398
 1036loPI    C216234  14.399   7.844   4.582 -0.0607 -0.0352 -0.1196
 1036loPI    C316235  14.132   7.993   4.323 -0.0606  0.0485 -0.0721
 1036loPI   PO416236  14.236   8.223   4.980 -0.0582  0.1609  0.1836
 1036loPI   GL116237  14.208   8.540   5.282 -0.0498 -0.0920  0.0838
 1036loPI   GL216238  13.960   8.552   5.397 -0.1800  0.0438  0.0671
 1036loPI   C1A16239  14.258   8.400   5.775 -0.0566  0.1668  0.0823
 1036loPI   C2A16240  14.110   8.700   6.112  0.2451  0.0846 -0.0646
 1036loPI   C3A16241  13.956   9.109   6.209 -0.1034  0.2360  0.2062
 1036loPI   C4A16242  13.961   9.328   6.580 -0.1553 -0.0315 -0.1459
 1036loPI   C5A16243  13.947   9.384   7.072 -0.4968  0.0680 -0.0034
 1036loPI   C6A16244  13.891   9.513   7.496  0.2063 -0.1974 -0.0487
 1036loPI   C1B16245  13.753   8.711   5.752 -0.1039  0.5179  0.2393
 1036loPI   C2B16246  13.626   8.724   6.160 -0.0480 -0.1749  0.2061
 1036loPI   C3B16247  13.787   8.797   6.619 -0.0868 -0.0092  0.1691
 1036loPI   C4B16248  13.494   8.698   6.853  0.0592 -0.0480  0.0500
 1037loPI    C116249  11.300  10.461   4.479  0.1689 -0.0583 -0.1356
 1037loPI    C216250  11.404  10.637   4.135 -0.1299  0.2261 -0.0856
 1037loPI    C316251  11.168  10.314   4.131 -0.1510  0.2419 -0.1474
 1037loPI   PO416252  11.499  10.546   4.646 -0.0180 -0.0502  0.3363
 1037loPI   GL116253  11.587  10.491   5.088 -0.0241 -0.1816  0.1042
 1037loPI   GL216254  11.333  10.783   5.084  0.3584 -0.1713  0.2469
 1037loPI   C1A16255  11.641  10.543   5.632  0.0395  0.1314 -0.0022
 1037loPI   C2A16256  11.443  10.614   5.974 -0.0048  0.0371  0.0241
 1037loPI   C3A16257  11.257  10.473   6.320 -0.5215  0.0491 -0.0100
 1037loPI   C4A16258  11.413  10.381   6.841 -0.1784  0.0185 -0.1075
 1037loPI   C5A16259  11.207  10.356   7.366 -0.0748 -0.1656  0.1306
 1037loPI   C6A16260  10.677  10.310   7.422  0.2972 -0.0907 -0.0734
 1037loPI   C1B16261  11.195  10.867   5.493 -0.1393 -0.1477  0.0100
 1037loPI   C2B16262  11.008  11.046   5.793 -0.0350 -0.1854  0.0326
 1037loPI   C3B16263  10.707  11.274   5.994  0.0179 -0.1627  0.1239
 1037loPI   C4B16264  10.786  11.422   6.433 -0.2349 -0.1815  0.0269
 1038loPI    C116265   9.604   7.653   4.850 -0.0051 -0.0939  0.2282
 1038loPI    C216266  10.001   7.652   4.798 -0.0444 -0.0731 -0.0970
 1038loPI    C316267   9.775   7.919   4.604 -0.2283 -0.1532  0.0043
 1038loPI   PO416268   9.640   7.368   5.013  0.1150 -0.0132 -0.1458
 1038loPI   GL116269   9.607   7.164   5.475 -0.1491 -0.1098 -0.0896
 1038loPI   GL216270   9.850   7.179   5.422 -0.3208 -0.0658 -0.4909
 1038loPI   C1A16271   9.371   7.413   5.807 -0.0606 -0.0525  0.0488
 1038loPI   C2A16272   9.536   7.478   6.193 -0.0833  0.1132  0.2612
 1038loPI   C3A16273   9.353   7.516   6.705  0.1829  0.2303 -0.6268
 1038loPI   C4A16274   9.024   7.597   6.913 -0.2133  0.1804  0.2217
 1038loPI   C5A16275   8.910   7.874   7.182 -0.1107  0.1376 -0.0407
 1038loPI   C6A16276   8.743   8.225   7.215  0.0682 -0.3463 -0.0880
 1038loPI   C1B16277   9.836   7.171   5.896 -0.0616 -0.1562  0.1910
 1038loPI   C2B16278   9.480   6.955   6.131 -0.1571  0.0906 -0.0585
 1038loPI   C3B16279   9.371   7.004   6.523 -0.0563  0.1955 -0.0563
 1038loPI   C4B16280   9.218   7.051   6.896  0.2931  0.1646  0.0822
 1039loPI    C116281  12.617   1.592   5.104  0.1847  0.1109 -0.0126
 1039loPI    C216282  12.861   1.505   4.800 -0.0462 -0.0218 -0.1628
 1039loPI    C316283  12.465   1.509   4.744 -0.0998 -0.2081  0.1752
 1039loPI   PO416284  12.690   1.891   5.174 -0.0315 -0.0106  0.0815
 1039loPI   GL116285  13.013   2.271   5.294  0.1154 -0.0154  0.0429
 1039loPI   GL216286  13.235   2.152   5.463  0.0229  0.0955 -0.0805
 1039loPI   C1A16287  12.978   2.566   5.636 -0.1417 -0.0729 -0.1092
 1039loPI   C2A16288  12.868   2.819   5.999  0.3622  0.2787 -0.2174
 1039loPI   C3A16289  12.537   2.705   6.356 -0.1477  0.0564 -0.1295
 1039loPI   C4A16290  12.278   2.695   6.695  0.3384 -0.1307  0.0101
 1039loPI   C5A16291  12.104   2.793   7.031  0.1035 -0.0770 -0.2490
 1039loPI   C6A16292  12.335   2.695   7.388 -0.0918  0.0309  0.0949
 1039loPI   C1B16293  12.882   2.027   5.737 -0.0872 -0.0726  0.1261
 1039loPI   C2B16294  12.828   2.324   6.084 -0.0929 -0.0387  0.0576
 1039loPI   C3B16295  13.099   2.454   6.366  0.0554 -0.2439 -0.3100
 1039loPI   C4B16296  13.381   2.355   6.499  0.0770 -0.0482  0.2853
 1040loPI    C116297   6.715   1.689   4.975  0.0179  0.0526 -0.1308
 1040loPI    C216298   6.640   2.031   4.782  0.1170  0.0650 -0.1483
 1040loPI    C316299   6.738   1.702   4.576 -0.1035 -0.0079 -0.1404
 1040loPI   PO416300   6.546   1.657   5.187  0.2258  0.2569  0.1027
 1040loPI   GL116301   6.541   1.199   5.300  0.2236  0.1878  0.1216
 1040loPI   GL216302   6.648   1.268   5.542  0.1251  0.1984 -0.0409
 1040loPI   C1A16303   6.247   0.984   5.651 -0.0426 -0.0996 -0.0063
 1040loPI   C2A16304   6.144   0.876   6.097 -0.1342  0.2904 -0.1442
 1040loPI   C3A16305   6.268   0.854   6.492  0.2290 -0.2407 -0.1770
 1040loPI   C4A16306   6.645   0.826   6.860  0.0003  0.2045  0.0746
 1040loPI   C5A16307   6.840   0.732   7.205  0.1292 -0.0065 -0.2313
 1040loPI   C6A16308   6.638   0.729   7.584 -0.0513  0.3770  0.2144
 1040loPI   C1B16309   6.900   1.317   5.948  0.0281 -0.1469  0.0753
 1040loPI   C2B16310   6.852   1.582   6.300 -0.1501 -0.2423  0.1395
 1040loPI   C3B16311   6.966   1.700   6.734 -0.0194 -0.2554 -0.0709
 1040loPI   C4B16312   6.729   1.823   7.169  0.1110 -0.3310 -0.1349
 1041loPI    C116313   4.768   4.800   4.833 -0.0099  0.2267 -0.0568
 1041loPI    C216314   4.456   4.670   4.619  0.0075  0.0752  0.0087
 1041loPI    C316315   4.823   4.668   4.460  0.0803 -0.3990  0.1659
 1041loPI   PO416316   4.724   4.635   5.059  0.0885 -0.0324 -0.0251
 1041loPI   GL116317   4.518   4.884   5.318  0.3449 -0.1963  0.1453
 1041loPI   GL216318   4.487   5.255   5.318  0.0036  0.2338  0.0674
 1041loPI   C1A16319   4.790   4.852   5.689  0.1933  0.0153 -0.0400
 1041loPI   C2A16320   4.934   5.030   6.049 -0.0831  0.1697  0.3394
 1041loPI   C3A16321   5.004   4.988   6.533  0.3024  0.0530 -0.1533
 1041loPI   C4A16322   4.909   5.049   6.931  0.0200  0.1120  0.1359
 1041loPI   C5A16323   4.619   5.034   7.264  0.0173 -0.2263 -0.1992
 1041loPI   C6A16324   4.441   5.105   7.667 -0.1364 -0.1159 -0.0866
 1041loPI   C1B16325   4.428   5.236   5.744 -0.3177  0.1808 -0.1240
 1041loPI   C2B16326   4.596   5.356   6.109  0.0631 -0.0774  0.2641
 1041loPI   C3B16327   4.715   5.399   6.535 -0.0309  0.1188  0.1022
 1041loPI   C4B16328   4.758   5.511   6.944  0.0387 -0.5186 -0.0676
 1042loPI    C116329   3.748  12.149   5.131 -0.1355 -0.0582  0.1329
 1042loPI    C216330   3.646  12.498   4.964 -0.0354 -0.0490  0.0907
 1042loPI    C316331   3.905  12.256   4.779 -0.0322 -0.1028  0.1651
 1042loPI   PO416332   3.802  12.233   5.360  0.0859  0.1857  0.2052
 1042loPI   GL116333   4.016  12.142   5.693  0.2491  0.1539 -0.0475
 1042loPI   GL216334   4.261  12.308   5.562 -0.0678 -0.2516  0.2159
 1042loPI   C1A16335   4.043  12.220   6.027 -0.2548 -0.0798 -0.0773
 1042loPI   C2A16336   4.063  12.143   6.430 -0.5507  0.0297  0.1539
 1042loPI   C3A16337   4.343  12.253   6.749  0.0963 -0.1266 -0.2523
 1042loPI   C4A16338   4.441  12.566   7.026  0.0997  0.0784  0.1368
 1042loPI   C5A16339   4.622  12.648   7.318  0.2103  0.2824 -0.4013
 1042loPI   C6A16340   4.513  12.602   7.754 -0.0155  0.0020 -0.0887
 1042loPI   C1B16341   4.525  12.373   5.924 -0.0514 -0.0811  0.0338
 1042loPI   C2B16342   4.533  12.523   6.312  0.1794  0.2438  0.0165
 1042loPI   C3B16343   4.838  12.551   6.654  0.1573 -0.0461  0.0046
 1042loPI   C4B16344   5.209  12.660   6.603 -0.2308  0.2006  0.0353
 1043loPI    C116345  12.299  14.784   5.069  0.2461 -0.0011 -0.0752
 1043loPI    C216346  12.222  14.529   4.770  0.0879  0.1120 -0.1324
 1043loPI    C316347  12.367  14.893   4.690 -0.0804  0.1912 -0.0824
 1043loPI   PO416348  11.938  14.723   5.168 -0.1389  0.0771  0.0882
 1043loPI   GL116349  11.653  14.469   5.444 -0.0516  0.0505 -0.0642
 1043loPI   GL216350  11.468  14.744   5.503 -0.1452 -0.2085  0.0574
 1043loPI   C1A16351  11.873  14.493   5.794  0.1799  0.1177 -0.0582
 1043loPI   C2A16352  12.092  14.836   6.034  0.1024 -0.1860  0.0972
 1043loPI   C3A16353  12.509  15.035   6.286  0.3128  0.3401 -0.3232
 1043loPI   C4A16354  12.754  15.246   6.663 -0.1293  0.0999 -0.0390
 1043loPI   C5A16355  12.654  15.317   7.096 -0.0908  0.1276 -0.1458
 1043loPI   C6A16356  12.512  15.258   7.500 -0.0278 -0.1507  0.2366
 1043loPI   C1B16357  11.241  14.474   5.792  0.0209 -0.1208  0.0254
 1043loPI   C2B16358  11.260  14.422   6.286 -0.0236  0.0863  0.2246
 1043loPI   C3B16359  11.526  14.242   6.569 -0.0489 -0.0491 -0.1444
 1043loPI   C4B16360  11.593  14.188   6.965 -0.0228  0.2034  0.4088
 1044loPI    C116361  12.917  11.656   4.768  0.0636  0.1890 -0.1121
 1044loPI    C216362  12.577  11.690   4.561  0.0422  0.1174 -0.0889
 1044loPI    C316363  12.903  11.890   4.444 -0.0087  0.1891 -0.1088
 1044loPI   PO416364  12.820  11.653   5.011  0.4460  0.1965  0.1463
 1044loPI   GL116365  12.963  11.456   5.315 -0.5074 -0.1369  0.0083
 1044loPI   GL216366  12.678  11.343   5.402  0.0602  0.0020  0.0932
 1044loPI   C1A16367  13.028  11.251   5.699 -0.0753 -0.0023 -0.0473
 1044loPI   C2A16368  13.081  11.063   6.088  0.1325 -0.0385  0.3254
 1044loPI   C3A16369  13.174  11.183   6.643  0.0353 -0.1700 -0.0675
 1044loPI   C4A16370  13.091  11.315   7.107 -0.0972  0.0074  0.3046
 1044loPI   C5A16371  12.675  11.299   7.390 -0.2045  0.2878 -0.4899
 1044loPI   C6A16372  12.380  11.635   7.340  0.2421  0.1572  0.0832
 1044loPI   C1B16373  12.580  11.092   5.644  0.1756  0.0395  0.1947
 1044loPI   C2B16374  12.444  10.915   6.015  0.2044  0.2020 -0.0592
 1044loPI   C3B16375  12.431  10.832   6.404  0.0356  0.1044  0.1746
 1044loPI   C4B16376  12.429  10.554   6.671  0.1130  0.0163  0.2708
 1045loPI    C116377  17.695  16.357   4.837 -0.0260  0.1348 -0.0001
 1045loPI    C216378  17.536  16.488   4.494  0.1803  0.2074 -0.0696
 1045loPI    C316379  17.874  16.274   4.488 -0.0381 -0.1482  0.0593
 1045loPI   PO416380  17.577  16.545   5.047  0.1110  0.0064  0.1209
 1045loPI   GL116381  17.758  16.667   5.449 -0.0448 -0.0726  0.0492
 1045loPI   GL216382  17.782  16.923   5.545  0.2792  0.1572  0.0904
 1045loPI   C1A16383  17.833  16.308   5.799 -0.0979 -0.3570  0.2676
 1045loPI   C2A16384  17.719  16.088   6.181 -0.0431 -0.1834 -0.0567
 1045loPI   C3A16385  17.459  16.173   6.600 -0.1465 -0.2672 -0.2653
 1045loPI   C4A16386  17.071  16.238   6.660  0.1927  0.0336 -0.3126
 1045loPI   C5A16387  16.948  16.684   6.712  0.1542 -0.2770  0.0300
 1045loPI   C6A16388  16.808  17.061   6.888  0.2859  0.0956  0.1175
 1045loPI   C1B16389  17.849  16.813   5.950 -0.1369 -0.0185  0.1274
 1045loPI   C2B16390  18.010  16.687   6.268 -0.1356  0.1079 -0.2238
 1045loPI   C3B16391  17.890  16.435   6.575  0.3149  0.2280 -0.3640
 1045loPI   C4B16392  18.018  15.984   6.576  0.1069 -0.4231 -0.1603
 1046loPI    C116393  12.664   5.188   4.918 -0.2226  0.3456  0.0693
 1046loPI    C216394  12.703   5.341   4.550 -0.1520 -0.0507 -0.0939
 1046loPI    C316395  12.339   5.296   4.711 -0.1726  0.2927 -0.0378
 1046loPI   PO416396  12.872   5.387   5.119  0.0472 -0.2673 -0.2702
 1046loPI   GL116397  12.812   5.451   5.528 -0.1853 -0.1052 -0.1410
 1046loPI   GL216398  13.045   5.223   5.548 -0.2808 -0.0707  0.2267
 1046loPI   C1A16399  12.421   5.608   5.691 -0.1012 -0.1569  0.3829
 1046loPI   C2A16400  12.304   5.701   6.132  0.0460 -0.3061  0.3183
 1046loPI   C3A16401  12.373   5.639   6.633 -0.0338  0.1450 -0.1807
 1046loPI   C4A16402  12.348   5.615   6.996  0.1496 -0.0134  0.0761
 1046loPI   C5A16403  12.222   5.438   7.382 -0.0117  0.1108  0.0060
 1046loPI   C6A16404  11.870   5.480   7.501 -0.1590 -0.0895  0.1332
 1046loPI   C1B16405  13.000   5.121   5.969  0.2534  0.0881  0.1809
 1046loPI   C2B16406  12.939   4.879   6.318  0.0162 -0.0641 -0.1105
 1046loPI   C3B16407  12.952   4.644   6.635  0.1738 -0.2534 -0.0751
 1046loPI   C4B16408  13.024   4.306   6.900 -0.1028 -0.1836  0.1727
 1047loPI    C116409   6.124   8.080   4.711 -0.0775  0.0545 -0.1015
 1047loPI    C216410   5.936   8.433   4.734  0.0379  0.1309 -0.3001
 1047loPI    C316411   5.731   8.102   4.642 -0.0774  0.1383 -0.0762
 1047loPI   PO416412   6.232   8.073   4.932 -0.2442  0.1791  0.1426
 1047loPI   GL116413   6.372   7.805   5.219  0.3525  0.2714 -0.0470
 1047loPI   GL216414   6.645   7.941   5.278 -0.1999 -0.0697  0.2917
 1047loPI   C1A16415   6.079   7.709   5.544 -0.1093  0.0530 -0.3694
 1047loPI   C2A16416   5.962   7.813   5.968  0.0822 -0.1553 -0.1326
 1047loPI   C3A16417   5.798   7.992   6.361  0.0506  0.0162 -0.1490
 1047loPI   C4A16418   5.900   7.997   6.805 -0.3748  0.1948  0.2127
 1047loPI   C5A16419   5.930   8.300   7.176  0.0877 -0.2588 -0.1672
 1047loPI   C6A16420   5.739   8.313   7.590  0.0893 -0.0068 -0.1452
 1047loPI   C1B16421   6.513   7.943   5.726  0.0590  0.1041 -0.0065
 1047loPI   C2B16422   6.397   7.963   6.204 -0.0806  0.0547 -0.1580
 1047loPI   C3B16423   6.445   7.850   6.680 -0.1171  0.1937 -0.2141
 1047loPI   C4B16424   6.616   7.654   7.044 -0.0524 -0.1449 -0.0791
 1048loPI    C116425  16.956   8.253   4.413  0.1377 -0.0269 -0.2132
 1048loPI    C216426  16.636   8.372   4.205 -0.0732 -0.1620  0.0279
 1048loPI    C316427  16.764   7.994   4.177  0.0170 -0.1293 -0.0057
 1048loPI   PO416428  16.910   8.227   4.665 -0.0357  0.0773  0.0955
 1048loPI   GL116429  17.161   8.243   4.995  0.3877  0.1510 -0.0985
 1048loPI   GL216430  16.904   8.444   5.163  0.0422  0.1012 -0.2632
 1048loPI   C1A16431  17.194   7.986   5.331  0.1598  0.1570  0.3021
 1048loPI   C2A16432  17.079   7.796   5.774 -0.1122 -0.2996 -0.4466
 1048loPI   C3A16433  17.126   8.002   6.217  0.0906 -0.1894  0.0728
 1048loPI   C4A16434  17.240   8.123   6.659 -0.0917  0.0312 -0.1591
 1048loPI   C5A16435  17.266   8.121   7.088  0.2347  0.1296  0.0418
 1048loPI   C6A16436  17.421   8.268   7.535  0.2100  0.1229 -0.3844
 1048loPI   C1B16437  16.841   8.316   5.623 -0.0045  0.1510  0.2948
 1048loPI   C2B16438  17.082   8.509   6.036  0.4652  0.0101 -0.1978
 1048loPI   C3B16439  17.139   8.616   6.478 -0.2094  0.2230 -0.0365
 1048loPI   C4B16440  17.544   8.508   6.756 -0.3379 -0.0661 -0.2062
 1049loPI    C116441  10.525   8.272   4.946  0.0827  0.0665 -0.2940
 1049loPI    C216442  10.271   8.161   4.658 -0.2538 -0.3252  0.1388
 1049loPI    C316443  10.136   8.355   4.981  0.0513 -0.2533  0.2266
 1049loPI   PO416444  10.753   8.074   5.005  0.4201  0.1083 -0.0842
 1049loPI   GL116445  10.965   8.303   5.314  0.2185  0.0817  0.3352
 1049loPI   GL216446  10.983   8.585   5.412 -0.0953 -0.0198  0.0074
 1049loPI   C1A16447  10.703   8.138   5.600 -0.4020 -0.0531  0.0201
 1049loPI   C2A16448  10.507   7.934   5.950 -0.2730 -0.1220 -0.0571
 1049loPI   C3A16449  10.654   7.905   6.380 -0.2706 -0.1631  0.0064
 1049loPI   C4A16450  10.696   7.833   6.778  0.3010 -0.0274  0.2453
 1049loPI   C5A16451  10.490   8.039   7.067  0.2563 -0.1101  0.1466
 1049loPI   C6A16452  10.569   8.393   7.335 -0.0566 -0.0630  0.0220
 1049loPI   C1B16453  10.724   8.678   5.766 -0.5091 -0.0683  0.0497
 1049loPI   C2B16454  10.840   8.336   6.069  0.0628  0.0157  0.3739
 1049loPI   C3B16455  11.139   8.001   5.893 -0.0468 -0.3412  0.1389
 1049loPI   C4B16456  11.346   7.639   5.782  0.4061  0.2363 -0.0966
 1050loPI    C116457  11.972   6.027   4.433 -0.0541 -0.0808 -0.0693
 1050loPI    C216458  11.604   6.080   4.284 -0.0638  0.0209 -0.0106
 1050loPI    C316459  11.652   5.908   4.642 -0.0636  0.1537  0.0539
 1050loPI   PO416460  12.056   6.309   4.478  0.0099  0.1379 -0.0778
 1050loPI   GL116461  12.359   6.337   4.798 -0.2641 -0.2794 -0.1208
 1050loPI   GL216462  12.574   6.283   4.947  0.0440 -0.0042 -0.0145
 1050loPI   C1A16463  12.132   6.498   5.210 -0.1343 -0.0181  0.0549
 1050loPI   C2A16464  12.154   6.491   5.624  0.1180  0.1530 -0.1656
 1050loPI   C3A16465  12.089   6.501   6.059  0.2105 -0.2087 -0.1700
 1050loPI   C4A16466  12.066   6.554   6.475  0.2593  0.2006 -0.3096
 1050loPI   C5A16467  11.818   6.341   6.865  0.1408 -0.0107 -0.2721
 1050loPI   C6A16468  11.578   6.062   6.961  0.1769 -0.0270 -0.2820
 1050loPI   C1B16469  12.669   6.496   5.385  0.1512  0.0345  0.1210
 1050loPI   C2B16470  12.887   6.422   5.751 -0.2713  0.1700 -0.2717
 1050loPI   C3B16471  13.203   6.592   6.000 -0.1780  0.0643  0.1204
 1050loPI   C4B16472  13.165   6.525   6.438 -0.0172  0.1417  0.1287
 1051loPI    C116473   8.222  10.990   4.629  0.0794  0.1762 -0.2147
 1051loPI    C216474   8.185  11.087   4.242  0.1078  0.2335 -0.2031
 1051loPI    C316475   8.464  10.824   4.357 -0.1103 -0.0278 -0.2619
 1051loPI   PO416476   8.318  11.137   4.789  0.0852 -0.1395 -0.2126
 1051loPI   GL116477   8.419  11.124   5.149  0.2010  0.2180  0.0620
 1051loPI   GL216478   8.118  10.960   5.247  0.0477  0.1984 -0.2486
 1051loPI   C1A16479   8.267  11.283   5.599 -0.1281 -0.4027  0.4506
 1051loPI   C2A16480   8.502  11.282   5.947  0.0538  0.0187  0.0994
 1051loPI   C3A16481   8.695  11.198   6.376 -0.3205 -0.2882  0.0067
 1051loPI   C4A16482   8.906  11.258   6.718 -0.2645  0.0124  0.2905
 1051loPI   C5A16483   9.089  11.434   7.133  0.0462 -0.2927 -0.0363
 1051loPI   C6A16484   9.053  11.109   7.401 -0.3007  0.1501 -0.3069
 1051loPI   C1B16485   8.016  10.836   5.705  0.2150  0.2969 -0.4654
 1051loPI   C2B16486   8.155  10.899   6.010 -0.1523 -0.0562  0.1519
 1051loPI   C3B16487   8.261  11.092   6.361  0.2115 -0.2022  0.1315
 1051loPI   C4B16488   8.300  11.263   6.716 -0.1311  0.2125 -0.0552
 1052loPI    C116489  16.302  10.929   4.607  0.3221 -0.4554  0.2381
 1052loPI    C216490  16.000  10.686   4.508  0.1107 -0.0397 -0.1760
 1052loPI    C316491  16.283  10.774   4.239  0.0700  0.3334 -0.1025
 1052loPI   PO416492  16.327  10.886   4.849 -0.1799 -0.4854 -0.3023
 1052loPI   GL116493  16.647  10.927   5.151 -0.4196 -0.0138 -0.1597
 1052loPI   GL216494  16.597  11.319   5.291  0.1608 -0.0776 -0.2986
 1052loPI   C1A16495  16.871  10.743   5.550 -0.3307  0.2708  0.0153
 1052loPI   C2A16496  16.828  10.441   5.835  0.1524 -0.3837 -0.3423
 1052loPI   C3A16497  16.967  10.185   6.078  0.0362 -0.2962 -0.0751
 1052loPI   C4A16498  17.196  10.111   6.517 -0.1159  0.0351 -0.2636
 1052loPI   C5A16499  17.310  10.215   6.926 -0.0629  0.1543 -0.0183
 1052loPI   C6A16500  17.329  10.394   7.327  0.0482  0.2093  0.1997
 1052loPI   C1B16501  16.520  11.109   5.729 -0.2402  0.0162  0.0343
 1052loPI   C2B16502  16.519  11.116   6.222 -0.0013 -0.0799 -0.0541
 1052loPI   C3B16503  16.532  11.100   6.608  0.0600 -0.1672  0.0425
 1052loPI   C4B16504  16.582  11.054   6.965 -0.0726  0.2805 -0.0734
 1053loPI    C116505  18.706  12.860   4.885  0.2128 -0.0172 -0.1513
 1053loPI    C216506  18.389  13.068   4.757  0.1609  0.0944  0.1513
 1053loPI    C316507  18.724  13.061   4.539 -0.1145 -0.1963 -0.2766
 1053loPI   PO416508  18.586  12.658   5.003  0.2541  0.4352 -0.3462
 1053loPI   GL116509  18.598  12.671   5.382 -0.1983  0.0753 -0.1746
 1053loPI   GL216510  18.418  13.003   5.349  0.2802  0.2959 -0.2454
 1053loPI   C1A16511  18.353  12.473   5.677  0.2057 -0.1104  0.2046
 1053loPI   C2A16512  18.333  12.455   6.149  0.0574  0.2828 -0.0046
 1053loPI   C3A16513  18.209  12.461   6.647  0.1033  0.1972  0.1467
 1053loPI   C4A16514  18.100  12.397   7.131  0.0354 -0.1062  0.0498
 1053loPI   C5A16515  17.626  12.114   7.158 -0.0334  0.1579  0.0628
 1053loPI   C6A16516  17.233  12.034   7.312  0.1101  0.0885 -0.0055
 1053loPI   C1B16517  18.389  13.343   5.625 -0.0036  0.1617  0.2135
 1053loPI   C2B16518  18.022  13.365   5.793  0.1130 -0.2008 -0.0774
 1053loPI   C3B16519  17.916  13.113   6.112 -0.0847 -0.1135  0.1041
 1053loPI   C4B16520  18.140  12.943   6.353  0.0854 -0.0708 -0.1117
 1054loPI    C116521   9.815   3.360   4.630  0.0337  0.3426  0.0921
 1054loPI    C216522   9.633   3.535   4.320 -0.0068  0.1126 -0.0163
 1054loPI    C316523   9.912   3.255   4.256 -0.0891 -0.0099  0.1551
 1054loPI   PO416524   9.781   3.532   4.902  0.1091 -0.2031  0.4824
 1054loPI   GL116525  10.057   3.657   5.286  0.1603  0.0891 -0.1380
 1054loPI   GL216526  10.418   3.591   5.354  0.2022  0.0678  0.0491
 1054loPI   C1A16527   9.955   3.502   5.727 -0.1657 -0.1546 -0.2534
 1054loPI   C2A16528   9.852   3.542   6.094  0.0919  0.1578  0.0521
 1054loPI   C3A16529   9.631   3.592   6.463 -0.0837  0.0066  0.1245
 1054loPI   C4A16530   9.546   3.571   6.947 -0.1818  0.0015 -0.0902
 1054loPI   C5A16531   9.555   3.313   7.351  0.0262  0.2542  0.2403
 1054loPI   C6A16532   9.984   3.159   7.428  0.0764  0.2720 -0.1775
 1054loPI   C1B16533  10.442   3.417   5.675  0.1142 -0.0676 -0.1224
 1054loPI   C2B16534  10.343   3.528   6.085 -0.1087 -0.0029  0.2164
 1054loPI   C3B16535  10.087   3.385   6.543 -0.1353  0.0364  0.1453
 1054loPI   C4B16536   9.905   3.228   6.870  0.2442 -0.3087  0.1931
 1055loPI    C116537   5.965   7.653   4.508 -0.1439 -0.0844  0.0186
 1055loPI    C216538   6.264   7.531   4.271  0.1934  0.1452  0.3162
 1055loPI    C316539   6.042   7.847   4.166 -0.2007 -0.2512 -0.0905
 1055loPI   PO416540   5.745   7.419   4.588  0.0720 -0.0041  0.0623
 1055loPI   GL116541   5.504   7.339   4.980  0.2164 -0.0511  0.0341
 1055loPI   GL216542   5.240   7.115   5.061 -0.1104 -0.1358 -0.1646
 1055loPI   C1A16543   5.554   7.363   5.380  0.3937 -0.4898  0.2371
 1055loPI   C2A16544   5.626   7.438   5.804 -0.2706 -0.2587  0.1295
 1055loPI   C3A16545   5.644   7.387   6.208 -0.0981  0.1886 -0.0225
 1055loPI   C4A16546   5.668   7.560   6.634 -0.3167 -0.1906 -0.2558
 1055loPI   C5A16547   5.676   7.480   7.020  0.0432  0.3865 -0.0113
 1055loPI   C6A16548   5.453   7.542   7.446 -0.0801 -0.1036 -0.3072
 1055loPI   C1B16549   4.837   7.210   5.394 -0.1054  0.4645  0.2327
 1055loPI   C2B16550   4.673   7.226   5.883  0.0090  0.1435  0.0279
 1055loPI   C3B16551   4.593   7.224   6.253 -0.2878  0.0676  0.2533
 1055loPI   C4B16552   4.669   7.334   6.730 -0.1027  0.0408  0.1597
 1056loPI    C116553   7.227   4.578   4.347  0.0436  0.0533  0.1367
 1056loPI    C216554   7.261   4.922   4.549  0.1737  0.0176  0.1767
 1056loPI    C316555   7.309   4.918   4.152  0.1836  0.0435  0.1776
 1056loPI   PO416556   7.370   4.439   4.501 -0.0120 -0.1014  0.4236
 1056loPI   GL116557   7.497   4.621   4.919 -0.0314  0.0165 -0.0538
 1056loPI   GL216558   7.470   5.013   5.030  0.2886 -0.0279  0.0109
 1056loPI   C1A16559   7.576   4.554   5.410 -0.2643  0.1178  0.2108
 1056loPI   C2A16560   7.521   4.521   5.821  0.0780  0.1984 -0.3740
 1056loPI   C3A16561   7.406   4.317   6.282 -0.1758  0.1046  0.0816
 1056loPI   C4A16562   7.306   4.348   6.707 -0.0374 -0.0878 -0.3419
 1056loPI   C5A16563   7.035   4.655   6.937 -0.1500  0.0879  0.2922
 1056loPI   C6A16564   6.633   4.718   7.192 -0.1903 -0.0488  0.3401
 1056loPI   C1B16565   7.646   5.036   5.417 -0.1153 -0.4334  0.2504
 1056loPI   C2B16566   7.591   5.003   5.892  0.2267 -0.1288 -0.0919
 1056loPI   C3B16567   7.364   5.182   6.127 -0.1032  0.2447 -0.2177
 1056loPI   C4B16568   7.435   5.320   6.456 -0.1617  0.0885 -0.2721
 1057loPI    C116569  18.425   6.457   4.436  0.0114  0.0012 -0.2906
 1057loPI    C216570  18.734   6.519   4.190  0.1556 -0.0328 -0.1207
 1057loPI    C316571  18.535   6.172   4.178  0.1962 -0.0552 -0.1521
 1057loPI   PO416572  18.516   6.572   4.696 -0.2799  0.1574  0.1012
 1057loPI   GL116573  18.676   6.654   5.060  0.0880  0.0802  0.2315
 1057loPI   GL216574  19.029   6.751   5.096  0.3535  0.0644  0.0884
 1057loPI   C1A16575  18.574   6.625   5.437  0.2292  0.1599 -0.1439
 1057loPI   C2A16576  18.327   6.506   5.942  0.1453  0.1124  0.1862
 1057loPI   C3A16577  17.922   6.780   6.220 -0.0039  0.2055  0.2040
 1057loPI   C4A16578  17.649   6.557   6.433 -0.2297 -0.0190 -0.1062
 1057loPI   C5A16579  17.403   6.628   6.766  0.3314  0.1887  0.2897
 1057loPI   C6A16580  17.122   6.986   6.937  0.3276  0.2833  0.1568
 1057loPI   C1B16581  19.042   6.553   5.460 -0.1946 -0.2159 -0.1570
 1057loPI   C2B16582  19.108   6.542   6.002 -0.1567 -0.0701 -0.1330
 1057loPI   C3B16583  19.248   6.585   6.424 -0.2979 -0.2028  0.1365
 1057loPI   C4B16584  19.462   6.392   6.775  0.0041 -0.0612  0.0869
 1058loPI    C116585  17.674   8.644   4.529 -0.2809  0.1472  0.1852
 1058loPI    C216586  17.430   8.342   4.627 -0.1313 -0.0155  0.0622
 1058loPI    C316587  17.421   8.494   4.257  0.0465 -0.1124  0.0169
 1058loPI   PO416588  17.676   8.836   4.827  0.1969 -0.0984  0.1672
 1058loPI   GL116589  17.557   8.913   5.251 -0.2707  0.1107  0.0516
 1058loPI   GL216590  17.265   8.766   5.115  0.3057  0.1369  0.1574
 1058loPI   C1A16591  17.405   8.925   5.707 -0.1151  0.0028  0.1966
 1058loPI   C2A16592  17.474   8.934   6.167 -0.2932 -0.0227 -0.3062
 1058loPI   C3A16593  17.505   8.970   6.540  0.0263 -0.0783  0.0241
 1058loPI   C4A16594  17.821   8.993   6.941 -0.0155 -0.1792 -0.0913
 1058loPI   C5A16595  17.717   9.323   7.313 -0.1578 -0.3036  0.0982
 1058loPI   C6A16596  17.994   9.495   7.527  0.4936  0.0112  0.0103
 1058loPI   C1B16597  17.403   8.465   5.424 -0.3119  0.2764 -0.1069
 1058loPI   C2B16598  17.479   8.320   5.767 -0.1110 -0.1446 -0.1998
 1058loPI   C3B16599  17.552   8.303   6.226 -0.0948  0.3520 -0.0103
 1058loPI   C4B16600  17.873   8.181   6.455  0.2355 -0.3316  0.1110
 1059loPI    C116601   0.616   9.177   4.523  0.2572 -0.1641  0.0757
 1059loPI    C216602   0.290   8.994   4.382  0.1345  0.0349  0.0976
 1059loPI    C316603   0.620   8.782   4.461  0.0227 -0.1621  0.0418
 1059loPI   PO416604   0.542   9.345   4.790  0.2966  0.1901 -0.1920
 1059loPI   GL116605   0.351   9.363   5.156  0.3094  0.0427 -0.3001
 1059loPI   GL216606   0.085   9.180   5.281  0.0197  0.0196 -0.0470
 1059loPI   C1A16607   0.527   9.268   5.576  0.0378  0.1054  0.0557
 1059loPI   C2A16608   0.545   9.083   5.986  0.1467 -0.0103  0.0080
 1059loPI   C3A16609   0.706   9.123   6.323 -0.4273  0.0207 -0.2928
 1059loPI   C4A16610   0.635   9.287   6.734 -0.3105 -0.1646 -0.3221
 1059loPI   C5A16611   0.503   9.446   7.169 -0.3008  0.1853 -0.0300
 1059loPI   C6A16612   0.177   9.163   7.440 -0.1488  0.0460 -0.1599
 1059loPI   C1B16613  -0.316   9.099   5.578  0.0377  0.0973  0.1908
 1059loPI   C2B16614  -0.434   9.091   5.867  0.0316 -0.1623  0.2127
 1059loPI   C3B16615  -0.465   9.223   6.219 -0.0475 -0.0466 -0.0318
 1059loPI   C4B16616  -0.472   9.330   6.679  0.0288  0.0143  0.0314
 1060loPI    C116617   9.018  11.331   4.868  0.4408  0.0525  0.0526
 1060loPI    C216618   8.754  11.263   4.575  0.2568  0.1913  0.1834
 1060loPI    C316619   9.091  11.466   4.499  0.1913  0.2610  0.0770
 1060loPI   PO416620   8.989  11.199   5.090  0.1129 -0.0446  0.0031
 1060loPI   GL116621   8.867  11.359   5.452 -0.2810  0.0846 -0.0369
 1060loPI   GL216622   8.719  11.587   5.600 -0.1511  0.0617 -0.0355
 1060loPI   C1A16623   9.041  11.331   5.933 -0.2077  0.0231  0.0761
 1060loPI   C2A16624   9.169  11.517   6.333  0.3160 -0.1398  0.0424
 1060loPI   C3A16625   9.370  11.778   6.650 -0.2825 -0.0143  0.3479
 1060loPI   C4A16626   9.262  12.051   7.001 -0.3277 -0.1554  0.3736
 1060loPI   C5A16627   9.321  12.243   7.354 -0.0414 -0.0993  0.3378
 1060loPI   C6A16628   9.036  12.612   7.450 -0.1420  0.2206 -0.1278
 1060loPI   C1B16629   8.727  11.719   6.060  0.3481 -0.5024  0.1969
 1060loPI   C2B16630   8.750  11.743   6.557 -0.0648  0.0838  0.1123
 1060loPI   C3B16631   8.632  11.673   6.960 -0.2230 -0.1232 -0.1429
 1060loPI   C4B16632   8.387  11.877   7.284 -0.0340 -0.2583  0.0693
 1061loPI    C116633  16.746   3.417   4.388 -0.0144  0.0094  0.1630
 1061loPI    C216634  16.811   3.707   4.656 -0.0801  0.0552  0.1293
 1061loPI    C316635  16.955   3.742   4.284  0.1163 -0.0641  0.1927
 1061loPI   PO416636  16.441   3.378   4.593 -0.3384  0.0439 -0.0469
 1061loPI   GL116637  16.449   3.517   5.030  0.2144 -0.2316 -0.0395
 1061loPI   GL216638  16.568   3.259   5.313  0.1286  0.1249  0.1616
 1061loPI   C1A16639  16.128   3.605   5.368  0.0055  0.2599 -0.0153
 1061loPI   C2A16640  15.772   3.482   5.615 -0.2746 -0.0287  0.0389
 1061loPI   C3A16641  15.667   3.385   6.010 -0.0536 -0.1326 -0.1076
 1061loPI   C4A16642  15.857   3.487   6.410  0.0595  0.0101 -0.0056
 1061loPI   C5A16643  15.939   3.503   6.806  0.0129 -0.1224 -0.2445
 1061loPI   C6A16644  16.243   3.515   7.120 -0.2270 -0.1495  0.0259
 1061loPI   C1B16645  16.308   3.175   5.563  0.3992 -0.1551  0.0328
 1061loPI   C2B16646  16.179   3.420   6.031  0.0643 -0.0696 -0.0685
 1061loPI   C3B16647  16.351   3.788   6.346 -0.0829 -0.0319  0.0046
 1061loPI   C4B16648  16.142   3.951   6.658  0.0784  0.0041 -0.0490
 1062loPI    C116649  11.439   7.553   5.156  0.0033 -0.0987  0.0173
 1062loPI    C216650  11.159   7.669   4.895  0.1192  0.1866  0.0157
 1062loPI    C316651  11.172   7.832   5.260  0.0094 -0.1508  0.1752
 1062loPI   PO416652  11.398   7.261   5.168 -0.1788  0.0917 -0.0127
 1062loPI   GL116653  11.374   6.920   5.406  0.2272  0.0469 -0.0951
 1062loPI   GL216654  11.767   6.896   5.472  0.1083 -0.0498 -0.1087
 1062loPI   C1A16655  11.350   7.096   5.772 -0.4016 -0.2459 -0.0974
 1062loPI   C2A16656  11.321   7.216   6.187 -0.1416 -0.0412  0.0878
 1062loPI   C3A16657  11.370   7.133   6.591  0.0914  0.2421 -0.3658
 1062loPI   C4A16658  11.202   7.018   7.081 -0.0392 -0.0002 -0.4072
 1062loPI   C5A16659  11.365   6.773   7.465  0.0732 -0.2293  0.0076
 1062loPI   C6A16660  11.672   6.456   7.386 -0.0594 -0.0249 -0.2047
 1062loPI   C1B16661  11.867   6.883   5.861  0.1254 -0.1223  0.1686
 1062loPI   C2B16662  11.806   6.965   6.336 -0.1072  0.0830  0.2917
 1062loPI   C3B16663  11.911   6.946   6.744 -0.0199 -0.2407  0.0487
 1062loPI   C4B16664  11.682   6.792   7.100 -0.3694  0.0083 -0.1047
 1063loPI    C116665  12.957  18.444   5.137 -0.0687  0.0793  0.0788
 1063loPI    C216666  12.733  18.421   4.806  0.1372 -0.1806 -0.0461
 1063loPI    C316667  13.086  18.233   4.823  0.2705  0.0839  0.2110
 1063loPI   PO416668  12.907  18.240   5.344  0.1850 -0.1924  0.0180
 1063loPI   GL116669  12.759  18.146   5.647 -0.0602 -0.0102 -0.1498
 1063loPI   GL216670  12.957  18.091   5.928  0.0418 -0.2423 -0.1085
 1063loPI   C1A16671  12.463  18.190   5.995  0.2096  0.3196  0.0626
 1063loPI   C2A16672  12.427  18.150   6.468  0.1139 -0.0582 -0.0800
 1063loPI   C3A16673  12.383  18.136   6.951 -0.0239  0.0276 -0.0458
 1063loPI   C4A16674  12.296  17.984   7.370 -0.0881  0.1542  0.2479
 1063loPI   C5A16675  12.149  17.783   7.819  0.2255 -0.0801 -0.1843
 1063loPI   C6A16676  11.864  17.631   8.051  0.0623  0.0890  0.2355
 1063loPI   C1B16677  12.951  18.148   6.338 -0.1111  0.1156  0.0963
 1063loPI   C2B16678  12.941  18.163   6.749 -0.1330 -0.0100 -0.0921
 1063loPI   C3B16679  12.819  18.038   7.173 -0.3812  0.0795  0.0070
 1063loPI   C4B16680  12.690  17.796   7.586  0.1916 -0.1578 -0.0561
 1064loPI    C116681  10.910   2.174   5.187 -0.3436  0.2821 -0.0223
 1064loPI    C216682  10.802   1.877   4.943 -0.1282  0.0791  0.1247
 1064loPI    C316683  10.837   2.249   4.801  0.1758 -0.0675 -0.1986
 1064loPI   PO416684  10.850   2.144   5.422  0.2790 -0.0413  0.2013
 1064loPI   GL116685  11.020   2.178   5.873 -0.0024  0.2383 -0.2676
 1064loPI   GL216686  11.361   2.271   5.875  0.1218 -0.2944 -0.2682
 1064loPI   C1A16687  10.718   2.395   6.120 -0.0492  0.3376 -0.3179
 1064loPI   C2A16688  10.830   2.761   6.392 -0.1363  0.1815 -0.1573
 1064loPI   C3A16689  10.870   2.985   6.765  0.0605  0.0132 -0.2075
 1064loPI   C4A16690  10.676   3.279   7.063 -0.1793  0.0923 -0.4260
 1064loPI   C5A16691  10.757   3.445   7.518 -0.2827  0.0810  0.0020
 1064loPI   C6A16692  10.767   3.888   7.775 -0.2482  0.3370 -0.1110
 1064loPI   C1B16693  11.277   2.383   6.346  0.2724  0.2214  0.2025
 1064loPI   C2B16694  11.224   2.472   6.769 -0.1595 -0.3196  0.1267
 1064loPI   C3B16695  11.168   2.379   7.253 -0.3479 -0.0589  0.2908
 1064loPI   C4B16696  10.704   2.389   7.523  0.3091 -0.1661  0.0572
 1065loPI    C116697   2.923   4.167   4.586 -0.1821 -0.2092 -0.0745
 1065loPI    C216698   2.688   4.435   4.404  0.0450  0.0781  0.0497
 1065loPI    C316699   3.060   4.371   4.271 -0.0161 -0.1965  0.0050
 1065loPI   PO416700   2.931   4.225   4.915  0.0369 -0.2015 -0.1933
 1065loPI   GL116701   3.064   4.156   5.223  0.2903 -0.0064  0.0903
 1065loPI   GL216702   3.036   3.918   5.287  0.1100 -0.1912 -0.1515
 1065loPI   C1A16703   3.134   4.243   5.626 -0.0628 -0.0492 -0.0839
 1065loPI   C2A16704   3.417   4.212   6.035  0.1820  0.0355 -0.2268
 1065loPI   C3A16705   3.505   4.252   6.480  0.0345 -0.2844  0.1787
 1065loPI   C4A16706   3.450   4.267   6.890 -0.3264 -0.2747  0.2321
 1065loPI   C5A16707   3.324   4.585   7.206 -0.2939  0.1921 -0.1154
 1065loPI   C6A16708   3.342   4.429   7.614 -0.0267  0.0488  0.2211
 1065loPI   C1B16709   3.167   3.699   5.597 -0.0305 -0.1548 -0.2224
 1065loPI   C2B16710   3.246   3.630   6.064 -0.2041  0.2432  0.1511
 1065loPI   C3B16711   2.967   3.731   6.426  0.3574  0.0404 -0.0264
 1065loPI   C4B16712   3.176   3.827   6.746  0.1554  0.0861  0.0497
 1066loPI    C116713  14.956   1.436   4.730 -0.0363 -0.1643 -0.0277
 1066loPI    C216714  15.003   1.039   4.723 -0.0497 -0.1663 -0.0012
 1066loPI    C316715  14.646   1.200   4.643 -0.0245 -0.1557 -0.0939
 1066loPI   PO416716  15.062   1.529   4.922 -0.1956  0.2544 -0.2269
 1066loPI   GL116717  15.241   1.387   5.252 -0.0948  0.0128 -0.0853
 1066loPI   GL216718  15.264   1.107   5.281  0.1012  0.1544  0.2848
 1066loPI   C1A16719  15.468   1.557   5.568 -0.1901  0.0065  0.0281
 1066loPI   C2A16720  15.393   1.468   5.989  0.0147  0.1581 -0.2293
 1066loPI   C3A16721  15.247   1.437   6.394 -0.0157  0.2563  0.0247
 1066loPI   C4A16722  15.437   1.486   6.856  0.0626  0.3558  0.1685
 1066loPI   C5A16723  15.581   1.757   7.218 -0.3550 -0.0961 -0.4992
 1066loPI   C6A16724  15.655   1.997   7.556  0.2562 -0.0461  0.2924
 1066loPI   C1B16725  15.170   1.003   5.712 -0.1104 -0.3960  0.0520
 1066loPI   C2B16726  15.287   1.004   6.143  0.1822  0.1314  0.1613
 1066loPI   C3B16727  15.409   0.929   6.584 -0.4556  0.2152  0.0214
 1066loPI   C4B16728  15.620   0.622   6.960 -0.1748 -0.2527 -0.1599
 1067loPI    C116729   5.049   3.041   4.671  0.0046 -0.2164 -0.0406
 1067loPI    C216730   4.944   2.713   4.874 -0.2019 -0.3167 -0.3035
 1067loPI    C316731   4.743   2.817   4.544 -0.1642  0.0982 -0.2014
 1067loPI   PO416732   5.062   3.213   4.831 -0.1146 -0.0814 -0.0404
 1067loPI   GL116733   5.298   3.301   5.203 -0.1076 -0.0084  0.0197
 1067loPI   GL216734   5.174   3.648   5.318 -0.2808 -0.1823 -0.3196
 1067loPI   C1A16735   5.244   3.111   5.656  0.2261 -0.0371  0.1225
 1067loPI   C2A16736   5.206   3.124   5.998  0.2843  0.0255  0.0115
 1067loPI   C3A16737   5.302   2.747   6.197  0.0534 -0.0007  0.0731
 1067loPI   C4A16738   5.142   2.504   6.650  0.0599 -0.1322  0.3137
 1067loPI   C5A16739   5.122   2.377   7.082  0.4434  0.1373  0.0882
 1067loPI   C6A16740   5.099   2.698   7.417 -0.0442 -0.1709  0.1059
 1067loPI   C1B16741   5.156   3.596   5.767  0.1151 -0.2878  0.1054
 1067loPI   C2B16742   5.043   3.553   6.223 -0.1842  0.2228 -0.1566
 1067loPI   C3B16743   5.049   3.242   6.463 -0.0791 -0.0874  0.0369
 1067loPI   C4B16744   5.203   3.007   6.756  0.2352 -0.0761 -0.3151
 1068loPI    C116745   1.985   6.404   4.643  0.1844  0.0015  0.0889
 1068loPI    C216746   1.696   6.658   4.753 -0.1187 -0.2780 -0.0431
 1068loPI    C316747   1.768   6.592   4.365  0.2388 -0.0864 -0.0140
 1068loPI   PO416748   2.110   6.447   4.792 -0.0364  0.0840  0.1657
 1068loPI   GL116749   2.086   6.388   5.336  0.2336 -0.1761 -0.2909
 1068loPI   GL216750   2.198   6.392   5.546  0.1446 -0.2430 -0.0708
 1068loPI   C1A16751   1.917   6.762   5.484 -0.1056 -0.0653 -0.2307
 1068loPI   C2A16752   1.759   6.872   5.871 -0.0983 -0.1245  0.1533
 1068loPI   C3A16753   1.565   6.917   6.296 -0.1564 -0.0040 -0.1113
 1068loPI   C4A16754   1.265   7.046   6.603 -0.1303  0.2399 -0.0966
 1068loPI   C5A16755   0.975   7.303   6.724  0.0044  0.1009 -0.2045
 1068loPI   C6A16756   0.986   7.545   7.068 -0.0072 -0.1496  0.2703
 1068loPI   C1B16757   2.063   6.517   5.916  0.0655  0.0062 -0.1930
 1068loPI   C2B16758   2.085   6.462   6.238  0.0943  0.1249  0.4584
 1068loPI   C3B16759   2.113   6.604   6.595  0.0990 -0.2524  0.2984
 1068loPI   C4B16760   2.354   6.762   7.011  0.1995  0.1694 -0.2244
 1069loPI    C116761  17.494  12.135   4.749  0.1215 -0.1212 -0.0253
 1069loPI    C216762  17.698  11.988   4.438  0.0237  0.0777 -0.1856
 1069loPI    C316763  17.571  12.368   4.433  0.0338  0.0869  0.1043
 1069loPI   PO416764  17.456  11.991   4.892  0.0249 -0.0752  0.2366
 1069loPI   GL116765  17.231  12.177   5.301  0.0693 -0.1917  0.1557
 1069loPI   GL216766  17.012  12.214   4.983 -0.1054 -0.1514  0.2048
 1069loPI   C1A16767  17.107  12.439   5.557  0.3597 -0.0125 -0.1265
 1069loPI   C2A16768  16.902  12.484   6.004  0.2434 -0.1196  0.3149
 1069loPI   C3A16769  16.560  12.414   6.273 -0.0939  0.2748  0.2576
 1069loPI   C4A16770  16.472  12.506   6.726  0.0969 -0.2216  0.1168
 1069loPI   C5A16771  16.508  12.747   7.091  0.1219 -0.1280 -0.1475
 1069loPI   C6A16772  16.825  12.897   7.367 -0.1265  0.2906  0.1843
 1069loPI   C1B16773  16.724  12.253   5.315 -0.0165  0.1826 -0.1821
 1069loPI   C2B16774  16.591  12.522   5.599 -0.1510  0.0835  0.0309
 1069loPI   C3B16775  16.288  12.705   5.907 -0.1377  0.1505 -0.1455
 1069loPI   C4B16776  16.193  12.815   6.374 -0.0264  0.0210 -0.0023
 1070loPI    C116777   3.219   5.547   5.009  0.1631 -0.1961  0.0487
 1070loPI    C216778   3.157   5.170   4.893 -0.1209 -0.1088 -0.0914
 1070loPI    C316779   3.430   5.394   4.705 -0.0293 -0.2097 -0.0795
 1070loPI   PO416780   3.025   5.536   5.200  0.0706 -0.1613  0.0184
 1070loPI   GL116781   3.217   5.571   5.577  0.0167 -0.0873 -0.0379
 1070loPI   GL216782   3.519   5.541   5.490  0.0360  0.3265  0.2053
 1070loPI   C1A16783   3.444   5.480   5.993  0.0091  0.0237 -0.0754
 1070loPI   C2A16784   3.680   5.566   6.354  0.0371 -0.1276  0.0021
 1070loPI   C3A16785   3.974   5.608   6.546  0.0415 -0.0600 -0.1359
 1070loPI   C4A16786   3.994   5.736   6.899  0.0292  0.0616 -0.3261
 1070loPI   C5A16787   4.278   5.578   7.153 -0.2451  0.2853  0.0895
 1070loPI   C6A16788   4.515   5.662   7.404  0.1918  0.1849 -0.4446
 1070loPI   C1B16789   3.960   5.537   5.648  0.0986  0.0421 -0.0069
 1070loPI   C2B16790   4.136   5.497   6.002 -0.0102 -0.1273  0.2351
 1070loPI   C3B16791   4.127   5.168   6.291 -0.1154  0.1750 -0.0835
 1070loPI   C4B16792   4.027   5.023   6.629  0.2964 -0.0304 -0.2611
 1071loPI    C116793   5.038   1.650   4.622 -0.1910  0.0874 -0.1676
 1071loPI    C216794   5.381   1.445   4.610 -0.0697  0.2874 -0.1639
 1071loPI    C316795   5.039   1.268   4.502  0.0420  0.1036 -0.2223
 1071loPI   PO416796   5.051   1.795   4.914  0.0267  0.1741  0.1268
 1071loPI   GL116797   5.080   1.650   5.382 -0.0919  0.2611 -0.2553
 1071loPI   GL216798   4.943   1.929   5.412 -0.0844 -0.2193  0.1651
 1071loPI   C1A16799   4.835   1.445   5.823 -0.1076  0.0969 -0.0362
 1071loPI   C2A16800   4.446   1.400   5.954  0.0365  0.4256 -0.0766
 1071loPI   C3A16801   4.127   1.372   6.270  0.0139 -0.0071  0.0958
 1071loPI   C4A16802   4.090   1.346   6.697  0.0787  0.0793  0.0003
 1071loPI   C5A16803   3.817   1.245   7.057 -0.1408  0.0292 -0.0534
 1071loPI   C6A16804   3.823   0.903   7.381  0.0651 -0.0125  0.1295
 1071loPI   C1B16805   4.855   1.923   5.835  0.0420  0.1469  0.1533
 1071loPI   C2B16806   4.635   1.817   6.261 -0.0833 -0.2534  0.1923
 1071loPI   C3B16807   4.421   1.683   6.592  0.0608 -0.3300  0.1262
 1071loPI   C4B16808   4.341   1.864   6.973  0.2263 -0.4781 -0.0203
 1072loPI    C116809   1.434   5.889   4.293 -0.0296 -0.0805 -0.1316
 1072loPI    C216810   1.769   5.732   4.139  0.0053  0.0058 -0.1445
 1072loPI    C316811   1.760   6.117   4.247 -0.0235 -0.0495  0.0556
 1072loPI   PO416812   1.425   5.709   4.528  0.0264 -0.4699  0.0313
 1072loPI   GL116813   1.220   5.816   4.860 -0.1077  0.1475  0.2841
 1072loPI   GL216814   1.094   6.051   5.005 -0.0516  0.0936  0.2874
 1072loPI   C1A16815   1.371   5.781   5.349 -0.0469 -0.0184  0.2541
 1072loPI   C2A16816   1.266   5.916   5.705  0.1293  0.0734 -0.2187
 1072loPI   C3A16817   1.224   5.893   6.129 -0.1515 -0.2090  0.1456
 1072loPI   C4A16818   1.288   5.910   6.507 -0.3549  0.1965  0.3191
 1072loPI   C5A16819   1.321   5.739   6.848 -0.0787  0.0303  0.0379
 1072loPI   C6A16820   1.336   5.775   7.318 -0.0634 -0.2550  0.2014
 1072loPI   C1B16821   0.914   5.918   5.354  0.2270 -0.0769 -0.0732
 1072loPI   C2B16822   0.794   5.827   5.750 -0.2246  0.4713  0.1441
 1072loPI   C3B16823   0.663   5.717   6.206  0.0746  0.1182  0.3169
 1072loPI   C4B16824   0.429   5.667   6.557 -0.1043 -0.1823  0.1801
 1073loPI    C116825  16.953  11.751   4.721 -0.3610 -0.1490  0.2475
 1073loPI    C216826  16.837  11.824   4.345 -0.0812  0.0077  0.1891
 1073loPI    C316827  17.222  11.749   4.425 -0.1077  0.1545  0.4683
 1073loPI   PO416828  16.653  11.867   4.808  0.0446  0.3556  0.3022
 1073loPI   GL116829  16.415  11.796   5.228 -0.0811 -0.2054  0.1134
 1073loPI   GL216830  16.172  11.752   5.259 -0.1089 -0.4345  0.2843
 1073loPI   C1A16831  16.460  12.016   5.668 -0.0384 -0.1242 -0.0133
 1073loPI   C2A16832  16.470  11.939   6.128 -0.4284 -0.0125 -0.0697
 1073loPI   C3A16833  16.449  12.010   6.525  0.4058 -0.2304  0.1437
 1073loPI   C4A16834  16.346  12.051   6.958  0.1818  0.1458 -0.3081
 1073loPI   C5A16835  16.237  12.320   7.222  0.1496 -0.3029  0.2528
 1073loPI   C6A16836  16.433  12.494   7.540 -0.0609  0.2631 -0.0430
 1073loPI   C1B16837  16.253  11.530   5.682 -0.2468 -0.2475  0.1352
 1073loPI   C2B16838  16.176  11.472   6.082  0.1416 -0.3104 -0.0735
 1073loPI   C3B16839  16.216  11.524   6.535  0.2080  0.2488 -0.2429
 1073loPI   C4B16840  15.903  11.696   6.842  0.0246 -0.1427  0.0965
 1074loPI    C116841  16.197   7.128   5.064 -0.1126 -0.2494 -0.0697
 1074loPI    C216842  16.324   7.333   4.745 -0.1532 -0.0674  0.0302
 1074loPI    C316843  16.149   6.977   4.696  0.1164 -0.1810 -0.1291
 1074loPI   PO416844  16.068   7.262   5.164 -0.0229  0.3735 -0.0407
 1074loPI   GL116845  15.985   7.515   5.493  0.1181  0.1312 -0.1171
 1074loPI   GL216846  16.098   7.727   5.407  0.2316  0.0739 -0.0238
 1074loPI   C1A16847  15.714   7.381   5.848 -0.2469 -0.4241  0.2215
 1074loPI   C2A16848  15.536   7.630   6.234  0.0081  0.1524 -0.2072
 1074loPI   C3A16849  15.673   7.902   6.541  0.3675 -0.3006 -0.1033
 1074loPI   C4A16850  15.502   8.370   6.470 -0.0497  0.3481  0.0044
 1074loPI   C5A16851  15.282   8.677   6.638  0.0332 -0.1986 -0.0819
 1074loPI   C6A16852  15.270   9.016   6.791 -0.2061  0.2069  0.0481
 1074loPI   C1B16853  16.335   7.570   5.839  0.0676 -0.1759 -0.4371
 1074loPI   C2B16854  16.736   7.624   6.193  0.1190  0.1311 -0.0018
 1074loPI   C3B16855  16.689   7.774   6.635 -0.3484  0.2154  0.0987
 1074loPI   C4B16856  16.576   7.944   7.049 -0.1978  0.0848  0.1329
 1075loPI    C116857  15.985  15.948   4.519  0.3108  0.1056  0.1258
 1075loPI    C216858  15.861  16.312   4.407  0.0900 -0.0696 -0.2165
 1075loPI    C316859  16.139  16.121   4.192  0.1432 -0.1402 -0.0867
 1075loPI   PO416860  15.950  15.947   4.848 -0.0463  0.0659  0.0713
 1075loPI   GL116861  16.062  15.814   5.258  0.1712 -0.0228 -0.0562
 1075loPI   GL216862  16.180  15.467   5.241 -0.2376 -0.0803 -0.0705
 1075loPI   C1A16863  16.385  15.836   5.535 -0.2124 -0.1653 -0.0766
 1075loPI   C2A16864  16.416  16.166   5.895  0.2454 -0.0482  0.0883
 1075loPI   C3A16865  16.078  16.339   6.058 -0.0320  0.3500  0.1259
 1075loPI   C4A16866  15.978  16.349   6.485  0.0480 -0.1370  0.2112
 1075loPI   C5A16867  16.060  16.119   6.822  0.4182  0.2368  0.0522
 1075loPI   C6A16868  16.044  15.969   7.212  0.1394  0.1266  0.1573
 1075loPI   C1B16869  16.250  15.329   5.639 -0.0050  0.0839  0.1333
 1075loPI   C2B16870  15.965  15.460   5.989  0.0867  0.3219  0.1351
 1075loPI   C3B16871  15.751  15.540   6.379  0.1346 -0.0292  0.3144
 1075loPI   C4B16872  15.769  15.569   6.774 -0.2506  0.2638  0.0437
 1076loPI    C116873  12.290   8.918   4.450 -0.0158  0.2286 -0.1964
 1076loPI    C216874  12.002   8.810   4.705  0.2197  0.0574  0.0013
 1076loPI    C316875  11.995   8.678   4.328  0.1056 -0.0464  0.0392
 1076loPI   PO416876  12.309   9.168   4.499  0.3008  0.0940  0.4191
 1076loPI   GL116877  12.192   9.358   4.912  0.0395  0.2528  0.2645
 1076loPI   GL216878  11.978   9.115   5.108 -0.1582  0.1496  0.2007
 1076loPI   C1A16879  12.405   9.324   5.299 -0.1455 -0.0682 -0.0740
 1076loPI   C2A16880  12.282   9.353   5.714 -0.0313 -0.1431 -0.1395
 1076loPI   C3A16881  12.007   9.297   6.068 -0.0108 -0.1369 -0.1810
 1076loPI   C4A16882  12.037   9.251   6.506 -0.1038  0.0382  0.2053
 1076loPI   C5A16883  12.060   9.108   6.911 -0.1276 -0.1860  0.0194
 1076loPI   C6A16884  11.849   9.121   7.274 -0.2549  0.2546  0.1536
 1076loPI   C1B16885  11.980   9.048   5.508 -0.3968  0.1715  0.0653
 1076loPI   C2B16886  11.788   8.902   5.900 -0.0117  0.0411 -0.0430
 1076loPI   C3B16887  11.635   8.684   6.242 -0.0121 -0.0031  0.0244
 1076loPI   C4B16888  11.702   8.635   6.677 -0.1470 -0.1107 -0.4433
 1077loPI    C116889  17.217   2.334   4.353  0.1602 -0.2407  0.1215
 1077loPI    C216890  16.877   2.263   4.155  0.0753  0.3158  0.0497
 1077loPI    C316891  17.221   2.301   3.954  0.1054  0.2033  0.0789
 1077loPI   PO416892  17.292   2.186   4.638 -0.1217 -0.0332 -0.0382
 1077loPI   GL116893  17.405   2.164   5.044  0.0322 -0.0175  0.0444
 1077loPI   GL216894  17.259   2.377   5.252 -0.1043  0.2089  0.0907
 1077loPI   C1A16895  17.494   1.978   5.479 -0.2518 -0.0707 -0.1372
 1077loPI   C2A16896  17.614   1.796   5.806 -0.0435  0.3114  0.0949
 1077loPI   C3A16897  17.435   1.735   6.210  0.0417 -0.1075 -0.0165
 1077loPI   C4A16898  17.525   1.547   6.612  0.0273  0.2612  0.1226
 1077loPI   C5A16899  17.786   1.637   6.939 -0.0457  0.3215 -0.2025
 1077loPI   C6A16900  17.919   1.962   7.092  0.1380 -0.0361  0.1857
 1077loPI   C1B16901  17.118   2.309   5.603 -0.0087 -0.0020 -0.0229
 1077loPI   C2B16902  16.882   2.555   5.925 -0.1685  0.1034 -0.1712
 1077loPI   C3B16903  16.885   2.599   6.294 -0.2509  0.3310 -0.0859
 1077loPI   C4B16904  16.799   2.802   6.638 -0.2440  0.1430 -0.3107
 1078loPI    C116905   4.784  18.409   4.924  0.1255 -0.3499  0.1350
 1078loPI    C216906   5.007  18.438   4.593  0.0108  0.0830  0.0888
 1078loPI    C316907   4.608  18.456   4.569 -0.0006  0.0581  0.2452
 1078loPI   PO416908   4.883  18.589   5.052 -0.2652 -0.0846 -0.0251
 1078loPI   GL116909   4.830  18.683   5.391 -0.2450 -0.0520  0.0200
 1078loPI   GL216910   4.903  19.024   5.432 -0.1125 -0.0534  0.1878
 1078loPI   C1A16911   4.928  18.579   5.848 -0.0475  0.0258 -0.3927
 1078loPI   C2A16912   4.795  18.266   6.216  0.0895 -0.0227  0.1235
 1078loPI   C3A16913   4.983  18.423   6.551 -0.0365 -0.0384 -0.3581
 1078loPI   C4A16914   4.656  18.425   6.738 -0.5695 -0.0438  0.0962
 1078loPI   C5A16915   4.678  18.459   7.148  0.0182  0.0735  0.1339
 1078loPI   C6A16916   4.904  18.808   7.401  0.1464  0.1056 -0.1403
 1078loPI   C1B16917   5.145  19.130   5.838  0.2069  0.0134  0.0611
 1078loPI   C2B16918   5.181  19.065   6.259 -0.0019  0.1007  0.1899
 1078loPI   C3B16919   5.133  19.318   6.626  0.0829  0.1166 -0.1752
 1078loPI   C4B16920   5.094  19.745   6.948  0.0713 -0.1008  0.2289
 1079loPI    C116921  13.251   2.549   4.959  0.0939 -0.0488  0.0063
 1079loPI    C216922  13.575   2.465   4.741  0.1409  0.1645 -0.0081
 1079loPI    C316923  13.211   2.434   4.578  0.1585  0.0228 -0.0221
 1079loPI   PO416924  13.266   2.771   5.057  0.2989  0.0261  0.1435
 1079loPI   GL116925  13.399   3.027   5.375  0.0391 -0.1372  0.5931
 1079loPI   GL216926  13.340   3.368   5.494  0.3152  0.1548 -0.2504
 1079loPI   C1A16927  13.327   2.920   5.796 -0.0166 -0.0455  0.0647
 1079loPI   C2A16928  13.406   2.976   6.241  0.0148 -0.0278 -0.0992
 1079loPI   C3A16929  13.419   2.910   6.675  0.1346 -0.0995  0.0908
 1079loPI   C4A16930  13.314   2.604   6.913 -0.0426 -0.0996  0.0765
 1079loPI   C5A16931  13.009   2.344   7.148 -0.1034  0.3515 -0.0577
 1079loPI   C6A16932  12.595   2.283   7.289  0.1933  0.1377 -0.2939
 1079loPI   C1B16933  13.428   3.749   5.693  0.1542 -0.0241 -0.0073
 1079loPI   C2B16934  13.462   4.057   6.078  0.2385  0.0829 -0.0764
 1079loPI   C3B16935  13.491   4.278   6.475 -0.0350  0.1677 -0.1147
 1079loPI   C4B16936  13.401   4.657   6.832 -0.1075 -0.0266  0.1623
 1080loPI    C116937   8.959   6.797   4.788 -0.1633 -0.1763 -0.0810
 1080loPI    C216938   9.303   6.737   4.592 -0.1077 -0.0144 -0.0343
 1080loPI    C316939   8.963   6.786   4.388 -0.1203 -0.2695 -0.0785
 1080loPI   PO416940   8.915   7.006   4.907 -0.0321 -0.1871 -0.1908
 1080loPI   GL116941   9.038   7.174   5.349  0.0645  0.0102 -0.0856
 1080loPI   GL216942   8.957   6.820   5.426  0.1034  0.2537  0.0444
 1080loPI   C1A16943   8.749   7.414   5.650  0.5636 -0.2814  0.2614
 1080loPI   C2A16944   8.453   7.480   6.004  0.1800 -0.1048 -0.0737
 1080loPI   C3A16945   8.329   7.351   6.441 -0.0036  0.2288 -0.0593
 1080loPI   C4A16946   8.341   7.156   6.874 -0.1387  0.2381 -0.4685
 1080loPI   C5A16947   8.097   7.395   7.078  0.0901  0.0207  0.1472
 1080loPI   C6A16948   7.913   7.465   7.407 -0.1711  0.0076 -0.2629
 1080loPI   C1B16949   8.989   6.497   5.816 -0.2508  0.0801  0.0306
 1080loPI   C2B16950   8.912   6.519   6.214  0.0582  0.0559 -0.1325
 1080loPI   C3B16951   8.905   6.816   6.363 -0.0333 -0.4228 -0.1560
 1080loPI   C4B16952   8.747   7.124   6.616 -0.0354  0.3258  0.1427
 1081loPI    C116953   2.506   6.715   4.727 -0.1504  0.0836  0.2311
 1081loPI    C216954   2.205   6.885   4.526 -0.0710 -0.0764 -0.0284
 1081loPI    C316955   2.575   6.893   4.375  0.0769  0.2014  0.3330
 1081loPI   PO416956   2.557   6.818   4.920 -0.3115 -0.0221  0.1140
 1081loPI   GL116957   2.466   6.885   5.363  0.1496  0.0817 -0.0814
 1081loPI   GL216958   2.675   6.806   5.446  0.1098  0.2542  0.0289
 1081loPI   C1A16959   2.271   7.077   5.669 -0.0096  0.0467  0.1033
 1081loPI   C2A16960   2.223   6.947   6.015  0.1994  0.1959  0.0458
 1081loPI   C3A16961   2.489   6.977   6.408  0.1479 -0.0220 -0.2685
 1081loPI   C4A16962   2.718   7.002   6.755  0.1626  0.0527  0.2919
 1081loPI   C5A16963   2.823   6.800   7.155  0.0723  0.2605 -0.2344
 1081loPI   C6A16964   3.228   6.646   7.426  0.0211 -0.0354 -0.0575
 1081loPI   C1B16965   2.592   6.739   5.853 -0.0010  0.1674  0.0284
 1081loPI   C2B16966   2.690   6.521   6.176  0.0627  0.2555  0.3185
 1081loPI   C3B16967   2.627   6.526   6.599  0.2251 -0.2952 -0.0163
 1081loPI   C4B16968   2.591   6.350   7.054 -0.3592  0.1500 -0.2394
 1082loPI    C116969   6.004  13.824   4.428 -0.1503  0.1404 -0.0189
 1082loPI    C216970   5.766  13.634   4.169 -0.1427  0.1107 -0.0041
 1082loPI    C316971   6.009  13.925   4.041  0.1893 -0.2069 -0.1102
 1082loPI   PO416972   5.888  13.971   4.699 -0.0319  0.0777  0.2724
 1082loPI   GL116973   5.927  14.063   5.123 -0.0748  0.3158  0.1953
 1082loPI   GL216974   6.146  14.282   5.297  0.1209  0.1247 -0.3182
 1082loPI   C1A16975   5.647  13.987   5.414 -0.1429  0.0564 -0.0985
 1082loPI   C2A16976   5.610  13.856   5.814  0.0441  0.2718 -0.0122
 1082loPI   C3A16977   5.701  13.830   6.134  0.0866  0.0690  0.0106
 1082loPI   C4A16978   5.844  14.167   6.471 -0.0840 -0.1064 -0.0069
 1082loPI   C5A16979   5.898  14.408   6.771  0.0033  0.1578  0.0013
 1082loPI   C6A16980   6.122  14.781   7.017  0.0351  0.3176  0.0616
 1082loPI   C1B16981   5.902  14.410   5.642  0.1254  0.6247  0.2334
 1082loPI   C2B16982   5.552  14.331   5.907 -0.0061 -0.0153 -0.1074
 1082loPI   C3B16983   5.324  14.173   6.274 -0.1332 -0.1650 -0.1492
 1082loPI   C4B16984   5.383  14.068   6.733  0.0638  0.1239  0.0015
 1083loPI    C116985  12.052  12.909   4.825  0.0207 -0.0502  0.0984
 1083loPI    C216986  12.098  13.306   4.827  0.0626 -0.0517 -0.1732
 1083loPI    C316987  12.419  13.068   4.813  0.0396 -0.0976  0.0467
 1083loPI   PO416988  11.857  12.838   5.019  0.3313  0.2636 -0.1994
 1083loPI   GL116989  11.902  12.468   5.310 -0.2299  0.1100 -0.0686
 1083loPI   GL216990  11.995  12.789   5.505  0.2676 -0.2993  0.1608
 1083loPI   C1A16991  11.917  12.383   5.795  0.0639  0.1704 -0.3702
 1083loPI   C2A16992  12.074  12.301   6.161  0.1030 -0.0195  0.3675
 1083loPI   C3A16993  12.195  12.127   6.534  0.0167  0.2187  0.1649
 1083loPI   C4A16994  12.505  12.236   6.793  0.0167 -0.2384 -0.3752
 1083loPI   C5A16995  12.771  11.999   7.042  0.2634 -0.2571  0.0570
 1083loPI   C6A16996  12.913  11.772   7.299  0.1808 -0.0480 -0.3655
 1083loPI   C1B16997  12.154  12.933   5.923 -0.0399 -0.0323 -0.1240
 1083loPI   C2B16998  11.896  12.737   6.274  0.3715  0.1423 -0.1310
 1083loPI   C3B16999  11.677  12.513   6.599 -0.0108  0.2946 -0.1037
 1083loPI   C4B17000  11.669  12.090   6.818  0.2149  0.0082  0.3314
 1084loPI    C117001   1.912  16.260   4.879 -0.0638 -0.1164 -0.0710
 1084loPI    C217002   1.543  16.358   4.995 -0.0982 -0.3203 -0.0039
 1084loPI    C317003   1.663  16.440   4.623 -0.1115  0.0063  0.0602
 1084loPI   PO417004   2.077  16.373   5.106 -0.2749  0.0297 -0.0431
 1084loPI   GL117005   2.191  16.563   5.356  0.1932 -0.0569 -0.0119
 1084loPI   GL217006   1.990  16.658   5.527 -0.1273  0.1372  0.0442
 1084loPI   C1A17007   2.416  16.520   5.701  0.1703  0.1862 -0.2848
 1084loPI   C2A17008   2.514  16.437   6.199  0.0078 -0.2495 -0.1699
 1084loPI   C3A17009   2.508  16.654   6.590  0.0630 -0.0123  0.1167
 1084loPI   C4A17010   2.535  16.659   6.979  0.1478 -0.1414 -0.0682
 1084loPI   C5A17011   2.485  16.654   7.307  0.3094 -0.0520  0.0947
 1084loPI   C6A17012   2.744  16.736   7.613 -0.0513  0.1627 -0.0775
 1084loPI   C1B17013   2.003  16.343   5.857 -0.1943  0.2416  0.0104
 1084loPI   C2B17014   2.019  16.260   6.260  0.0146 -0.3009 -0.3636
 1084loPI   C3B17015   2.108  16.445   6.657 -0.0129  0.1321 -0.1471
 1084loPI   C4B17016   2.077  16.392   7.072  0.4472  0.2268  0.1342
 1085loPI    C117017   0.297   1.318   4.409  0.3328 -0.1053  0.1397
 1085loPI    C217018   0.526   1.018   4.539  0.3378 -0.1624  0.0012
 1085loPI    C317019   0.410   1.029   4.157  0.0863 -0.1489  0.0763
 1085loPI   PO417020   0.223   1.402   4.655 -0.2757  0.1620  0.0996
 1085loPI   GL117021   0.408   1.658   4.991  0.1031 -0.1493 -0.2073
 1085loPI   GL217022   0.459   1.563   5.312 -0.0342  0.1444  0.2382
 1085loPI   C1A17023   0.107   1.943   5.271 -0.0734  0.1633  0.0258
 1085loPI   C2A17024  -0.217   1.990   5.541  0.1069 -0.1503  0.1357
 1085loPI   C3A17025  -0.493   2.234   5.822  0.1643 -0.0243  0.4531
 1085loPI   C4A17026  -0.749   2.257   6.266  0.0969  0.1080  0.0637
 1085loPI   C5A17027  -0.928   2.310   6.632  0.0727 -0.1294 -0.0022
 1085loPI   C6A17028  -1.246   2.349   6.821 -0.0291 -0.4549 -0.1243
 1085loPI   C1B17029   0.344   1.694   5.580 -0.0630  0.0253 -0.0199
 1085loPI   C2B17030   0.297   1.831   5.995  0.2227 -0.1425 -0.0505
 1085loPI   C3B17031   0.283   2.034   6.404  0.1294 -0.0133 -0.0321
 1085loPI   C4B17032   0.061   2.220   6.730 -0.2626  0.1381  0.2875
 1086loPI    C117033  11.890  11.315   4.586 -0.2329 -0.0528 -0.0949
 1086loPI    C217034  11.748  11.638   4.397 -0.0954 -0.0262 -0.1538
 1086loPI    C317035  11.945  11.357   4.192  0.0205 -0.0164 -0.0570
 1086loPI   PO417036  12.042  11.351   4.802  0.0331 -0.0427 -0.1151
 1086loPI   GL117037  11.867  11.303   5.185 -0.1286  0.1704  0.0204
 1086loPI   GL217038  12.166  11.217   5.312  0.0288  0.0273 -0.0917
 1086loPI   C1A17039  11.637  11.065   5.539  0.2993 -0.2095 -0.0781
 1086loPI   C2A17040  11.494  11.120   5.935  0.0164  0.0371  0.2458
 1086loPI   C3A17041  11.222  11.154   6.250  0.5149  0.2695 -0.1099
 1086loPI   C4A17042  11.153  11.306   6.802 -0.1586  0.2230 -0.0092
 1086loPI   C5A17043  10.933  11.432   7.146 -0.3106 -0.0517 -0.1455
 1086loPI   C6A17044  10.693  11.450   7.489  0.0243 -0.1038  0.1365
 1086loPI   C1B17045  12.269  11.550   5.558  0.1665  0.1187  0.0486
 1086loPI   C2B17046  12.443  11.464   6.002  0.0992  0.0051 -0.2605
 1086loPI   C3B17047  12.397  11.546   6.435  0.1327 -0.0788  0.3962
 1086loPI   C4B17048  12.167  11.422   6.946 -0.1061 -0.4241 -0.4779
 1087loPI    C117049  15.083  15.441   4.978 -0.1437 -0.0253 -0.0985
 1087loPI    C217050  14.820  15.284   4.720 -0.1109  0.1364 -0.2324
 1087loPI    C317051  15.208  15.304   4.624 -0.0486 -0.0891 -0.0408
 1087loPI   PO417052  14.982  15.661   5.064  0.1873  0.0012  0.1160
 1087loPI   GL117053  14.817  15.651   5.469  0.1981 -0.1412  0.4516
 1087loPI   GL217054  14.670  15.881   5.603 -0.1443 -0.0137 -0.0140
 1087loPI   C1A17055  14.703  15.426   5.875  0.3541  0.0614 -0.0488
 1087loPI   C2A17056  14.629  15.478   6.314  0.1144  0.0244 -0.2012
 1087loPI   C3A17057  14.645  15.630   6.756 -0.0526  0.1554  0.1072
 1087loPI   C4A17058  14.786  15.685   7.183  0.1751  0.3620  0.0105
 1087loPI   C5A17059  15.302  15.663   7.295  0.1985  0.1053 -0.0959
 1087loPI   C6A17060  15.576  16.084   7.210 -0.2226 -0.2426 -0.0387
 1087loPI   C1B17061  14.730  15.919   6.019 -0.0167 -0.1059 -0.1759
 1087loPI   C2B17062  14.604  16.020   6.452  0.0673 -0.2518  0.1079
 1087loPI   C3B17063  14.592  16.112   6.871  0.2872 -0.0425 -0.1170
 1087loPI   C4B17064  14.470  16.515   7.065 -0.3089 -0.0990 -0.1419
 1088loPI    C117065   5.400  13.744   4.570  0.0504 -0.0915  0.1286
 1088loPI    C217066   5.153  14.046   4.480 -0.0516 -0.1004  0.3718
 1088loPI    C317067   5.531  14.052   4.351 -0.2022 -0.1344 -0.0888
 1088loPI   PO417068   5.232  13.657   4.837  0.0216 -0.3172 -0.1605
 1088loPI   GL117069   5.266  13.704   5.345  0.0476  0.1516 -0.0209
 1088loPI   GL217070   5.123  13.993   5.276 -0.1866  0.1947 -0.4322
 1088loPI   C1A17071   5.597  13.345   5.546 -0.1072  0.2364 -0.0727
 1088loPI   C2A17072   5.630  13.363   5.999  0.1004 -0.1047 -0.4364
 1088loPI   C3A17073   5.759  13.404   6.407  0.5728  0.0678 -0.0654
 1088loPI   C4A17074   5.707  13.695   6.712  0.1143 -0.0563  0.1357
 1088loPI   C5A17075   5.687  13.888   7.102  0.3569  0.2135  0.0404
 1088loPI   C6A17076   5.546  13.561   7.527 -0.0438  0.1180  0.2194
 1088loPI   C1B17077   5.166  14.109   5.681 -0.1145 -0.0165  0.0052
 1088loPI   C2B17078   4.972  13.943   6.041  0.2654  0.0775  0.2627
 1088loPI   C3B17079   4.846  13.802   6.394 -0.0268 -0.1839 -0.1934
 1088loPI   C4B17080   4.807  13.936   6.842  0.0495  0.2407 -0.1836
 1089loPI    C117081   6.674   8.275   4.785 -0.1239 -0.0726  0.0871
 1089loPI    C217082   6.946   8.418   4.528 -0.0380 -0.3714  0.0075
 1089loPI    C317083   6.558   8.420   4.431 -0.0582 -0.0257  0.0846
 1089loPI   PO417084   6.848   8.402   5.000 -0.0188 -0.1379 -0.2587
 1089loPI   GL117085   7.085   8.234   5.344  0.0800  0.0031  0.0866
 1089loPI   GL217086   7.385   8.168   5.347 -0.1004 -0.1354  0.1384
 1089loPI   C1A17087   6.900   8.302   5.705 -0.0003 -0.0522  0.0663
 1089loPI   C2A17088   6.659   8.331   6.016 -0.0853 -0.0707  0.3485
 1089loPI   C3A17089   6.612   8.670   6.323  0.1656  0.0213  0.0566
 1089loPI   C4A17090   6.765   9.071   6.369 -0.0450 -0.2880 -0.2797
 1089loPI   C5A17091   6.581   9.468   6.461 -0.1507  0.2112  0.1670
 1089loPI   C6A17092   6.315   9.626   6.692  0.1400  0.1177  0.0287
 1089loPI   C1B17093   7.430   8.154   5.753  0.0262 -0.1098 -0.1997
 1089loPI   C2B17094   7.165   8.222   6.099  0.1089 -0.2690  0.2619
 1089loPI   C3B17095   7.132   8.392   6.533  0.2311 -0.0819  0.2443
 1089loPI   C4B17096   6.832   8.623   6.764  0.3742 -0.1070  0.2568
 1090loPI    C117097  14.756   4.230   4.916 -0.1904  0.1247  0.0089
 1090loPI    C217098  14.784   4.526   4.647  0.0853  0.1483  0.0602
 1090loPI    C317099  15.017   4.202   4.614 -0.1432 -0.0193  0.0619
 1090loPI   PO417100  14.695   4.342   5.120 -0.3390 -0.2213  0.0361
 1090loPI   GL117101  15.038   4.492   5.454 -0.2001 -0.1460 -0.0574
 1090loPI   GL217102  14.986   4.740   5.571 -0.3957 -0.0239 -0.3728
 1090loPI   C1A17103  14.884   4.389   5.904 -0.0052  0.1310  0.1125
 1090loPI   C2A17104  14.812   4.338   6.224 -0.0659  0.1449 -0.0269
 1090loPI   C3A17105  14.739   4.376   6.703 -0.0031 -0.1274  0.0706
 1090loPI   C4A17106  14.494   4.379   7.145  0.1703 -0.1235 -0.0810
 1090loPI   C5A17107  14.577   4.471   7.513  0.0387 -0.0391 -0.1292
 1090loPI   C6A17108  14.947   4.232   7.773  0.1716 -0.0132  0.0549
 1090loPI   C1B17109  15.051   4.910   5.997 -0.2458  0.0098  0.1455
 1090loPI   C2B17110  15.199   4.839   6.503  0.0612  0.0582 -0.0525
 1090loPI   C3B17111  15.232   4.786   7.029 -0.0511  0.1926  0.1008
 1090loPI   C4B17112  15.153   4.513   7.409  0.2520  0.0197  0.1613
 1091loPI    C117113   9.037   3.400   5.297 -0.0462  0.1580  0.0137
 1091loPI    C217114   9.319   3.300   5.032 -0.1158 -0.1428  0.0487
 1091loPI    C317115   8.988   3.489   4.910  0.0686  0.1561 -0.0017
 1091loPI   PO417116   9.162   3.480   5.456 -0.1263  0.0985  0.0628
 1091loPI   GL117117   9.187   3.807   5.642  0.1493  0.1899  0.1211
 1091loPI   GL217118   9.496   3.805   5.663 -0.0023  0.0999  0.0320
 1091loPI   C1A17119   9.270   3.585   6.105 -0.2041 -0.0008 -0.0617
 1091loPI   C2A17120   9.203   3.642   6.637  0.1713  0.0313  0.2952
 1091loPI   C3A17121   9.063   3.440   7.035 -0.2819  0.1537  0.6695
 1091loPI   C4A17122   9.056   3.563   7.400  0.4144  0.0933 -0.0978
 1091loPI   C5A17123   9.117   3.873   7.749 -0.1202 -0.0957 -0.2367
 1091loPI   C6A17124   8.980   4.285   7.984 -0.0603  0.2039 -0.0148
 1091loPI   C1B17125   9.540   4.064   6.005 -0.1638  0.0702 -0.2912
 1091loPI   C2B17126   9.544   4.191   6.320  0.2900  0.0685  0.0190
 1091loPI   C3B17127   9.640   4.061   6.730 -0.0374  0.0655  0.0808
 1091loPI   C4B17128   9.994   3.748   6.844 -0.2275 -0.3897  0.1777
 1092loPI    C117129  13.834   8.841   4.955 -0.1757 -0.1071 -0.1362
 1092loPI    C217130  13.924   9.001   4.600  0.0848  0.1063  0.0220
 1092loPI    C317131  14.081   8.648   4.706 -0.1852 -0.0755 -0.1700
 1092loPI   PO417132  13.967   9.036   5.086 -0.1074  0.0827 -0.3190
 1092loPI   GL117133  14.404   9.019   5.195 -0.1301  0.0673  0.1070
 1092loPI   GL217134  14.465   9.256   5.251  0.0122  0.0077  0.0247
 1092loPI   C1A17135  14.620   8.782   5.641 -0.0331  0.0592  0.0738
 1092loPI   C2A17136  14.622   8.720   6.085  0.0923 -0.1192 -0.3031
 1092loPI   C3A17137  14.587   8.679   6.456  0.1160  0.2267  0.1593
 1092loPI   C4A17138  14.718   8.599   6.885  0.2314  0.3103  0.2295
 1092loPI   C5A17139  15.014   8.766   7.130 -0.0652 -0.2459 -0.0911
 1092loPI   C6A17140  14.892   9.006   7.504 -0.0888 -0.1756  0.0736
 1092loPI   C1B17141  14.484   9.307   5.596 -0.2264  0.1713 -0.2715
 1092loPI   C2B17142  14.310   9.329   5.981 -0.1682  0.2861  0.2591
 1092loPI   C3B17143  14.463   9.316   6.349 -0.1566 -0.0502 -0.1996
 1092loPI   C4B17144  14.281   8.972   6.646  0.1005 -0.0662  0.0835
 1093loPI    C117145   7.388  17.802   4.786 -0.0269 -0.0402 -0.2971
 1093loPI    C217146   7.701  18.012   4.651  0.0530 -0.1377 -0.2640
 1093loPI    C317147   7.396  17.929   4.406  0.0766 -0.0871 -0.3109
 1093loPI   PO417148   7.552  17.666   5.004  0.3662 -0.0974  0.1353
 1093loPI   GL117149   7.615  17.681   5.359 -0.1130 -0.0748 -0.1514
 1093loPI   GL217150   7.870  17.747   5.524  0.2279 -0.4292  0.4835
 1093loPI   C1A17151   7.406  17.728   5.785 -0.0836 -0.0588  0.0572
 1093loPI   C2A17152   7.505  17.685   6.212 -0.0218  0.1282  0.1467
 1093loPI   C3A17153   7.508  17.599   6.693  0.0096 -0.1040  0.0934
 1093loPI   C4A17154   7.510  17.537   7.179 -0.0926 -0.0394 -0.2969
 1093loPI   C5A17155   7.358  17.682   7.631  0.0113  0.4588  0.1706
 1093loPI   C6A17156   7.169  17.993   7.766 -0.1142 -0.0110  0.1065
 1093loPI   C1B17157   7.932  17.870   5.889  0.4014 -0.0094 -0.2353
 1093loPI   C2B17158   7.994  17.668   6.340 -0.0920 -0.1952  0.2521
 1093loPI   C3B17159   8.077  17.739   6.835  0.0536 -0.0920 -0.0572
 1093loPI   C4B17160   7.992  17.694   7.233 -0.1316  0.1428 -0.1083
 1094loPI    C117161  13.103   4.392   4.973 -0.2322 -0.2324  0.0927
 1094loPI    C217162  13.116   3.999   4.899  0.0792 -0.2205  0.0721
 1094loPI    C317163  13.368   4.246   4.711 -0.1398 -0.0052  0.0576
 1094loPI   PO417164  13.008   4.403   5.198 -0.7121  0.0264  0.1044
 1094loPI   GL117165  12.911   4.519   5.541  0.0830 -0.3355 -0.0723
 1094loPI   GL217166  13.118   4.707   5.634  0.0674  0.1465 -0.0188
 1094loPI   C1A17167  12.717   4.667   5.931 -0.0972 -0.1596  0.0870
 1094loPI   C2A17168  12.421   4.547   6.291 -0.1765 -0.1233  0.1620
 1094loPI   C3A17169  12.437   4.652   6.703 -0.2305 -0.2186  0.0144
 1094loPI   C4A17170  12.627   4.491   7.081  0.1404 -0.0838 -0.0656
 1094loPI   C5A17171  12.747   4.427   7.459  0.3870 -0.1480 -0.0846
 1094loPI   C6A17172  12.814   4.058   7.807  0.0963 -0.0125 -0.2654
 1094loPI   C1B17173  13.272   4.575   6.025 -0.0936  0.0651 -0.0399
 1094loPI   C2B17174  13.458   4.760   6.330 -0.1744 -0.2045  0.0471
 1094loPI   C3B17175  13.811   4.859   6.608  0.0602  0.0124 -0.0469
 1094loPI   C4B17176  13.809   4.701   7.122  0.1246 -0.0122  0.0715
 1095loPI    C117177   0.693   9.806   4.578 -0.0105  0.2160 -0.1493
 1095loPI    C217178   0.853  10.071   4.324  0.1953 -0.0343 -0.2853
 1095loPI    C317179   0.665   9.747   4.183  0.0136 -0.0025 -0.1196
 1095loPI   PO417180   0.554   9.896   4.743 -0.0154  0.0083  0.0860
 1095loPI   GL117181   0.180   9.803   4.979 -0.1404 -0.0620  0.2971
 1095loPI   GL217182  -0.046   9.622   5.025  0.0302  0.1339 -0.4585
 1095loPI   C1A17183   0.182   9.756   5.495 -0.0062 -0.0781  0.3302
 1095loPI   C2A17184   0.177   9.488   5.902  0.0925  0.5737  0.1262
 1095loPI   C3A17185   0.270   9.445   6.284 -0.0928 -0.3144  0.1601
 1095loPI   C4A17186   0.209   9.609   6.756  0.3295  0.0745  0.1107
 1095loPI   C5A17187  -0.173   9.565   7.047  0.2766  0.0768  0.0749
 1095loPI   C6A17188  -0.336   9.639   7.564 -0.0875  0.0679  0.0654
 1095loPI   C1B17189  -0.295   9.485   5.292  0.1498  0.1222 -0.0432
 1095loPI   C2B17190  -0.320   9.576   5.748 -0.1017 -0.0490  0.1465
 1095loPI   C3B17191  -0.358   9.717   6.139  0.1623  0.1513 -0.1043
 1095loPI   C4B17192  -0.197   9.715   6.438 -0.0460  0.1889 -0.0449
 1096loPI    C117193   3.215  15.782   4.703 -0.2342  0.0072 -0.0750
 1096loPI    C217194   3.517  15.713   4.449  0.0180 -0.1572  0.2621
 1096loPI    C317195   3.552  15.997   4.729 -0.2327 -0.0213  0.1589
 1096loPI   PO417196   3.236  15.415   4.838  0.0405  0.0612  0.0577
 1096loPI   GL117197   3.291  15.154   5.174  0.1333 -0.1849  0.0392
 1096loPI   GL217198   3.417  15.346   5.332  0.1221 -0.0031  0.1168
 1096loPI   C1A17199   3.109  15.028   5.577  0.2584  0.0929 -0.1565
 1096loPI   C2A17200   2.939  15.119   5.963 -0.0778  0.1047  0.2110
 1096loPI   C3A17201   2.754  15.061   6.284  0.0493 -0.1502 -0.2190
 1096loPI   C4A17202   2.537  14.835   6.574  0.1832 -0.1448 -0.1316
 1096loPI   C5A17203   2.395  14.762   7.008  0.3170 -0.0520 -0.2134
 1096loPI   C6A17204   2.119  14.372   7.083  0.0896  0.2165 -0.1290
 1096loPI   C1B17205   3.575  15.180   5.746  0.1835  0.0823  0.2795
 1096loPI   C2B17206   3.669  15.068   6.191 -0.0771  0.0334  0.2726
 1096loPI   C3B17207   3.729  15.090   6.663  0.0871  0.2371  0.1700
 1096loPI   C4B17208   3.691  14.853   7.038 -0.0215 -0.0674 -0.0984
 1097loPI    C117209  12.433  14.014   4.892 -0.0602 -0.1302  0.0877
 1097loPI    C217210  12.531  13.627   4.865 -0.0867 -0.1329  0.0297
 1097loPI    C317211  12.231  13.773   4.644  0.1298 -0.0105 -0.1887
 1097loPI   PO417212  12.487  14.186   5.228  0.1992 -0.2391  0.0270
 1097loPI   GL117213  12.648  14.081   5.625 -0.1357  0.2123  0.1448
 1097loPI   GL217214  12.522  13.833   5.747  0.0601 -0.4932  0.0801
 1097loPI   C1A17215  12.370  14.326   5.959  0.1875  0.0124 -0.0620
 1097loPI   C2A17216  12.351  14.542   6.294  0.1942  0.1459  0.1166
 1097loPI   C3A17217  12.457  14.511   6.750 -0.1127 -0.1022 -0.0411
 1097loPI   C4A17218  12.716  14.767   6.807  0.1940  0.1091 -0.1845
 1097loPI   C5A17219  13.040  15.006   7.107  0.3258 -0.0167  0.0674
 1097loPI   C6A17220  13.072  15.223   7.471  0.0607  0.2293 -0.2544
 1097loPI   C1B17221  12.143  13.900   5.989  0.0995 -0.0060  0.0288
 1097loPI   C2B17222  12.345  13.982   6.368 -0.1185 -0.1432 -0.2506
 1097loPI   C3B17223  12.558  13.851   6.774 -0.0799  0.0480  0.1703
 1097loPI   C4B17224  12.499  14.018   7.085 -0.0509 -0.0844 -0.0748
 1098loPI    C117225  11.444   3.518   4.665 -0.1546 -0.3128  0.1595
 1098loPI    C217226  11.046   3.481   4.644 -0.1688 -0.0529 -0.0758
 1098loPI    C317227  11.240   3.715   4.384  0.1479 -0.2378 -0.0116
 1098loPI   PO417228  11.587   3.622   4.969  0.2213 -0.1167  0.1474
 1098loPI   GL117229  11.540   3.454   5.337 -0.3075 -0.1813  0.1819
 1098loPI   GL217230  11.835   3.449   5.476 -0.0629  0.2143 -0.0349
 1098loPI   C1A17231  11.420   3.674   5.666 -0.0217  0.0523  0.1766
 1098loPI   C2A17232  11.295   3.637   6.116 -0.0426 -0.2221  0.0502
 1098loPI   C3A17233  11.345   3.800   6.607 -0.1772  0.1996  0.2281
 1098loPI   C4A17234  11.315   3.896   7.011  0.0850  0.0909 -0.0313
 1098loPI   C5A17235  11.041   4.079   7.436 -0.1216  0.1583 -0.0552
 1098loPI   C6A17236  11.206   4.186   7.877  0.1672  0.0807 -0.3153
 1098loPI   C1B17237  11.773   3.261   5.764 -0.0791 -0.2411  0.0172
 1098loPI   C2B17238  11.667   3.370   6.145 -0.1994  0.2222  0.1778
 1098loPI   C3B17239  11.644   3.400   6.572  0.0233  0.0808  0.0364
 1098loPI   C4B17240  11.676   3.332   7.019  0.1536  0.0429  0.2050
 1099loPI    C117241   2.618  15.824   5.000  0.0081 -0.0061  0.0673
 1099loPI    C217242   2.748  15.932   4.638  0.0376 -0.2312  0.0089
 1099loPI    C317243   2.431  16.115   4.800  0.1008 -0.0442 -0.0760
 1099loPI   PO417244   2.863  15.885   5.145  0.0947 -0.2329 -0.0035
 1099loPI   GL117245   2.878  15.814   5.547  0.1755 -0.1904 -0.2746
 1099loPI   GL217246   2.802  16.175   5.548  0.1999 -0.0763 -0.1638
 1099loPI   C1A17247   3.095  15.603   5.769 -0.0647 -0.0200 -0.2552
 1099loPI   C2A17248   3.320  15.445   6.164  0.0199 -0.2089 -0.0972
 1099loPI   C3A17249   3.256  15.389   6.622 -0.0365 -0.0486  0.0617
 1099loPI   C4A17250   3.154  15.476   7.100 -0.0802 -0.5095  0.0909
 1099loPI   C5A17251   3.375  15.552   7.541 -0.2598 -0.0709 -0.0401
 1099loPI   C6A17252   3.677  15.873   7.588 -0.0910 -0.0719 -0.0109
 1099loPI   C1B17253   2.886  16.163   5.912  0.0720  0.5342 -0.0539
 1099loPI   C2B17254   2.919  16.285   6.343  0.0814  0.2064  0.2943
 1099loPI   C3B17255   2.958  16.390   6.796 -0.0503 -0.2048 -0.0570
 1099loPI   C4B17256   2.944  16.281   7.292  0.0397  0.0825  0.1521
 1100loPI    C117257  11.364  16.599   5.015 -0.1344 -0.1811  0.1597
 1100loPI    C217258  11.577  16.670   4.684  0.0145  0.1680  0.3247
 1100loPI    C317259  11.341  16.347   4.705  0.0836  0.0854 -0.0787
 1100loPI   PO417260  11.518  16.544   5.157 -0.1609 -0.2416  0.0699
 1100loPI   GL117261  11.704  16.436   5.452  0.1679  0.1776 -0.3327
 1100loPI   GL217262  11.927  16.480   5.511  0.0490 -0.4078  0.2253
 1100loPI   C1A17263  11.649  16.675   5.858 -0.1532 -0.1640  0.2309
 1100loPI   C2A17264  11.379  16.692   6.303 -0.0778 -0.1860 -0.1105
 1100loPI   C3A17265  11.452  16.457   6.760  0.3194  0.0485  0.0981
 1100loPI   C4A17266  11.355  16.248   7.104 -0.1829  0.2987  0.0867
 1100loPI   C5A17267  11.176  15.877   7.459 -0.0691 -0.1487  0.0223
 1100loPI   C6A17268  11.120  15.431   7.687  0.1774 -0.2207  0.2292
 1100loPI   C1B17269  12.087  16.431   5.935 -0.2528 -0.1368 -0.3617
 1100loPI   C2B17270  12.046  16.740   6.322 -0.3820 -0.1807 -0.0048
 1100loPI   C3B17271  11.950  16.711   6.750  0.1283  0.0320  0.2227
 1100loPI   C4B17272  11.862  16.821   7.170  0.0183 -0.0528 -0.1389
 1101loPI    C117273  18.202   5.995   4.588 -0.1462 -0.1384 -0.0719
 1101loPI    C217274  18.014   6.197   4.299 -0.0495 -0.0357 -0.0635
 1101loPI    C317275  18.015   6.338   4.673 -0.0045 -0.0652 -0.0526
 1101loPI   PO417276  18.089   5.789   4.586  0.0539  0.0907  0.0553
 1101loPI   GL117277  18.187   5.433   4.848 -0.0132 -0.0097 -0.1642
 1101loPI   GL217278  18.412   5.613   5.022  0.0708  0.0586  0.2070
 1101loPI   C1A17279  18.091   5.343   5.227 -0.4379 -0.2276  0.0526
 1101loPI   C2A17280  18.019   5.262   5.696 -0.0829 -0.2891  0.3558
 1101loPI   C3A17281  17.863   5.321   6.111 -0.2221  0.0605 -0.0505
 1101loPI   C4A17282  17.863   5.416   6.518  0.2178  0.1041 -0.3905
 1101loPI   C5A17283  17.530   5.474   6.740 -0.0480  0.1458 -0.0220
 1101loPI   C6A17284  17.467   5.537   7.140 -0.0409 -0.3507  0.1747
 1101loPI   C1B17285  18.363   5.757   5.397 -0.1278 -0.0351  0.1077
 1101loPI   C2B17286  18.249   5.682   5.771 -0.3571 -0.0488  0.0647
 1101loPI   C3B17287  18.215   5.679   6.252  0.2215  0.1905 -0.2150
 1101loPI   C4B17288  18.239   5.806   6.676  0.1567 -0.1740  0.2714
 1102loPI    C117289  16.254   1.346   4.562 -0.1146 -0.3621 -0.2066
 1102loPI    C217290  16.089   1.559   4.267 -0.1782  0.0223  0.0975
 1102loPI    C317291  16.484   1.495   4.271 -0.1696  0.0632 -0.0395
 1102loPI   PO417292  15.962   1.463   4.762  0.1299  0.2728  0.0802
 1102loPI   GL117293  16.083   1.353   5.205  0.0268  0.2331 -0.1342
 1102loPI   GL217294  15.787   1.173   5.354 -0.2570  0.0612  0.2040
 1102loPI   C1A17295  16.125   1.677   5.577  0.0903 -0.1282 -0.0341
 1102loPI   C2A17296  15.977   1.552   5.950 -0.0761  0.1462  0.1690
 1102loPI   C3A17297  16.000   1.572   6.389 -0.1157  0.0595 -0.1989
 1102loPI   C4A17298  16.057   1.604   6.915 -0.1313  0.0199  0.0818
 1102loPI   C5A17299  16.406   1.762   7.233 -0.1870  0.5904  0.1611
 1102loPI   C6A17300  16.459   1.799   7.647  0.1379  0.0088  0.1520
 1102loPI   C1B17301  15.746   1.136   5.751  0.0838 -0.1952 -0.3359
 1102loPI   C2B17302  15.739   1.137   6.206  0.1004  0.2790  0.2170
 1102loPI   C3B17303  15.896   1.194   6.660 -0.2620  0.1556 -0.0933
 1102loPI   C4B17304  15.861   1.206   7.157 -0.0145  0.4165  0.1845
 1103loPI    C117305  11.925  17.187   4.729  0.2259 -0.2137  0.1561
 1103loPI    C217306  12.284  17.159   4.556  0.2461  0.1440  0.1315
 1103loPI    C317307  12.100  17.514   4.578 -0.1971 -0.0674 -0.0348
 1103loPI   PO417308  11.921  17.041   4.864  0.0586 -0.2261 -0.2526
 1103loPI   GL117309  11.793  16.919   5.333 -0.0675 -0.0371 -0.2427
 1103loPI   GL217310  12.148  16.898   5.282  0.1873  0.0698 -0.0514
 1103loPI   C1A17311  11.808  17.257   5.642  0.1570 -0.2551 -0.1185
 1103loPI   C2A17312  11.596  17.245   5.902  0.1921  0.1207  0.0345
 1103loPI   C3A17313  11.519  17.166   6.296 -0.0749 -0.0266  0.2366
 1103loPI   C4A17314  11.489  16.981   6.674  0.1199  0.3085  0.0409
 1103loPI   C5A17315  11.355  16.882   7.035 -0.1270 -0.0898  0.2307
 1103loPI   C6A17316  11.460  16.950   7.454  0.0831  0.1084  0.2998
 1103loPI   C1B17317  12.174  16.922   5.721 -0.1278 -0.3105 -0.1219
 1103loPI   C2B17318  12.076  17.176   6.156 -0.0791 -0.1592  0.0340
 1103loPI   C3B17319  11.952  17.216   6.553  0.4752  0.1680 -0.1949
 1103loPI   C4B17320  12.194  17.237   6.947  0.3699  0.0992  0.1189
 1104loPI    C117321  16.860  15.558   5.216  0.2308  0.0887  0.1762
 1104loPI    C217322  16.892  15.365   4.867 -0.0651  0.0256  0.1813
 1104loPI    C317323  17.054  15.209   5.197 -0.0591 -0.0737  0.1316
 1104loPI   PO417324  16.900  15.812   5.144  0.0039  0.3849  0.1843
 1104loPI   GL117325  16.786  16.073   5.335 -0.0817 -0.2301  0.1376
 1104loPI   GL217326  16.830  16.421   5.532  0.1428  0.2040  0.2109
 1104loPI   C1A17327  16.863  15.965   5.768 -0.0742  0.1123 -0.3561
 1104loPI   C2A17328  16.625  15.721   6.034  0.2122 -0.0981 -0.1258
 1104loPI   C3A17329  16.317  15.814   6.247  0.3119 -0.1042 -0.2956
 1104loPI   C4A17330  16.202  15.635   6.574  0.3409  0.1634  0.0914
 1104loPI   C5A17331  16.419  15.596   6.943 -0.0687 -0.1685  0.1834
 1104loPI   C6A17332  16.758  15.706   7.247 -0.0101 -0.0429 -0.1582
 1104loPI   C1B17333  16.884  16.491   5.980 -0.1524 -0.3141 -0.0048
 1104loPI   C2B17334  16.676  16.242   6.437 -0.2174  0.0054  0.2503
 1104loPI   C3B17335  16.549  16.084   6.873 -0.1075 -0.1216 -0.1404
 1104loPI   C4B17336  16.484  16.202   7.313  0.0397 -0.0417 -0.0721
 1105loPI    C117337   2.615  12.725   4.732  0.0255  0.1970 -0.0406
 1105loPI    C217338   2.906  12.929   4.550  0.1337 -0.0307 -0.1266
 1105loPI    C317339   2.956  12.541   4.632 -0.0666 -0.0222  0.0417
 1105loPI   PO417340   2.575  12.786   5.043 -0.1294 -0.0752 -0.1331
 1105loPI   GL117341   2.769  12.952   5.404 -0.0528  0.0312 -0.0812
 1105loPI   GL217342   2.635  13.202   5.478  0.0677  0.0110  0.1650
 1105loPI   C1A17343   2.999  12.765   5.831 -0.0800 -0.2009 -0.1009
 1105loPI   C2A17344   3.091  12.528   6.154  0.0446 -0.3375  0.0104
 1105loPI   C3A17345   2.998  12.512   6.543 -0.1667  0.1589 -0.1731
 1105loPI   C4A17346   2.899  12.454   6.926 -0.0319  0.0669  0.0533
 1105loPI   C5A17347   3.173  12.198   7.209 -0.0835 -0.4867 -0.2509
 1105loPI   C6A17348   3.463  11.956   7.266  0.0425  0.0323  0.0467
 1105loPI   C1B17349   2.399  13.431   5.826  0.4597 -0.2175  0.1599
 1105loPI   C2B17350   2.306  13.400   6.247  0.0408  0.0073  0.0370
 1105loPI   C3B17351   2.287  13.630   6.660  0.0401 -0.0267  0.3652
 1105loPI   C4B17352   2.246  13.846   7.125 -0.1818 -0.1002 -0.0884
 1106loPI    C117353   1.299  10.908   4.996 -0.0548 -0.0177  0.1369
 1106loPI    C217354   1.359  10.623   4.723  0.1893  0.1078  0.0569
 1106loPI    C317355   1.216  10.979   4.611  0.1600  0.1139  0.1134
 1106loPI   PO417356   1.551  11.020   5.097  0.3345 -0.0412  0.3055
 1106loPI   GL117357   1.621  11.223   5.525 -0.0219 -0.1561  0.1588
 1106loPI   GL217358   1.626  10.870   5.576  0.0940 -0.1715  0.0806
 1106loPI   C1A17359   1.445  11.350   5.865 -0.2730 -0.0206  0.4009
 1106loPI   C2A17360   1.500  11.250   6.279  0.0993 -0.0221  0.1066
 1106loPI   C3A17361   1.556  11.137   6.647 -0.1875  0.2324  0.0751
 1106loPI   C4A17362   1.310  10.966   6.912 -0.1115  0.0108 -0.0391
 1106loPI   C5A17363   0.921  10.961   6.841  0.3892 -0.1452  0.4311
 1106loPI   C6A17364   0.576  10.714   6.958 -0.1716  0.1270 -0.2562
 1106loPI   C1B17365   1.558  10.817   5.999  0.1245 -0.0531  0.0099
 1106loPI   C2B17366   1.764  10.746   6.320 -0.0712 -0.0045  0.1812
 1106loPI   C3B17367   2.143  10.768   6.545  0.0255  0.0617  0.0870
 1106loPI   C4B17368   2.563  10.725   6.706 -0.2144  0.0441  0.1903
 1107loPI    C117369  16.425   9.512   4.794 -0.1068  0.0187  0.1156
 1107loPI    C217370  16.518   9.202   4.560  0.1295  0.1283  0.0614
 1107loPI    C317371  16.140   9.329   4.583  0.0588 -0.0593 -0.0428
 1107loPI   PO417372  16.672   9.456   4.935  0.0240 -0.1977  0.2444
 1107loPI   GL117373  16.599   9.698   5.371  0.1505 -0.1181 -0.3673
 1107loPI   GL217374  16.360   9.423   5.353 -0.0174 -0.0751  0.0812
 1107loPI   C1A17375  16.534   9.911   5.743 -0.0421 -0.0462  0.3295
 1107loPI   C2A17376  16.482  10.066   6.141  0.1743  0.0244  0.3522
 1107loPI   C3A17377  16.263  10.140   6.554  0.0035  0.0881  0.0758
 1107loPI   C4A17378  16.346  10.100   7.101 -0.0983 -0.2408  0.2364
 1107loPI   C5A17379  16.470  10.112   7.508  0.1189 -0.0968 -0.0210
 1107loPI   C6A17380  16.621  10.100   7.969 -0.4510 -0.1608 -0.0378
 1107loPI   C1B17381  16.464   9.048   5.729 -0.1404  0.0439 -0.2566
 1107loPI   C2B17382  16.496   8.688   5.990 -0.1318  0.3810 -0.2511
 1107loPI   C3B17383  16.274   8.339   5.873 -0.0330  0.2480  0.1608
 1107loPI   C4B17384  15.918   8.291   5.597 -0.1367  0.0086 -0.2418
 1108loPI    C117385   0.911  10.602   4.969  0.0825  0.0522  0.0112
 1108loPI    C217386   0.620  10.368   4.824  0.1141  0.0187  0.0014
 1108loPI    C317387   0.908  10.502   4.582  0.0101  0.1961 -0.0262
 1108loPI   PO417388   1.024  10.532   5.227 -0.2626  0.0751  0.1058
 1108loPI   GL117389   0.828  10.413   5.487  0.1298  0.1230  0.1912
 1108loPI   GL217390   0.492  10.446   5.670 -0.0629  0.1438  0.0152
 1108loPI   C1A17391   0.948  10.247   5.890  0.0555 -0.2654  0.0406
 1108loPI   C2A17392   1.048  10.271   6.345  0.2070  0.0910 -0.1170
 1108loPI   C3A17393   1.150  10.266   6.700  0.3950  0.0042  0.3790
 1108loPI   C4A17394   0.998  10.470   6.982 -0.0579 -0.0227  0.3368
 1108loPI   C5A17395   1.004  10.778   7.397  0.0344  0.0224 -0.0735
 1108loPI   C6A17396   0.663  10.791   7.785 -0.3719  0.2021  0.1363
 1108loPI   C1B17397   0.367  10.157   5.712  0.0601  0.1752  0.0310
 1108loPI   C2B17398   0.230   9.915   6.067 -0.0182  0.0651  0.0846
 1108loPI   C3B17399   0.215  10.124   6.458  0.2685 -0.1298 -0.1353
 1108loPI   C4B17400  -0.094   9.993   6.900  0.0538 -0.4293 -0.1583
 1109loPI    C117401  14.425  10.133   4.780 -0.3654 -0.1050  0.0538
 1109loPI    C217402  14.214  10.024   4.458 -0.1259  0.0204 -0.1495
 1109loPI    C317403  14.532  10.264   4.417  0.1146 -0.2406  0.1392
 1109loPI   PO417404  14.358  10.083   5.015  0.1051  0.0584 -0.3412
 1109loPI   GL117405  14.221  10.061   5.382 -0.1676 -0.0314  0.0851
 1109loPI   GL217406  14.453   9.778   5.421  0.1377  0.4799  0.0291
 1109loPI   C1A17407  13.883  10.167   5.664 -0.1096  0.0359  0.0691
 1109loPI   C2A17408  13.868  10.143   6.132  0.1390 -0.0852  0.2225
 1109loPI   C3A17409  13.913  10.259   6.585  0.0773 -0.1088  0.3196
 1109loPI   C4A17410  14.147  10.365   6.963  0.0644  0.1089 -0.2365
 1109loPI   C5A17411  14.428  10.278   7.311 -0.0786 -0.0646  0.1226
 1109loPI   C6A17412  14.596  10.549   7.704  0.0297 -0.1809  0.0649
 1109loPI   C1B17413  14.784   9.820   5.686 -0.1622  0.1945 -0.1327
 1109loPI   C2B17414  14.710   9.768   6.210 -0.1128  0.1102  0.2760
 1109loPI   C3B17415  14.792   9.648   6.681 -0.2909  0.1335 -0.3009
 1109loPI   C4B17416  15.035   9.395   7.044  0.1060 -0.1217 -0.0106
 1110loPI    C117417   5.590  11.781   4.718  0.1798  0.3226 -0.0449
 1110loPI    C217418   5.369  11.656   4.409  0.0768  0.1513  0.0964
 1110loPI    C317419   5.550  12.013   4.394  0.1738  0.0919 -0.2113
 1110loPI   PO417420   5.446  11.601   4.868 -0.0465  0.2855 -0.1191
 1110loPI   GL117421   5.461  11.795   5.290  0.0219 -0.1021  0.1439
 1110loPI   GL217422   5.760  11.590   5.448 -0.0618  0.0438 -0.3738
 1110loPI   C1A17423   5.465  11.967   5.700 -0.0258 -0.1488 -0.0472
 1110loPI   C2A17424   5.413  11.850   6.184 -0.0097  0.2100  0.2019
 1110loPI   C3A17425   5.598  11.876   6.595  0.0696 -0.2249  0.1570
 1110loPI   C4A17426   5.853  11.693   6.969  0.1184  0.0202  0.1083
 1110loPI   C5A17427   6.308  11.509   7.211 -0.1206  0.1357  0.0249
 1110loPI   C6A17428   6.616  11.196   7.372 -0.1832 -0.0525  0.0936
 1110loPI   C1B17429   6.000  11.606   5.731  0.0419  0.0328 -0.1590
 1110loPI   C2B17430   5.821  11.603   6.158 -0.3930  0.1239  0.1388
 1110loPI   C3B17431   5.783  11.425   6.504  0.0877  0.2360 -0.2680
 1110loPI   C4B17432   5.814  11.199   6.979  0.0079 -0.0060  0.1456
 1111loPI    C117433   3.810   5.678   4.810 -0.2755  0.1979  0.0953
 1111loPI    C217434   3.720   6.044   4.674  0.0824  0.1989 -0.1535
 1111loPI    C317435   3.955   5.802   4.458 -0.1772 -0.1941 -0.0074
 1111loPI   PO417436   3.671   5.722   5.040 -0.2180 -0.0552 -0.2510
 1111loPI   GL117437   3.549   6.008   5.508  0.0102 -0.1795  0.2571
 1111loPI   GL217438   3.837   5.976   5.438 -0.3746  0.3017 -0.2354
 1111loPI   C1A17439   3.536   5.978   5.932  0.0515  0.0829 -0.2050
 1111loPI   C2A17440   3.389   5.947   6.394  0.2731  0.1560 -0.1748
 1111loPI   C3A17441   3.458   5.902   6.815  0.1450 -0.0759 -0.1387
 1111loPI   C4A17442   3.375   6.184   7.261  0.0249  0.0544  0.3371
 1111loPI   C5A17443   3.743   6.539   7.421  0.2090 -0.1875 -0.1007
 1111loPI   C6A17444   4.104   6.634   7.624  0.2434  0.0397 -0.3576
 1111loPI   C1B17445   4.059   6.000   5.913  0.1841 -0.0573  0.0629
 1111loPI   C2B17446   3.917   6.048   6.380 -0.0594 -0.3422 -0.2087
 1111loPI   C3B17447   4.079   6.204   6.691 -0.0263 -0.1255 -0.3062
 1111loPI   C4B17448   4.186   6.523   7.035 -0.1166  0.1065  0.1027
 1112loPI    C117449  13.849  14.861   5.248 -0.2032 -0.0674  0.1253
 1112loPI    C217450  14.209  14.883   5.420 -0.1983 -0.0206  0.1093
 1112loPI    C317451  14.163  14.681   5.078 -0.1116  0.2828 -0.0847
 1112loPI   PO417452  13.661  14.846   5.481 -0.1917 -0.0275  0.2654
 1112loPI   GL117453  13.609  14.645   5.808  0.1077  0.1476 -0.2851
 1112loPI   GL217454  13.479  14.251   5.816  0.0745  0.2016 -0.0845
 1112loPI   C1A17455  13.293  14.544   6.178  0.0140  0.0545  0.3365
 1112loPI   C2A17456  12.997  14.461   6.488 -0.2048  0.0480 -0.0145
 1112loPI   C3A17457  12.891  14.211   6.758  0.0869  0.0039  0.2616
 1112loPI   C4A17458  13.274  14.172   7.048  0.1424  0.0956  0.1362
 1112loPI   C5A17459  13.181  13.832   7.278 -0.0429  0.1699 -0.1421
 1112loPI   C6A17460  13.295  13.343   7.176 -0.2405  0.1357  0.1437
 1112loPI   C1B17461  13.252  13.971   6.105 -0.2612 -0.0690  0.1237
 1112loPI   C2B17462  13.179  13.912   6.492 -0.0018  0.1208 -0.0769
 1112loPI   C3B17463  13.024  13.709   6.792 -0.0063 -0.0270  0.2042
 1112loPI   C4B17464  12.778  13.564   7.136  0.0165 -0.1745  0.1323
 1113loPI    C117465  14.428  15.566   4.802  0.1517 -0.1695 -0.1959
 1113loPI    C217466  14.319  15.940   4.709 -0.1745 -0.3026 -0.3669
 1113loPI    C317467  14.687  15.811   4.620 -0.0243  0.0077 -0.2120
 1113loPI   PO417468  14.405  15.580   5.067 -0.1977  0.0424 -0.0501
 1113loPI   GL117469  14.320  15.417   5.501  0.1037 -0.2094  0.0749
 1113loPI   GL217470  14.218  15.216   5.821 -0.0004  0.2742 -0.3349
 1113loPI   C1A17471  14.210  15.676   5.842 -0.2436 -0.1770 -0.0336
 1113loPI   C2A17472  14.208  15.851   6.192 -0.0501 -0.1499  0.1962
 1113loPI   C3A17473  14.170  15.797   6.604 -0.2724 -0.1183  0.2166
 1113loPI   C4A17474  14.268  15.612   7.034  0.4353  0.1511  0.1883
 1113loPI   C5A17475  14.312  15.965   7.330  0.2100  0.0195  0.0587
 1113loPI   C6A17476  14.103  15.864   7.694 -0.3178  0.0384  0.0559
 1113loPI   C1B17477  14.170  15.318   6.192 -0.3462  0.1974 -0.1657
 1113loPI   C2B17478  13.959  15.291   6.548 -0.0582 -0.1325  0.4063
 1113loPI   C3B17479  14.037  15.164   6.968 -0.3265 -0.1173  0.1559
 1113loPI   C4B17480  13.841  14.982   7.347  0.0554 -0.1476  0.1600
 1114loPI    C117481  11.929  18.521   5.154 -0.0201 -0.0841  0.0316
 1114loPI    C217482  11.897  18.612   4.765 -0.1536 -0.1523  0.0259
 1114loPI    C317483  12.170  18.346   4.887 -0.0673 -0.0821 -0.0126
 1114loPI   PO417484  12.075  18.733   5.352  0.4722  0.0318  0.0597
 1114loPI   GL117485  12.341  18.659   5.747  0.1330 -0.0197  0.2302
 1114loPI   GL217486  12.287  19.063   5.762  0.0908  0.3180 -0.0299
 1114loPI   C1A17487  12.261  18.580   6.267  0.0254 -0.2381  0.3158
 1114loPI   C2A17488  12.379  18.541   6.705  0.0731 -0.2476  0.4304
 1114loPI   C3A17489  12.722  18.517   6.999 -0.0532 -0.0416 -0.2034
 1114loPI   C4A17490  12.888  18.824   7.324 -0.1491 -0.0162 -0.6613
 1114loPI   C5A17491  13.114  18.983   7.650  0.2923  0.1441  0.0692
 1114loPI   C6A17492  13.356  19.093   7.927  0.0229  0.0391 -0.0816
 1114loPI   C1B17493  12.580  19.047   6.097 -0.2103  0.2476 -0.0778
 1114loPI   C2B17494  12.587  19.083   6.511 -0.0356 -0.1320  0.0288
 1114loPI   C3B17495  12.686  19.131   6.996 -0.3833 -0.1446  0.0434
 1114loPI   C4B17496  12.812  19.321   7.500 -0.0191 -0.0564  0.1848
 1115loPI    C117497  10.700   7.652   4.564 -0.3777  0.1079 -0.1485
 1115loPI    C217498  10.739   8.044   4.498  0.0728  0.0514 -0.2536
 1115loPI    C317499  10.719   7.791   4.190  0.2645 -0.0484 -0.1852
 1115loPI   PO417500  10.608   7.615   4.856 -0.0862 -0.0820  0.0739
 1115loPI   GL117501  10.694   7.606   5.234  0.1667  0.1590 -0.0188
 1115loPI   GL217502  10.878   7.348   5.328 -0.2377 -0.0407  0.1048
 1115loPI   C1A17503  10.847   7.694   5.585  0.0798  0.3585  0.0597
 1115loPI   C2A17504  10.914   7.566   6.013  0.0583 -0.0613 -0.0621
 1115loPI   C3A17505  11.086   7.776   6.330 -0.1986 -0.1612 -0.2109
 1115loPI   C4A17506  11.362   7.639   6.706 -0.0671 -0.1824  0.1760
 1115loPI   C5A17507  11.577   7.820   7.103  0.0494 -0.0742 -0.1451
 1115loPI   C6A17508  11.758   8.155   7.357  0.1646  0.0484 -0.0054
 1115loPI   C1B17509  10.868   7.131   5.729 -0.2560 -0.0966  0.1448
 1115loPI   C2B17510  10.841   7.087   6.136  0.0526 -0.1193 -0.2468
 1115loPI   C3B17511  10.907   7.343   6.596  0.0824 -0.1577  0.2054
 1115loPI   C4B17512  11.006   7.459   7.073 -0.1198  0.4100 -0.0572
 1116loPI    C117513  11.781   0.513   4.850  0.1992  0.1052 -0.2572
 1116loPI    C217514  11.602   0.870   4.849  0.2592  0.1370 -0.0650
 1116loPI    C317515  11.779   0.734   4.517  0.1489  0.2409 -0.1674
 1116loPI   PO417516  11.768   0.481   5.148  0.1570  0.0534  0.1894
 1116loPI   GL117517  11.824   0.445   5.549 -0.0943  0.0379 -0.3363
 1116loPI   GL217518  11.616   0.580   5.612  0.2446 -0.2427 -0.0658
 1116loPI   C1A17519  11.948   0.269   5.914 -0.1684  0.2534  0.1893
 1116loPI   C2A17520  12.160   0.311   6.432 -0.1533  0.1300  0.1649
 1116loPI   C3A17521  12.287   0.368   6.870  0.2142  0.2897 -0.2453
 1116loPI   C4A17522  12.247   0.240   7.292  0.1571 -0.1496 -0.0047
 1116loPI   C5A17523  12.309   0.265   7.729  0.1253  0.2919  0.2385
 1116loPI   C6A17524  12.524   0.455   7.957 -0.3155  0.1603 -0.2962
 1116loPI   C1B17525  11.526   0.547   6.033  0.2924  0.2568 -0.2239
 1116loPI   C2B17526  11.696   0.545   6.435 -0.1119  0.0682 -0.3455
 1116loPI   C3B17527  11.872   0.802   6.719 -0.2196 -0.1085 -0.0915
 1116loPI   C4B17528  11.739   0.884   7.074 -0.6049  0.0161 -0.1943
 1117loPI    C117529   0.279  18.591   5.173 -0.0652 -0.3026 -0.1370
 1117loPI    C217530   0.538  18.641   5.475 -0.2827 -0.2919  0.0504
 1117loPI    C317531   0.660  18.477   5.131 -0.0345 -0.3129  0.1470
 1117loPI   PO417532   0.064  18.555   5.266  0.0775  0.0101 -0.0545
 1117loPI   GL117533  -0.089  18.261   5.572  0.0794  0.0730  0.4515
 1117loPI   GL217534   0.198  18.376   5.717  0.1395 -0.1176 -0.2130
 1117loPI   C1A17535  -0.297  18.368   5.886  0.3522  0.1033 -0.2190
 1117loPI   C2A17536  -0.465  18.211   6.178  0.3101 -0.1357  0.2285
 1117loPI   C3A17537  -0.539  17.975   6.565 -0.2952  0.0383 -0.1174
 1117loPI   C4A17538  -0.521  18.107   6.999 -0.0881  0.5267  0.1888
 1117loPI   C5A17539  -0.824  18.385   7.156 -0.0929 -0.1932 -0.2559
 1117loPI   C6A17540  -1.128  18.623   6.963 -0.3701  0.3119  0.0868
 1117loPI   C1B17541   0.077  18.523   6.117  0.0961  0.2929  0.0732
 1117loPI   C2B17542   0.089  18.546   6.484  0.0058  0.0574  0.2430
 1117loPI   C3B17543   0.318  18.737   6.882 -0.0890 -0.1444 -0.0477
 1117loPI   C4B17544   0.717  18.594   7.019 -0.0872  0.2821 -0.1064
 1118loPI    C117545   7.156   2.263   4.870 -0.1482 -0.1609 -0.1242
 1118loPI    C217546   6.949   2.354   4.540  0.0547  0.0828 -0.1874
 1118loPI    C317547   7.123   1.996   4.575 -0.1134 -0.0079 -0.2681
 1118loPI   PO417548   7.009   2.197   5.072 -0.4386  0.1157  0.1426
 1118loPI   GL117549   6.963   2.181   5.523 -0.2583 -0.3764  0.1253
 1118loPI   GL217550   7.223   2.365   5.601 -0.0728 -0.2319  0.3824
 1118loPI   C1A17551   6.876   2.046   6.006  0.0405 -0.0087  0.2070
 1118loPI   C2A17552   6.994   2.129   6.428  0.0498  0.1824 -0.2316
 1118loPI   C3A17553   6.978   2.569   6.553 -0.0248  0.1464  0.0312
 1118loPI   C4A17554   7.096   2.665   6.952  0.3402  0.1017 -0.2308
 1118loPI   C5A17555   7.265   2.641   7.407 -0.3069 -0.0956  0.0715
 1118loPI   C6A17556   7.033   2.460   7.794 -0.2108 -0.1494 -0.0090
 1118loPI   C1B17557   7.269   2.378   5.972  0.1783  0.1317 -0.1683
 1118loPI   C2B17558   7.463   2.422   6.300  0.3131  0.1817 -0.0772
 1118loPI   C3B17559   7.424   2.359   6.703  0.4137  0.0964 -0.2178
 1118loPI   C4B17560   7.468   2.333   7.062 -0.2917 -0.0551  0.2586
 1119loPI    C117561  16.964   6.591   4.915  0.1359  0.0247  0.0105
 1119loPI    C217562  17.019   6.233   4.746 -0.2976 -0.0376 -0.0100
 1119loPI    C317563  17.014   6.562   4.519  0.0079 -0.0250 -0.0025
 1119loPI   PO417564  16.895   6.526   5.118 -0.0897 -0.1603 -0.1362
 1119loPI   GL117565  16.870   6.616   5.515 -0.2141  0.3496  0.0924
 1119loPI   GL217566  16.975   6.266   5.619  0.2178 -0.0140  0.1186
 1119loPI   C1A17567  16.981   6.698   5.904 -0.2596 -0.1001  0.0550
 1119loPI   C2A17568  17.011   6.565   6.352  0.2683  0.0326  0.4416
 1119loPI   C3A17569  17.016   6.316   6.652  0.3031 -0.1566 -0.0178
 1119loPI   C4A17570  17.301   6.190   7.015  0.2592  0.0903  0.2331
 1119loPI   C5A17571  17.682   6.245   7.220  0.0466  0.2491  0.0817
 1119loPI   C6A17572  18.148   6.000   7.240  0.2041  0.1328 -0.0438
 1119loPI   C1B17573  16.803   6.196   6.117 -0.0776 -0.1871 -0.2010
 1119loPI   C2B17574  16.696   5.940   6.456  0.0529 -0.2918  0.1860
 1119loPI   C3B17575  16.814   5.848   6.881  0.2403  0.2256 -0.1431
 1119loPI   C4B17576  17.062   5.766   7.308 -0.2012 -0.2944  0.0298
 1120loPI    C117577   4.497   3.235   4.469  0.0000 -0.1721 -0.0030
 1120loPI    C217578   4.794   3.492   4.548 -0.0203 -0.0948 -0.1729
 1120loPI    C317579   4.833   3.227   4.251  0.0676 -0.4022  0.1066
 1120loPI   PO417580   4.524   3.190   4.793  0.0374  0.1657 -0.1356
 1120loPI   GL117581   4.677   3.109   5.166 -0.0224 -0.0079  0.0862
 1120loPI   GL217582   4.829   3.333   5.476 -0.0456  0.1192  0.2247
 1120loPI   C1A17583   4.662   2.847   5.625 -0.0093  0.2154 -0.0871
 1120loPI   C2A17584   4.815   2.875   6.041  0.2461 -0.0225  0.2195
 1120loPI   C3A17585   4.775   2.772   6.513 -0.2179 -0.2445 -0.0712
 1120loPI   C4A17586   4.766   2.664   6.964  0.0963  0.1618  0.1340
 1120loPI   C5A17587   4.590   2.664   7.356 -0.0064  0.1207  0.0185
 1120loPI   C6A17588   4.343   2.783   7.701  0.1335  0.0501 -0.1691
 1120loPI   C1B17589   4.718   3.348   5.914 -0.2089  0.1907  0.4503
 1120loPI   C2B17590   4.573   3.321   6.407 -0.2629 -0.2305  0.0124
 1120loPI   C3B17591   4.610   3.203   6.786 -0.0358 -0.0521 -0.1023
 1120loPI   C4B17592   4.890   3.188   7.096 -0.0443  0.2955  0.1902
 1121loPI    C117593  16.573  16.642   4.656  0.0960  0.1913  0.0948
 1121loPI    C217594  16.313  16.575   4.359 -0.0114  0.1579  0.1957
 1121loPI    C317595  16.705  16.584   4.283 -0.0020 -0.3979  0.1430
 1121loPI   PO417596  16.530  16.760   4.867  0.4373 -0.3703 -0.2676
 1121loPI   GL117597  16.333  16.722   5.215 -0.0836 -0.0408 -0.0752
 1121loPI   GL217598  16.611  16.842   5.364 -0.0340 -0.1747  0.2128
 1121loPI   C1A17599  16.398  16.631   5.750  0.1486 -0.2979  0.1459
 1121loPI   C2A17600  16.480  16.656   6.242 -0.1074 -0.0720  0.1931
 1121loPI   C3A17601  16.383  16.559   6.704  0.1157  0.2020  0.0278
 1121loPI   C4A17602  16.184  16.600   7.011  0.2109  0.1243 -0.2710
 1121loPI   C5A17603  16.006  16.411   7.426 -0.2639 -0.2268 -0.2845
 1121loPI   C6A17604  15.617  16.324   7.652  0.0254 -0.0910  0.0170
 1121loPI   C1B17605  16.786  16.934   5.661  0.0987  0.3838 -0.0302
 1121loPI   C2B17606  16.883  16.930   6.142  0.0073  0.1260  0.2073
 1121loPI   C3B17607  17.118  17.094   6.484 -0.0985 -0.0526 -0.2618
 1121loPI   C4B17608  17.152  17.435   6.828 -0.1119 -0.1845  0.2771
 1122loPI    C117609   3.128   9.578   5.112  0.1479 -0.1229 -0.1146
 1122loPI    C217610   2.889   9.495   4.802 -0.0102 -0.1900  0.0237
 1122loPI    C317611   2.737   9.659   5.134  0.1565 -0.1265  0.0697
 1122loPI   PO417612   3.370   9.414   5.074  0.1209  0.0223  0.1623
 1122loPI   GL117613   3.572   9.473   5.488  0.0259  0.1980 -0.2392
 1122loPI   GL217614   3.615   9.718   5.712  0.1932 -0.0446  0.1125
 1122loPI   C1A17615   3.348   9.148   5.764  0.0116  0.2598 -0.0693
 1122loPI   C2A17616   3.272   9.086   6.166  0.1614  0.0354 -0.0409
 1122loPI   C3A17617   3.406   8.979   6.597 -0.0088  0.0004  0.0576
 1122loPI   C4A17618   3.488   8.823   7.069  0.0262 -0.1222  0.0059
 1122loPI   C5A17619   3.465   8.768   7.511  0.0982  0.0270  0.0328
 1122loPI   C6A17620   3.549   8.470   7.830 -0.1494 -0.2337 -0.3409
 1122loPI   C1B17621   3.507   9.864   6.007 -0.0031 -0.2215  0.1714
 1122loPI   C2B17622   3.410   9.902   6.462  0.0761  0.1405 -0.0664
 1122loPI   C3B17623   3.505   9.732   6.869 -0.0223  0.0092  0.0563
 1122loPI   C4B17624   3.568   9.673   7.382  0.0040 -0.2064 -0.1824
 1123loPI    C117625   6.904  10.916   5.051  0.1094 -0.0614 -0.2652
 1123loPI    C217626   6.764  10.635   4.803  0.0474 -0.1360 -0.1468
 1123loPI    C317627   7.064  10.873   4.687  0.0406 -0.1916 -0.2809
 1123loPI   PO417628   6.640  10.974   5.188 -0.0828 -0.1335 -0.1305
 1123loPI   GL117629   6.412  10.724   5.478 -0.2548  0.2656 -0.0453
 1123loPI   GL217630   6.098  10.591   5.598 -0.0023  0.1722 -0.0751
 1123loPI   C1A17631   6.660  10.513   5.819  0.1412  0.2907  0.1455
 1123loPI   C2A17632   6.857  10.203   6.143 -0.1433  0.0435  0.1524
 1123loPI   C3A17633   6.883   9.730   6.192 -0.2220  0.0847 -0.1506
 1123loPI   C4A17634   6.450   9.611   6.002  0.1700 -0.2356 -0.1960
 1123loPI   C5A17635   6.151   9.909   6.290  0.0282  0.0520  0.1789
 1123loPI   C6A17636   5.708  10.062   6.149 -0.2369 -0.2275  0.4587
 1123loPI   C1B17637   6.180  10.739   5.946 -0.0774 -0.0423  0.0806
 1123loPI   C2B17638   6.616  10.865   6.141 -0.2415 -0.1032  0.0525
 1123loPI   C3B17639   6.816  11.138   6.449 -0.0778  0.3466  0.4403
 1123loPI   C4B17640   6.872  11.330   6.789  0.1303 -0.1003  0.1314
 1124loPI    C117641   8.911  16.467   4.751  0.1600  0.1745 -0.0437
 1124loPI    C217642   8.536  16.463   4.614  0.1578 -0.2578 -0.0388
 1124loPI    C317643   8.839  16.539   4.365  0.0961 -0.2898 -0.1239
 1124loPI   PO417644   8.987  16.234   4.840  0.2252  0.1550  0.0917
 1124loPI   GL117645   8.903  15.967   5.101 -0.2040 -0.1024 -0.1831
 1124loPI   GL217646   9.185  15.808   5.293 -0.4046 -0.0927 -0.0905
 1124loPI   C1A17647   9.029  16.220   5.497  0.0187 -0.3555  0.3617
 1124loPI   C2A17648   9.102  16.367   5.972  0.2037 -0.0348 -0.2578
 1124loPI   C3A17649   9.046  16.678   6.253  0.1062 -0.0122  0.3124
 1124loPI   C4A17650   9.059  16.716   6.621 -0.0139 -0.2247  0.0594
 1124loPI   C5A17651   9.179  16.614   6.961  0.0541 -0.1246 -0.3485
 1124loPI   C6A17652   9.337  16.415   7.380 -0.3807  0.1669 -0.1987
 1124loPI   C1B17653   9.387  15.797   5.738  0.2223 -0.5814 -0.1070
 1124loPI   C2B17654   9.232  15.906   6.171  0.0101 -0.3243  0.4341
 1124loPI   C3B17655   9.400  15.938   6.535  0.3680  0.1127 -0.1057
 1124loPI   C4B17656   9.834  16.078   6.529  0.2563 -0.2102  0.1130
 1125loPI    C117657  16.300   1.920   4.676 -0.1696  0.2801 -0.3575
 1125loPI    C217658  16.062   1.929   4.997  0.1204  0.1620 -0.1347
 1125loPI    C317659  15.904   1.947   4.630 -0.2652 -0.3460 -0.0047
 1125loPI   PO417660  16.484   2.139   4.721  0.1051  0.0341  0.2478
 1125loPI   GL117661  16.367   2.293   5.148  0.3532 -0.3219  0.1124
 1125loPI   GL217662  16.524   1.927   5.272 -0.1133  0.1703  0.0561
 1125loPI   C1A17663  16.149   2.141   5.464 -0.0925  0.0195  0.1704
 1125loPI   C2A17664  16.189   2.040   5.882 -0.0142  0.0204 -0.1931
 1125loPI   C3A17665  16.152   2.048   6.269 -0.1980  0.3311 -0.1811
 1125loPI   C4A17666  16.171   1.999   6.651 -0.1980  0.2228  0.0137
 1125loPI   C5A17667  15.848   2.075   7.026 -0.0481  0.3633 -0.2121
 1125loPI   C6A17668  15.720   2.395   7.280 -0.1724 -0.0083  0.0576
 1125loPI   C1B17669  16.652   2.115   5.645 -0.1558  0.0756  0.0658
 1125loPI   C2B17670  16.637   2.063   6.047  0.0608  0.1733  0.4265
 1125loPI   C3B17671  16.814   2.020   6.488  0.1214  0.1839 -0.0846
 1125loPI   C4B17672  16.991   2.315   6.829 -0.0183 -0.1044 -0.2383
 1126loPI    C117673  15.182   7.185   4.760 -0.0806 -0.1038  0.0592
 1126loPI    C217674  15.131   7.355   4.402  0.0494 -0.2807 -0.0449
 1126loPI    C317675  15.191   6.960   4.430  0.5593 -0.1983  0.1271
 1126loPI   PO417676  15.270   7.369   4.919 -0.0942  0.1963 -0.0975
 1126loPI   GL117677  15.351   7.133   5.276  0.0609 -0.3071  0.0932
 1126loPI   GL217678  15.649   7.236   5.338 -0.0188 -0.2080  0.1298
 1126loPI   C1A17679  15.383   7.013   5.762 -0.3191  0.0966  0.1315
 1126loPI   C2A17680  15.312   7.116   6.202 -0.1568  0.0413 -0.4221
 1126loPI   C3A17681  15.361   7.346   6.626 -0.4171  0.2124  0.3320
 1126loPI   C4A17682  15.405   7.354   7.051 -0.1018 -0.0488  0.0014
 1126loPI   C5A17683  15.665   7.267   7.215 -0.1854  0.2033 -0.0631
 1126loPI   C6A17684  16.016   7.116   7.144 -0.3472 -0.2718 -0.0355
 1126loPI   C1B17685  15.875   6.900   5.653  0.2188  0.1930  0.0112
 1126loPI   C2B17686  15.855   6.951   6.114 -0.2754  0.1700  0.1595
 1126loPI   C3B17687  15.816   7.247   6.405 -0.0705 -0.0178  0.1595
 1126loPI   C4B17688  15.853   7.500   6.770  0.4099  0.1030 -0.3323
 1127loPI    C117689  12.394   8.450   4.385  0.0169  0.0658  0.0094
 1127loPI    C217690  12.400   8.066   4.497 -0.0490 -0.0147 -0.2569
 1127loPI    C317691  12.116   8.197   4.248 -0.1889  0.2697  0.0449
 1127loPI   PO417692  12.484   8.531   4.696 -0.3335  0.0612  0.1677
 1127loPI   GL117693  12.454   8.898   5.024 -0.0348 -0.0445  0.1985
 1127loPI   GL217694  12.648   9.122   4.897  0.0355  0.1452  0.1346
 1127loPI   C1A17695  12.475   8.805   5.420 -0.0518  0.1539 -0.0381
 1127loPI   C2A17696  12.327   8.826   5.813 -0.2091  0.3885 -0.0680
 1127loPI   C3A17697  12.226   8.854   6.178  0.2208 -0.1613 -0.3888
 1127loPI   C4A17698  12.188   8.672   6.561 -0.1412  0.0365  0.0646
 1127loPI   C5A17699  12.431   8.812   6.951  0.3016  0.2786  0.0616
 1127loPI   C6A17700  12.766   8.501   7.188  0.3566  0.1551  0.0698
 1127loPI   C1B17701  12.846   9.079   5.278 -0.1367  0.0544  0.2282
 1127loPI   C2B17702  12.797   9.157   5.649  0.0385  0.0881 -0.2517
 1127loPI   C3B17703  12.685   9.102   6.040 -0.1075 -0.0637 -0.1614
 1127loPI   C4B17704  12.580   9.146   6.380 -0.0766  0.1420 -0.1714
 1128loPI    C117705   8.326   7.978   4.927  0.0733 -0.0547 -0.1657
 1128loPI    C217706   8.227   8.362   4.971 -0.0086 -0.0766 -0.1572
 1128loPI    C317707   8.469   8.251   4.672  0.3434  0.0379  0.0794
 1128loPI   PO417708   8.328   7.973   5.239  0.1557  0.1520  0.0809
 1128loPI   GL117709   8.335   7.684   5.534 -0.3219  0.1174  0.0179
 1128loPI   GL217710   8.409   7.922   5.761  0.1371  0.2927 -0.1715
 1128loPI   C1A17711   7.976   7.751   5.813  0.3125 -0.1185 -0.0094
 1128loPI   C2A17712   8.215   7.949   6.208 -0.0451 -0.0039  0.4816
 1128loPI   C3A17713   8.335   7.833   6.565  0.1267 -0.0851 -0.1186
 1128loPI   C4A17714   8.476   7.684   6.879  0.0259 -0.0708 -0.0582
 1128loPI   C5A17715   8.586   7.455   7.158 -0.1582  0.0753 -0.1206
 1128loPI   C6A17716   8.860   7.413   7.489 -0.0678 -0.4280  0.0645
 1128loPI   C1B17717   8.731   7.890   6.021 -0.0615 -0.3157  0.1516
 1128loPI   C2B17718   9.147   7.784   6.192  0.0739  0.3227  0.0570
 1128loPI   C3B17719   9.554   7.966   6.283  0.1219 -0.0911  0.3432
 1128loPI   C4B17720   9.648   8.321   6.035 -0.2825 -0.0692  0.0635
 1129loPI    C117721   5.168   6.708   4.839  0.1203  0.1424 -0.1423
 1129loPI    C217722   4.796   6.786   4.964  0.1418  0.0693 -0.0300
 1129loPI    C317723   4.914   6.900   4.599 -0.1180 -0.2610 -0.2225
 1129loPI   PO417724   5.221   6.515   4.991  0.1707 -0.0566  0.0613
 1129loPI   GL117725   4.914   6.511   5.422 -0.0102 -0.1310  0.0966
 1129loPI   GL217726   5.155   6.812   5.424  0.1927 -0.0544 -0.0041
 1129loPI   C1A17727   4.781   6.661   5.824 -0.1526 -0.0218 -0.3518
 1129loPI   C2A17728   4.608   6.721   6.240  0.1363 -0.5996  0.2017
 1129loPI   C3A17729   4.422   6.826   6.682  0.1344  0.0050 -0.2909
 1129loPI   C4A17730   4.406   7.014   7.074 -0.2757 -0.0563  0.2960
 1129loPI   C5A17731   4.240   7.427   7.089 -0.0059 -0.1429 -0.2567
 1129loPI   C6A17732   4.013   7.593   7.390  0.1951  0.1721 -0.0988
 1129loPI   C1B17733   5.106   7.006   5.825  0.0543  0.1614  0.1564
 1129loPI   C2B17734   5.127   7.160   6.292 -0.0472  0.1975  0.4104
 1129loPI   C3B17735   5.116   7.364   6.741  0.1716  0.1707 -0.0905
 1129loPI   C4B17736   5.076   7.586   7.095  0.1090 -0.1876  0.0679
 1130loPI    C117737   5.911  13.040   4.752  0.1395 -0.0133 -0.1608
 1130loPI    C217738   5.733  13.379   4.636  0.0506 -0.0034  0.0014
 1130loPI    C317739   5.843  13.108   4.364  0.0610  0.1252 -0.1237
 1130loPI   PO417740   6.135  13.096   4.922  0.1414  0.0526  0.0860
 1130loPI   GL117741   6.065  13.284   5.300  0.1267  0.2613 -0.1253
 1130loPI   GL217742   6.185  13.015   5.412  0.0925 -0.0237 -0.0580
 1130loPI   C1A17743   6.024  13.685   5.548 -0.0908 -0.0642  0.0835
 1130loPI   C2A17744   6.107  13.631   6.019 -0.0451  0.0593 -0.1280
 1130loPI   C3A17745   6.150  13.781   6.434  0.2331  0.2683 -0.3687
 1130loPI   C4A17746   6.146  13.931   6.910 -0.1870 -0.2117  0.1382
 1130loPI   C5A17747   6.178  14.167   7.250  0.1736 -0.0007  0.1378
 1130loPI   C6A17748   5.902  14.372   7.471  0.2395  0.0018  0.0364
 1130loPI   C1B17749   6.347  13.023   5.795  0.1525 -0.0832 -0.1477
 1130loPI   C2B17750   6.135  13.100   6.132  0.0928 -0.1240  0.2529
 1130loPI   C3B17751   6.221  13.268   6.521  0.1867 -0.0746  0.0317
 1130loPI   C4B17752   6.554  13.154   6.780 -0.1215 -0.3768 -0.0367
 1131loPI    C117753   3.749   9.150   4.824  0.0458 -0.0144 -0.2832
 1131loPI    C217754   3.541   8.826   4.931  0.0995  0.0322 -0.0324
 1131loPI    C317755   3.575   8.923   4.545 -0.0916 -0.1434 -0.0950
 1131loPI   PO417756   3.962   9.114   4.951 -0.1028 -0.0139 -0.0070
 1131loPI   GL117757   3.997   9.182   5.417 -0.1269  0.2120  0.1092
 1131loPI   GL217758   3.735   9.014   5.383 -0.2234 -0.2592 -0.1601
 1131loPI   C1A17759   3.904   9.233   5.888 -0.0429  0.0719  0.0655
 1131loPI   C2A17760   3.616   9.420   6.163 -0.0014  0.0655  0.0732
 1131loPI   C3A17761   3.637   9.407   6.570 -0.0815 -0.0954  0.2009
 1131loPI   C4A17762   3.654   9.263   7.034  0.1093  0.2156  0.1357
 1131loPI   C5A17763   3.856   9.257   7.390 -0.0458 -0.0790  0.0166
 1131loPI   C6A17764   3.584   9.379   7.795 -0.3488 -0.1345 -0.0835
 1131loPI   C1B17765   3.686   8.805   5.796 -0.1390 -0.1302 -0.2659
 1131loPI   C2B17766   3.707   8.764   6.230  0.4670 -0.0152 -0.1429
 1131loPI   C3B17767   3.693   8.516   6.620 -0.1466  0.0426 -0.1573
 1131loPI   C4B17768   3.898   8.430   6.938 -0.1120 -0.0202 -0.0504
 1132loPI    C117769  16.050   6.250   4.723  0.2071  0.0184 -0.1069
 1132loPI    C217770  15.822   5.945   4.603  0.0096  0.0276  0.2312
 1132loPI    C317771  15.724   6.319   4.502  0.1428 -0.0020 -0.0187
 1132loPI   PO417772  16.072   6.155   4.980 -0.2441 -0.1375  0.1077
 1132loPI   GL117773  16.118   6.260   5.352  0.0365  0.0668 -0.1812
 1132loPI   GL217774  16.407   6.235   5.422  0.0222 -0.0976  0.0425
 1132loPI   C1A17775  15.950   6.246   5.679 -0.0533 -0.1214  0.3344
 1132loPI   C2A17776  15.919   6.455   5.999 -0.0263 -0.2430  0.1286
 1132loPI   C3A17777  15.986   6.484   6.385 -0.0535  0.4515  0.0062
 1132loPI   C4A17778  15.699   6.264   6.793 -0.0807  0.0644 -0.0545
 1132loPI   C5A17779  15.407   6.199   7.151 -0.1099 -0.2416  0.1224
 1132loPI   C6A17780  15.064   6.214   7.386 -0.1514  0.1870  0.0869
 1132loPI   C1B17781  16.394   6.103   5.834 -0.2158  0.4200 -0.2401
 1132loPI   C2B17782  16.231   6.080   6.271 -0.0012  0.1045 -0.2110
 1132loPI   C3B17783  16.114   6.070   6.619 -0.1340  0.2423 -0.0823
 1132loPI   C4B17784  16.434   6.133   6.896  0.0706  0.1243  0.3125
 1133loPI    C117785   3.981  14.040   5.105 -0.1110  0.1895 -0.0231
 1133loPI    C217786   4.072  14.255   4.780  0.0334 -0.0438 -0.1398
 1133loPI    C317787   3.805  13.957   4.755 -0.0128 -0.0124 -0.0262
 1133loPI   PO417788   4.092  14.073   5.304 -0.1085  0.0857 -0.2390
 1133loPI   GL117789   4.201  14.276   5.619  0.0774 -0.0692 -0.1497
 1133loPI   GL217790   3.861  14.428   5.608  0.1747  0.0293  0.2794
 1133loPI   C1A17791   4.043  14.269   6.062 -0.0208  0.0783 -0.2917
 1133loPI   C2A17792   3.999  14.162   6.507 -0.0570 -0.2225  0.2859
 1133loPI   C3A17793   3.849  14.139   6.847  0.1159 -0.1745 -0.1446
 1133loPI   C4A17794   3.799  14.269   7.171  0.2418 -0.0511 -0.1881
 1133loPI   C5A17795   3.520  14.190   7.524 -0.2769 -0.0799 -0.2558
 1133loPI   C6A17796   3.452  13.895   7.799  0.1415  0.0119 -0.0947
 1133loPI   C1B17797   3.685  14.580   5.986 -0.0304 -0.3836 -0.2249
 1133loPI   C2B17798   3.892  14.630   6.451 -0.2545  0.0247  0.0494
 1133loPI   C3B17799   4.139  14.670   6.848  0.1320  0.0848  0.1321
 1133loPI   C4B17800   4.299  14.540   7.286 -0.1387 -0.0659 -0.1066
 1134loPI    C117801  14.765   1.877   4.627  0.0308  0.1282 -0.1096
 1134loPI    C217802  15.155   1.897   4.542  0.0135  0.3742 -0.1381
 1134loPI    C317803  14.899   1.748   4.273  0.1285 -0.1154  0.0141
 1134loPI   PO417804  14.723   1.913   4.921 -0.0922  0.0820 -0.0662
 1134loPI   GL117805  14.712   1.839   5.302 -0.0432  0.0749 -0.0521
 1134loPI   GL217806  14.461   1.659   5.396  0.0663  0.1296  0.0279
 1134loPI   C1A17807  15.029   1.794   5.685  0.1021 -0.2280  0.0040
 1134loPI   C2A17808  15.137   2.017   6.074 -0.0618  0.0953  0.0204
 1134loPI   C3A17809  15.175   1.951   6.499  0.0967  0.0836 -0.2423
 1134loPI   C4A17810  15.280   2.028   6.878 -0.0474  0.0093 -0.2548
 1134loPI   C5A17811  15.129   1.920   7.285 -0.1306  0.0040  0.1570
 1134loPI   C6A17812  15.228   2.196   7.706 -0.0634  0.1149 -0.0734
 1134loPI   C1B17813  14.579   2.026   5.760  0.0292 -0.1098 -0.2036
 1134loPI   C2B17814  14.644   2.073   6.201 -0.1348 -0.0465  0.2696
 1134loPI   C3B17815  14.772   2.128   6.686 -0.0652  0.1719  0.3463
 1134loPI   C4B17816  14.789   2.274   7.061 -0.0413 -0.2030 -0.0410
 1135loPI    C117817   4.027  19.063   4.909  0.1305 -0.2449  0.1101
 1135loPI    C217818   3.714  18.815   4.876  0.0093 -0.0914  0.0943
 1135loPI    C317819   3.737  19.141   4.645  0.2749 -0.1996 -0.0370
 1135loPI   PO417820   3.988  19.111   5.188 -0.0310 -0.0284  0.1848
 1135loPI   GL117821   3.814  19.276   5.513 -0.2803 -0.0156  0.2374
 1135loPI   GL217822   3.972  19.053   5.757 -0.1081 -0.2242 -0.0037
 1135loPI   C1A17823   3.798  19.600   5.830 -0.1278  0.3791 -0.3653
 1135loPI   C2A17824   3.839  19.639   6.203  0.0279 -0.1711  0.0871
 1135loPI   C3A17825   3.603  19.970   6.429 -0.1111  0.0413  0.1800
 1135loPI   C4A17826   3.399  20.098   6.627 -0.0922 -0.1294 -0.0474
 1135loPI   C5A17827   2.987  20.216   6.858 -0.1574 -0.1110  0.1055
 1135loPI   C6A17828   2.653  20.086   6.841  0.0939  0.0030  0.3384
 1135loPI   C1B17829   4.102  19.180   6.056  0.1290  0.0449  0.2688
 1135loPI   C2B17830   4.467  19.201   6.355 -0.2892 -0.2790 -0.1346
 1135loPI   C3B17831   4.673  19.427   6.633 -0.1556  0.3638 -0.0615
 1135loPI   C4B17832   4.547  19.885   6.787  0.0351  0.1999  0.2473
 1136loPI    C117833   7.450   1.868   5.035  0.1070 -0.1796 -0.0844
 1136loPI    C217834   7.484   1.506   5.201  0.1865 -0.2469 -0.2445
 1136loPI    C317835   7.196   1.577   4.933  0.0450 -0.1327 -0.0646
 1136loPI   PO417836   7.438   2.035   5.257 -0.0121  0.1208  0.0251
 1136loPI   GL117837   7.536   1.808   5.645  0.0179 -0.1234 -0.1600
 1136loPI   GL217838   7.867   1.576   5.510  0.2019 -0.0156  0.0456
 1136loPI   C1A17839   7.364   1.795   5.954 -0.0124  0.1853 -0.4664
 1136loPI   C2A17840   7.374   1.833   6.376 -0.0579  0.2386 -0.2050
 1136loPI   C3A17841   7.393   1.811   6.799 -0.0109  0.0244 -0.2237
 1136loPI   C4A17842   7.653   1.546   6.930 -0.0194  0.2437  0.2706
 1136loPI   C5A17843   7.758   1.265   7.317 -0.0194 -0.4922  0.1788
 1136loPI   C6A17844   7.692   0.956   7.640  0.1988 -0.0354  0.1501
 1136loPI   C1B17845   7.944   1.649   5.890  0.0227 -0.2634  0.0271
 1136loPI   C2B17846   7.758   1.498   6.303 -0.0041  0.0026 -0.0547
 1136loPI   C3B17847   7.911   1.229   6.607 -0.2174  0.1743  0.0209
 1136loPI   C4B17848   7.637   0.959   6.870 -0.3224 -0.4134  0.0361
 1137loPI    C117849   1.749   3.285   4.515 -0.0811 -0.1611 -0.0369
 1137loPI    C217850   1.987   3.521   4.297  0.1332 -0.2679  0.0786
 1137loPI    C317851   1.760   3.245   4.117  0.0103 -0.0908 -0.0416
 1137loPI   PO417852   1.761   3.415   4.722  0.2020 -0.0683  0.1090
 1137loPI   GL117853   1.833   3.441   5.023  0.0489 -0.0322  0.0790
 1137loPI   GL217854   1.921   3.138   5.090  0.2107  0.2896 -0.0040
 1137loPI   C1A17855   1.758   3.673   5.376 -0.2844  0.1032 -0.0735
 1137loPI   C2A17856   1.700   3.933   5.790 -0.0105 -0.0302  0.4324
 1137loPI   C3A17857   1.928   4.034   6.101 -0.1258 -0.0761  0.1565
 1137loPI   C4A17858   2.005   3.752   6.539  0.0426  0.0281 -0.3142
 1137loPI   C5A17859   2.098   3.467   6.744  0.2545  0.0651 -0.3002
 1137loPI   C6A17860   2.330   3.505   7.099 -0.1226  0.3301  0.0096
 1137loPI   C1B17861   1.773   3.176   5.529  0.0616 -0.2317  0.1349
 1137loPI   C2B17862   1.513   3.095   6.024 -0.0915  0.0370 -0.0241
 1137loPI   C3B17863   1.226   3.262   6.346 -0.5604 -0.1524 -0.0258
 1137loPI   C4B17864   1.039   3.619   6.249  0.0983 -0.1712 -0.0168
 1138loPI    C117865   2.851   1.718   4.545 -0.0039  0.0923 -0.1051
 1138loPI    C217866   2.824   1.393   4.313 -0.1815 -0.0399  0.0975
 1138loPI    C317867   3.087   1.681   4.224 -0.2767 -0.0679 -0.2914
 1138loPI   PO417868   2.864   1.644   4.745 -0.0583  0.1862 -0.1281
 1138loPI   GL117869   2.867   1.390   5.084 -0.1346  0.3731  0.0413
 1138loPI   GL217870   3.177   1.266   5.171  0.0002  0.0464  0.0453
 1138loPI   C1A17871   2.739   1.244   5.505 -0.0398  0.1780 -0.0321
 1138loPI   C2A17872   2.759   1.627   5.713  0.0883 -0.2582 -0.1138
 1138loPI   C3A17873   2.804   1.880   6.043  0.0592 -0.1441 -0.3126
 1138loPI   C4A17874   2.721   2.015   6.454 -0.0767 -0.1003 -0.0975
 1138loPI   C5A17875   2.685   1.995   6.964  0.1189 -0.0345 -0.0177
 1138loPI   C6A17876   2.356   1.796   7.308 -0.4395 -0.0190  0.2840
 1138loPI   C1B17877   3.321   1.350   5.662 -0.0962 -0.0371 -0.1368
 1138loPI   C2B17878   3.222   1.630   5.947 -0.0616 -0.0526 -0.3261
 1138loPI   C3B17879   3.236   1.658   6.339 -0.2744  0.0173 -0.0971
 1138loPI   C4B17880   2.917   1.555   6.562  0.0042 -0.1430 -0.0966
 1139loPI    C117881  18.931   8.657   4.751  0.2123 -0.2062  0.1337
 1139loPI    C217882  18.874   8.311   4.557 -0.1195 -0.0866  0.0093
 1139loPI    C317883  19.149   8.571   4.426  0.1607 -0.3172  0.1278
 1139loPI   PO417884  18.583   8.598   4.826 -0.1198 -0.2209  0.0836
 1139loPI   GL117885  18.499   8.531   5.259 -0.2092 -0.2118 -0.1490
 1139loPI   GL217886  18.770   8.606   5.435  0.0215  0.0396  0.0128
 1139loPI   C1A17887  18.322   8.847   5.581  0.0671  0.0832  0.3380
 1139loPI   C2A17888  18.267   8.844   6.042 -0.0852 -0.1522  0.0580
 1139loPI   C3A17889  18.303   8.970   6.517  0.0849 -0.0095 -0.0322
 1139loPI   C4A17890  18.342   8.843   6.930 -0.2651 -0.1231  0.3215
 1139loPI   C5A17891  18.308   9.033   7.323 -0.0199  0.1197 -0.0584
 1139loPI   C6A17892  18.465   9.303   7.720 -0.2265 -0.2115  0.0028
 1139loPI   C1B17893  18.787   8.546   5.921  0.1432 -0.0921  0.1671
 1139loPI   C2B17894  18.739   8.766   6.271 -0.1906 -0.2285 -0.0412
 1139loPI   C3B17895  18.783   8.823   6.720  0.1106 -0.2437 -0.1325
 1139loPI   C4B17896  18.792   9.085   7.116 -0.1687  0.0592  0.3861
 1140loPI    C117897   3.732  11.338   5.165  0.1608  0.0710  0.0902
 1140loPI    C217898   3.575  10.973   5.124 -0.2370  0.2414  0.0567
 1140loPI    C317899   3.840  11.106   4.856 -0.2192  0.0431 -0.0265
 1140loPI   PO417900   3.709  11.310   5.432  0.1528  0.0448 -0.1661
 1140loPI   GL117901   3.712  11.428   5.856 -0.2111  0.1310  0.2494
 1140loPI   GL217902   3.956  11.686   5.979 -0.0646  0.0522  0.2057
 1140loPI   C1A17903   3.627  11.371   6.257 -0.2289 -0.3470  0.0787
 1140loPI   C2A17904   3.508  11.119   6.641 -0.4042 -0.1200  0.1014
 1140loPI   C3A17905   3.577  11.061   7.002  0.2282  0.2888  0.1976
 1140loPI   C4A17906   3.442  11.361   7.307 -0.2560 -0.1567  0.0437
 1140loPI   C5A17907   3.260  11.481   7.607 -0.2095  0.0963  0.1022
 1140loPI   C6A17908   3.122  11.887   7.663  0.0115 -0.1213  0.0907
 1140loPI   C1B17909   4.049  11.617   6.418 -0.2346  0.0923 -0.2570
 1140loPI   C2B17910   4.189  11.739   6.819 -0.1555 -0.1401  0.1043
 1140loPI   C3B17911   4.366  11.998   7.208 -0.3367 -0.1540 -0.0129
 1140loPI   C4B17912   4.641  12.195   7.500 -0.1021  0.1972 -0.0150
 1141loPI    C117913   5.886  11.363   4.755 -0.0897 -0.1859 -0.1037
 1141loPI    C217914   5.663  11.249   4.443 -0.1698  0.2079 -0.1960
 1141loPI    C317915   6.046  11.136   4.466 -0.2729 -0.1635 -0.2249
 1141loPI   PO417916   5.869  11.330   5.033  0.4029  0.2369 -0.2712
 1141loPI   GL117917   5.955  10.969   5.313 -0.1583  0.1363  0.1729
 1141loPI   GL217918   6.201  11.187   5.396 -0.0856 -0.0040  0.2894
 1141loPI   C1A17919   5.921  11.064   5.726 -0.1965  0.1064  0.0002
 1141loPI   C2A17920   5.813  11.097   6.174 -0.0523  0.0650 -0.1355
 1141loPI   C3A17921   5.855  10.864   6.508  0.2931  0.1647  0.0785
 1141loPI   C4A17922   5.927  10.588   6.804 -0.2711  0.1602  0.0938
 1141loPI   C5A17923   6.144  10.473   7.093  0.2242 -0.1617 -0.0317
 1141loPI   C6A17924   6.111  10.196   7.371 -0.1603 -0.1079  0.4107
 1141loPI   C1B17925   6.263  11.263   6.007 -0.1775 -0.2375  0.0837
 1141loPI   C2B17926   6.280  11.104   6.373 -0.0306  0.0384  0.2408
 1141loPI   C3B17927   6.268  11.134   6.800  0.0068 -0.3109  0.1424
 1141loPI   C4B17928   6.216  10.975   7.212  0.3687 -0.0372 -0.5083
 1142loPI    C117929   2.257  15.302   5.043 -0.0499  0.1683  0.0360
 1142loPI    C217930   2.252  14.902   5.049  0.1527  0.1636 -0.0264
 1142loPI    C317931   2.176  15.098   4.709  0.1948  0.1748 -0.0294
 1142loPI   PO417932   2.392  15.401   5.120  0.0303  0.1411  0.0081
 1142loPI   GL117933   2.382  15.642   5.490  0.2429  0.0349 -0.2196
 1142loPI   GL217934   2.343  16.051   5.414 -0.3469  0.0322 -0.0145
 1142loPI   C1A17935   2.611  15.568   5.865  0.3269 -0.0333 -0.2182
 1142loPI   C2A17936   2.906  15.702   6.237 -0.1619  0.1679 -0.0682
 1142loPI   C3A17937   2.899  15.785   6.624 -0.1174 -0.1790 -0.2835
 1142loPI   C4A17938   2.874  15.863   6.976  0.2070  0.1581 -0.2440
 1142loPI   C5A17939   2.572  15.680   7.321 -0.1165 -0.1588  0.0124
 1142loPI   C6A17940   2.563  15.543   7.773 -0.1737 -0.1932  0.1340
 1142loPI   C1B17941   2.404  16.028   5.849  0.1326  0.1481 -0.1147
 1142loPI   C2B17942   2.484  15.940   6.279  0.0536  0.2182  0.0565
 1142loPI   C3B17943   2.504  16.133   6.661 -0.0488  0.1703  0.3252
 1142loPI   C4B17944   2.502  16.175   7.065 -0.0399  0.2100  0.0906
 1143loPI    C117945   9.600  13.990   4.507  0.0855 -0.0864  0.0736
 1143loPI    C217946   9.774  14.245   4.252  0.0550 -0.0080  0.1306
 1143loPI    C317947   9.994  13.970   4.442  0.0809 -0.0541  0.0346
 1143loPI   PO417948   9.564  14.115   4.721  0.0694  0.0357 -0.0653
 1143loPI   GL117949   9.633  14.335   5.069 -0.2987  0.1829 -0.1077
 1143loPI   GL217950   9.513  14.110   5.250 -0.0272  0.1425 -0.3029
 1143loPI   C1A17951   9.907  14.377   5.395 -0.0609 -0.3058  0.0574
 1143loPI   C2A17952   9.845  14.433   5.880  0.1221  0.0249 -0.4836
 1143loPI   C3A17953   9.703  14.449   6.246  0.0781 -0.0150  0.0342
 1143loPI   C4A17954   9.714  14.478   6.701 -0.0279 -0.1153  0.0590
 1143loPI   C5A17955   9.503  14.677   6.928  0.1740  0.3414 -0.2464
 1143loPI   C6A17956   9.359  14.598   7.307 -0.0566 -0.2704  0.1900
 1143loPI   C1B17957   9.380  14.330   5.595 -0.0888 -0.0328  0.0435
 1143loPI   C2B17958   9.464  14.032   5.943  0.0089  0.1466  0.0463
 1143loPI   C3B17959   9.458  13.988   6.458  0.2112 -0.4030  0.1173
 1143loPI   C4B17960   9.375  13.761   6.730 -0.0224 -0.1477  0.0950
 1144loPI    C117961  15.114  17.764   4.781  0.0311 -0.0227  0.0201
 1144loPI    C217962  14.727  17.813   4.692 -0.0241 -0.0652  0.2321
 1144loPI    C317963  14.910  17.467   4.609 -0.0351 -0.0501  0.1447
 1144loPI   PO417964  15.105  17.896   5.045 -0.0095  0.2355  0.0704
 1144loPI   GL117965  15.113  17.758   5.434 -0.1524 -0.4047 -0.0319
 1144loPI   GL217966  14.750  17.728   5.585 -0.0507 -0.0927 -0.0388
 1144loPI   C1A17967  15.106  17.933   5.891  0.1054  0.0430  0.0439
 1144loPI   C2A17968  15.236  17.966   6.325 -0.0917  0.4020  0.0819
 1144loPI   C3A17969  15.360  17.925   6.854 -0.0291  0.1739 -0.1425
 1144loPI   C4A17970  15.459  17.920   7.390 -0.2326  0.0775 -0.0186
 1144loPI   C5A17971  15.509  17.573   7.829  0.1766  0.1864  0.0723
 1144loPI   C6A17972  15.501  17.312   8.029 -0.0192 -0.1018  0.1567
 1144loPI   C1B17973  14.591  17.731   5.956 -0.2786  0.2375  0.1022
 1144loPI   C2B17974  14.755  17.588   6.344 -0.2613 -0.1509  0.0817
 1144loPI   C3B17975  14.891  17.840   6.738 -0.0189  0.1993  0.3174
 1144loPI   C4B17976  14.923  17.928   7.062 -0.3738 -0.1317  0.1614
 1145loPI    C117977   8.121   8.937   4.861  0.0243  0.0499 -0.0248
 1145loPI    C217978   7.812   8.699   4.774  0.1042 -0.1533  0.2352
 1145loPI    C317979   8.152   8.669   4.566  0.0331 -0.0994  0.1104
 1145loPI   PO417980   8.095   8.798   5.146  0.0036 -0.3465 -0.0474
 1145loPI   GL117981   8.219   8.681   5.605 -0.0741 -0.1627  0.3080
 1145loPI   GL217982   8.371   8.409   5.533 -0.2283  0.0766 -0.0125
 1145loPI   C1A17983   8.294   8.958   5.955 -0.0617  0.1954 -0.3020
 1145loPI   C2A17984   8.191   9.190   6.250  0.0225  0.2330 -0.2533
 1145loPI   C3A17985   8.263   9.208   6.679  0.3617  0.1026  0.3659
 1145loPI   C4A17986   8.237   9.250   7.140 -0.0075  0.2606  0.1084
 1145loPI   C5A17987   8.387   9.007   7.430  0.0740  0.0994 -0.1554
 1145loPI   C6A17988   8.745   8.903   7.650 -0.2443 -0.0066  0.1679
 1145loPI   C1B17989   8.595   8.326   5.922 -0.0271  0.0659  0.1306
 1145loPI   C2B17990   8.606   8.295   6.281  0.5237 -0.2786  0.2301
 1145loPI   C3B17991   8.306   8.345   6.651  0.0874  0.1593  0.0024
 1145loPI   C4B17992   7.964   8.231   6.603  0.0532 -0.1941 -0.0033
 1146loPI    C117993   3.811   2.915   4.685  0.0533 -0.4113  0.1115
 1146loPI    C217994   4.138   2.803   4.483  0.1361  0.2578 -0.1505
 1146loPI    C317995   3.871   3.048   4.312 -0.2716  0.0916  0.2282
 1146loPI   PO417996   3.892   2.922   4.984  0.1164  0.0040 -0.0613
 1146loPI   GL117997   4.045   3.248   5.221  0.2511  0.0002  0.0312
 1146loPI   GL217998   3.696   3.323   5.355 -0.0673  0.0563 -0.4344
 1146loPI   C1A17999   4.298   3.226   5.543 -0.1400  0.0600  0.0991
 1146loPI   C2A18000   4.305   3.006   5.964 -0.1723 -0.1731  0.0538
 1146loPI   C3A18001   4.326   2.777   6.287  0.2805 -0.0579  0.1912
 1146loPI   C4A18002   4.290   2.736   6.706  0.3476  0.2239 -0.1216
 1146loPI   C5A18003   4.177   2.531   7.115  0.3871 -0.0991 -0.2209
 1146loPI   C6A18004   4.105   2.219   7.340  0.5077 -0.1611  0.0144
 1146loPI   C1B18005   3.777   3.181   5.748  0.1902  0.2222  0.1690
 1146loPI   C2B18006   3.850   2.982   6.274 -0.1115  0.0980 -0.0443
 1146loPI   C3B18007   3.923   3.086   6.726  0.2084  0.1013  0.1141
 1146loPI   C4B18008   3.912   3.271   7.080 -0.0485 -0.1268 -0.0705
 1147loPI    C118009   7.639   7.146   4.680 -0.0965 -0.3305  0.0882
 1147loPI    C218010   7.935   7.079   4.419 -0.1174 -0.0740 -0.0039
 1147loPI    C318011   7.614   7.290   4.308 -0.2337 -0.1617  0.1614
 1147loPI   PO418012   7.792   7.154   4.951  0.0144  0.0836 -0.0017
 1147loPI   GL118013   7.861   6.845   5.238  0.2042 -0.0097  0.3576
 1147loPI   GL218014   7.511   6.653   5.366 -0.1207 -0.3251 -0.2732
 1147loPI   C1A18015   7.875   6.851   5.707 -0.2526  0.0656  0.2692
 1147loPI   C2A18016   7.962   7.085   6.089  0.0295 -0.1332 -0.0540
 1147loPI   C3A18017   7.871   7.480   6.220  0.1511  0.1215 -0.2952
 1147loPI   C4A18018   7.882   7.695   6.593  0.4118 -0.0098 -0.0707
 1147loPI   C5A18019   7.949   7.871   7.035  0.1976  0.3249  0.0782
 1147loPI   C6A18020   7.837   7.959   7.435  0.2657 -0.0497  0.2653
 1147loPI   C1B18021   7.343   6.711   5.780 -0.1378  0.2951 -0.0328
 1147loPI   C2B18022   7.506   6.640   6.245  0.2556 -0.1570  0.0069
 1147loPI   C3B18023   7.606   6.700   6.715 -0.1724 -0.3113 -0.1881
 1147loPI   C4B18024   7.829   6.700   7.104 -0.0125  0.1271 -0.2307
 1148loPI    C118025  14.410   7.712   5.052 -0.0367 -0.1178 -0.0737
 1148loPI    C218026  14.370   7.386   4.824  0.0443 -0.1383 -0.0590
 1148loPI    C318027  14.058   7.629   4.882  0.0297 -0.1199 -0.2113
 1148loPI   PO418028  14.570   7.664   5.230  0.0840  0.2503  0.0154
 1148loPI   GL118029  14.694   7.629   5.620 -0.1304  0.0463  0.0149
 1148loPI   GL218030  14.867   7.208   5.620  0.2462  0.1937 -0.1438
 1148loPI   C1A18031  14.654   7.645   6.004  0.0926 -0.0068 -0.1061
 1148loPI   C2A18032  14.624   7.756   6.456  0.1022  0.1457  0.0084
 1148loPI   C3A18033  14.679   7.924   6.953  0.2295 -0.0306  0.2733
 1148loPI   C4A18034  14.929   8.213   7.052  0.3326  0.1044  0.0233
 1148loPI   C5A18035  15.420   8.352   7.054 -0.3952  0.3097 -0.0320
 1148loPI   C6A18036  15.573   8.699   7.009  0.1169 -0.0468  0.0701
 1148loPI   C1B18037  14.796   7.117   6.042 -0.1392 -0.3562 -0.4738
 1148loPI   C2B18038  14.950   7.367   6.401  0.2219  0.2128 -0.0404
 1148loPI   C3B18039  14.858   7.377   6.812  0.2388 -0.0773 -0.2106
 1148loPI   C4B18040  14.921   7.290   7.095  0.1022 -0.1428 -0.0627
 1149loPI    C118041   9.553   9.305   5.100 -0.2105 -0.0825 -0.2019
 1149loPI    C218042   9.267   9.180   4.850 -0.2480  0.1662 -0.2871
 1149loPI    C318043   9.517   9.471   4.738  0.1243 -0.1355 -0.2629
 1149loPI   PO418044   9.389   9.329   5.339  0.1764  0.0234  0.0244
 1149loPI   GL118045   9.439   9.668   5.575  0.0853  0.0002  0.2571
 1149loPI   GL218046   9.545   9.866   5.791 -0.3279 -0.1955  0.2340
 1149loPI   C1A18047   9.584   9.349   5.997 -0.1384 -0.1207  0.2529
 1149loPI   C2A18048   9.723   9.639   6.252  0.0232 -0.1355  0.1406
 1149loPI   C3A18049   9.631   9.930   6.588  0.0308 -0.2330 -0.0670
 1149loPI   C4A18050   9.731  10.188   6.936 -0.1189  0.0042 -0.0628
 1149loPI   C5A18051   9.949  10.240   7.368 -0.0421  0.0767 -0.0133
 1149loPI   C6A18052  10.280   9.973   7.575 -0.0251  0.0326 -0.1242
 1149loPI   C1B18053   9.448  10.160   6.060 -0.1437  0.0378  0.4234
 1149loPI   C2B18054   9.178  10.266   6.402  0.2700 -0.2316 -0.1241
 1149loPI   C3B18055   8.884  10.413   6.683  0.0938  0.2584 -0.2206
 1149loPI   C4B18056   8.539  10.349   6.966 -0.3211 -0.0214 -0.0597
 1150loPI    C118057  10.711   3.896   5.056  0.1429 -0.1084  0.1230
 1150loPI    C218058  10.345   3.927   4.898  0.1640  0.5109  0.1733
 1150loPI    C318059  10.592   3.638   4.774 -0.2890  0.1675  0.0441
 1150loPI   PO418060  10.822   4.126   5.104 -0.0836  0.2975  0.1149
 1150loPI   GL118061  10.915   4.182   5.474 -0.0781  0.2213  0.2792
 1150loPI   GL218062  10.775   4.474   5.505 -0.2266  0.2176 -0.1654
 1150loPI   C1A18063  11.164   4.112   5.778 -0.2633 -0.2809  0.4735
 1150loPI   C2A18064  11.429   4.285   6.225  0.0523  0.0651  0.0707
 1150loPI   C3A18065  11.437   4.484   6.649 -0.1920  0.0366 -0.1133
 1150loPI   C4A18066  11.615   4.572   7.011  0.3265 -0.1638  0.0041
 1150loPI   C5A18067  11.709   4.581   7.410 -0.0007 -0.1318 -0.1614
 1150loPI   C6A18068  11.707   4.442   7.814 -0.2673 -0.3135 -0.1564
 1150loPI   C1B18069  10.838   4.437   5.947 -0.1665 -0.2363 -0.2809
 1150loPI   C2B18070  10.956   4.284   6.221  0.1687 -0.0032  0.3120
 1150loPI   C3B18071  10.889   4.256   6.636 -0.0125 -0.2398  0.1544
 1150loPI   C4B18072  10.802   4.366   7.038 -0.0025  0.2447  0.3806
 1151loPI    C118073  13.891  12.484   4.922  0.1221  0.1319 -0.2587
 1151loPI    C218074  14.067  12.240   4.658 -0.0455 -0.0749 -0.1821
 1151loPI    C318075  13.741  12.447   4.553 -0.0489 -0.0745 -0.1708
 1151loPI   PO418076  13.923  12.332   5.172  0.0809  0.2822 -0.2420
 1151loPI   GL118077  13.922  12.361   5.610 -0.0188 -0.0683  0.3862
 1151loPI   GL218078  14.150  12.093   5.523 -0.0420  0.3488  0.1541
 1151loPI   C1A18079  13.784  12.733   6.019  0.1656 -0.1497 -0.0767
 1151loPI   C2A18080  13.768  12.787   6.421  0.0190 -0.4028  0.0728
 1151loPI   C3A18081  13.781  12.513   6.761 -0.0896 -0.1190 -0.0545
 1151loPI   C4A18082  13.788  12.566   7.178  0.0571  0.0607 -0.0119
 1151loPI   C5A18083  13.990  12.923   7.321  0.0886 -0.1686  0.2358
 1151loPI   C6A18084  14.015  13.286   7.298  0.1183 -0.1946 -0.1157
 1151loPI   C1B18085  14.247  12.218   5.923 -0.2579  0.0247  0.2201
 1151loPI   C2B18086  14.363  12.213   6.330  0.0001  0.2019  0.3184
 1151loPI   C3B18087  14.238  12.256   6.765 -0.0676  0.4638  0.1583
 1151loPI   C4B18088  14.146  12.141   7.135  0.1225 -0.1270  0.3466
 1152loPI    C118089  17.285   0.325   4.627 -0.0811  0.0183 -0.0522
 1152loPI    C218090  17.285   0.653   4.398  0.1298 -0.0300 -0.1233
 1152loPI    C318091  17.529   0.348   4.311  0.0281 -0.1530  0.0183
 1152loPI   PO418092  17.301   0.422   4.899  0.0933 -0.0544 -0.0770
 1152loPI   GL118093  17.172   0.474   5.333 -0.0883 -0.0152  0.0564
 1152loPI   GL218094  17.430   0.472   5.497  0.0527  0.1412 -0.2091
 1152loPI   C1A18095  16.889   0.443   5.608  0.1094 -0.3024 -0.1907
 1152loPI   C2A18096  16.720   0.490   6.016 -0.0388 -0.0331  0.0772
 1152loPI   C3A18097  16.601   0.638   6.469 -0.1700 -0.1535  0.0733
 1152loPI   C4A18098  16.636   0.772   6.804  0.0785  0.0742  0.2288
 1152loPI   C5A18099  16.767   0.987   7.124  0.2717  0.1008 -0.1442
 1152loPI   C6A18100  17.046   0.813   7.444  0.0130  0.1491  0.1044
 1152loPI   C1B18101  17.575   0.238   5.881  0.0956  0.0489 -0.1017
 1152loPI   C2B18102  17.644   0.012   6.165  0.0833  0.2772  0.0577
 1152loPI   C3B18103  17.778  -0.195   6.567 -0.3427  0.4125  0.2642
 1152loPI   C4B18104  17.564  -0.306   6.985 -0.1879  0.0889  0.2719
 1153loPI    C118105   5.224  18.934   4.863  0.1300 -0.1016  0.3301
 1153loPI    C218106   4.920  19.191   4.909  0.2372  0.1259 -0.1701
 1153loPI    C318107   4.887  18.884   4.653  0.3438  0.0130 -0.0503
 1153loPI   PO418108   5.377  18.981   5.143  0.0037  0.2302 -0.2159
 1153loPI   GL118109   5.588  18.726   5.458 -0.1915 -0.0071  0.2468
 1153loPI   GL218110   5.355  18.600   5.530  0.0389 -0.1341 -0.0445
 1153loPI   C1A18111   5.882  18.576   5.696  0.0679 -0.0186  0.0026
 1153loPI   C2A18112   6.260  18.654   5.993  0.1201  0.1415 -0.0803
 1153loPI   C3A18113   6.321  18.575   6.391 -0.1425 -0.1005  0.0869
 1153loPI   C4A18114   6.345  18.736   6.833 -0.0696  0.3388 -0.1633
 1153loPI   C5A18115   6.280  18.976   7.169 -0.2543 -0.2258 -0.3406
 1153loPI   C6A18116   6.527  19.368   7.269 -0.0028 -0.2618 -0.0031
 1153loPI   C1B18117   5.460  18.592   5.984  0.1822  0.1990 -0.1337
 1153loPI   C2B18118   5.385  18.685   6.419  0.0521  0.2539 -0.3375
 1153loPI   C3B18119   5.359  18.840   6.782 -0.0659  0.2768 -0.1401
 1153loPI   C4B18120   5.435  19.186   7.077 -0.2691  0.1469  0.1970
 1154loPI    C118121  16.991   0.829   4.744  0.2575  0.0787 -0.0059
 1154loPI    C218122  16.692   1.087   4.680  0.2330  0.0796  0.1095
 1154loPI    C318123  16.947   0.999   4.384  0.0434 -0.0179 -0.0266
 1154loPI   PO418124  16.990   0.820   4.968 -0.0672  0.1379 -0.3434
 1154loPI   GL118125  17.043   1.015   5.351 -0.0887  0.0610  0.0871
 1154loPI   GL218126  17.219   0.973   5.493 -0.0510  0.1739 -0.2554
 1154loPI   C1A18127  16.744   0.918   5.726  0.2470  0.1046 -0.0002
 1154loPI   C2A18128  16.710   1.003   6.095  0.0694  0.0599  0.0071
 1154loPI   C3A18129  16.921   1.100   6.509  0.0404  0.2456  0.1376
 1154loPI   C4A18130  17.172   1.269   6.783  0.0518 -0.2102  0.1466
 1154loPI   C5A18131  17.364   1.128   7.158  0.0863  0.1725  0.0244
 1154loPI   C6A18132  17.531   0.759   7.480  0.1031  0.0432 -0.0602
 1154loPI   C1B18133  17.169   0.618   5.965  0.1072 -0.0618 -0.3123
 1154loPI   C2B18134  17.126   0.609   6.457  0.1632 -0.0091 -0.0380
 1154loPI   C3B18135  17.121   0.718   6.788 -0.1721  0.1671  0.2303
 1154loPI   C4B18136  17.286   0.393   7.191 -0.0812 -0.0114 -0.0321
 1155loPI    C118137   1.221   3.918   4.489 -0.0257  0.4238  0.0706
 1155loPI    C218138   1.212   3.755   4.124 -0.1630  0.2883  0.1333
 1155loPI    C318139   1.557   3.776   4.326 -0.1178  0.2086  0.0652
 1155loPI   PO418140   1.022   3.761   4.680  0.1185 -0.1286 -0.0725
 1155loPI   GL118141   0.907   3.681   5.091 -0.0032  0.0994 -0.1039
 1155loPI   GL218142   0.573   3.764   5.061  0.0672 -0.0149 -0.1462
 1155loPI   C1A18143   1.134   3.754   5.469  0.0966 -0.1889 -0.1656
 1155loPI   C2A18144   1.194   3.937   5.794 -0.1893 -0.1890 -0.1214
 1155loPI   C3A18145   1.301   4.060   6.233 -0.0459 -0.2011 -0.0929
 1155loPI   C4A18146   1.086   4.222   6.633 -0.0556  0.1639 -0.0935
 1155loPI   C5A18147   0.862   4.207   6.946  0.2120  0.0319  0.0884
 1155loPI   C6A18148   0.539   4.349   7.187 -0.2373  0.0173  0.0638
 1155loPI   C1B18149   0.657   3.626   5.538 -0.0208 -0.3600 -0.0318
 1155loPI   C2B18150   0.550   3.540   6.011  0.2559 -0.1846 -0.0355
 1155loPI   C3B18151   0.420   3.408   6.421 -0.1235  0.0183 -0.2342
 1155loPI   C4B18152   0.341   3.398   6.830 -0.0415  0.1419  0.1096
 1156loPI    C118153  17.801   7.302   4.513  0.0812  0.0702 -0.3265
 1156loPI    C218154  17.544   7.064   4.320 -0.1902  0.1768 -0.1031
 1156loPI    C318155  17.929   7.072   4.212 -0.1672 -0.3901 -0.0909
 1156loPI   PO418156  17.810   7.284   4.770  0.0445 -0.2287  0.0010
 1156loPI   GL118157  18.163   7.392   5.094 -0.0660  0.2152  0.2471
 1156loPI   GL218158  18.152   7.671   5.208 -0.1721 -0.0570  0.1738
 1156loPI   C1A18159  18.218   7.173   5.381  0.0477  0.0625  0.1619
 1156loPI   C2A18160  18.201   7.092   5.865  0.0185 -0.2734 -0.0555
 1156loPI   C3A18161  18.219   7.212   6.286  0.4624  0.0714 -0.0054
 1156loPI   C4A18162  18.420   7.144   6.637  0.0133 -0.0146 -0.3580
 1156loPI   C5A18163  18.390   6.799   6.933  0.0276 -0.0875  0.1960
 1156loPI   C6A18164  18.112   6.359   6.840  0.0494 -0.0116  0.2284
 1156loPI   C1B18165  18.106   7.967   5.530  0.0668  0.0386  0.1256
 1156loPI   C2B18166  18.022   7.958   5.974  0.0048 -0.1466 -0.2030
 1156loPI   C3B18167  17.988   7.658   6.297 -0.2526 -0.0950 -0.0185
 1156loPI   C4B18168  18.079   7.528   6.683  0.0480  0.0239 -0.1452
 1157loPI    C118169   8.390   1.863   4.913  0.1023 -0.0112 -0.0076
 1157loPI    C218170   8.482   2.235   4.799  0.0522 -0.0402 -0.1436
 1157loPI    C318171   8.210   2.024   4.595  0.1520 -0.1870 -0.1263
 1157loPI   PO418172   8.320   1.887   5.190  0.2162 -0.1522 -0.3440
 1157loPI   GL118173   8.367   1.876   5.566  0.0745 -0.0187  0.0720
 1157loPI   GL218174   8.487   1.582   5.564  0.1725  0.2041  0.1460
 1157loPI   C1A18175   8.408   2.102   5.936  0.0861  0.1769  0.0812
 1157loPI   C2A18176   8.401   2.141   6.343  0.3289  0.0461  0.0330
 1157loPI   C3A18177   8.337   2.181   6.751  0.2352 -0.1739 -0.2166
 1157loPI   C4A18178   8.317   2.201   7.174  0.1052 -0.1313 -0.1176
 1157loPI   C5A18179   8.540   2.377   7.481  0.0137 -0.0259 -0.4389
 1157loPI   C6A18180   8.604   2.373   7.901  0.1033 -0.1522 -0.2104
 1157loPI   C1B18181   8.428   1.519   6.015 -0.1998  0.2800  0.0546
 1157loPI   C2B18182   8.296   1.634   6.316  0.0006 -0.2820  0.0616
 1157loPI   C3B18183   8.167   1.703   6.738 -0.0841  0.2639  0.0159
 1157loPI   C4B18184   8.333   1.622   7.185  0.2059  0.0217  0.0096
 1158loPI    C118185  18.748   2.016   4.389 -0.0806  0.1203  0.0894
 1158loPI    C218186  18.485   1.865   4.128 -0.0382  0.2732 -0.0442
 1158loPI    C318187  18.827   2.024   3.997  0.1327  0.0562  0.1302
 1158loPI   PO418188  18.584   2.190   4.635  0.2030 -0.1186  0.0827
 1158loPI   GL118189  18.222   1.997   4.919  0.0944 -0.0250  0.2453
 1158loPI   GL218190  18.327   1.751   5.084 -0.2011  0.1104  0.1491
 1158loPI   C1A18191  17.932   2.147   5.328  0.1048  0.0207 -0.2238
 1158loPI   C2A18192  17.664   2.401   5.505 -0.2392  0.3866 -0.0241
 1158loPI   C3A18193  17.600   2.380   5.885 -0.1123  0.4578 -0.3621
 1158loPI   C4A18194  17.446   2.711   6.095 -0.2916 -0.0288 -0.1290
 1158loPI   C5A18195  17.561   3.164   6.270 -0.2140  0.0445 -0.1937
 1158loPI   C6A18196  17.811   3.488   6.437 -0.1798  0.0464 -0.2109
 1158loPI   C1B18197  18.357   1.949   5.461 -0.0279  0.2266  0.0576
 1158loPI   C2B18198  18.095   1.973   5.794  0.3755 -0.0166 -0.1735
 1158loPI   C3B18199  17.901   2.023   6.122  0.0923  0.1729 -0.1835
 1158loPI   C4B18200  17.817   1.962   6.515 -0.1260 -0.1427  0.3760
 1159loPI    C118201   1.874   9.346   4.816  0.3474 -0.1739  0.0979
 1159loPI    C218202   1.958   9.023   4.596 -0.0154 -0.2332  0.0392
 1159loPI    C318203   1.619   9.225   4.533  0.0695 -0.0112  0.2738
 1159loPI   PO418204   1.896   9.296   5.024  0.0003 -0.1045  0.0339
 1159loPI   GL118205   1.957   9.106   5.415 -0.2338  0.1253 -0.1249
 1159loPI   GL218206   1.776   8.854   5.427 -0.4982 -0.0731  0.1117
 1159loPI   C1A18207   2.057   9.281   5.740 -0.1931  0.1359 -0.1567
 1159loPI   C2A18208   2.043   9.260   6.182 -0.1198  0.0117  0.1311
 1159loPI   C3A18209   2.174   9.342   6.605 -0.0479 -0.2192  0.2348
 1159loPI   C4A18210   2.180   9.226   6.979 -0.0080  0.0332  0.0765
 1159loPI   C5A18211   2.390   9.270   7.347 -0.1402 -0.2844 -0.0042
 1159loPI   C6A18212   2.851   9.495   7.402  0.0300 -0.3100  0.3379
 1159loPI   C1B18213   1.860   8.808   5.931  0.2792  0.3188  0.3003
 1159loPI   C2B18214   1.782   8.874   6.328  0.0736 -0.0030  0.0258
 1159loPI   C3B18215   1.849   8.923   6.732 -0.0310 -0.2187  0.0772
 1159loPI   C4B18216   1.956   8.540   6.908 -0.0575 -0.1843  0.0980
 1160loPI    C118217  11.154  18.820   5.389  0.1548  0.0177 -0.0493
 1160loPI    C218218  11.461  18.579   5.476  0.2395  0.0752 -0.1848
 1160loPI    C318219  11.367  18.652   5.095 -0.0235 -0.0438 -0.1450
 1160loPI   PO418220  10.885  18.781   5.472  0.0893  0.1681  0.1318
 1160loPI   GL118221  10.687  18.760   5.825  0.1551  0.1371  0.0950
 1160loPI   GL218222  10.663  18.494   5.987 -0.1235 -0.2644 -0.1236
 1160loPI   C1A18223  10.596  19.014   6.179  0.1581  0.1235  0.0295
 1160loPI   C2A18224  10.573  19.025   6.655 -0.2295  0.0489  0.0206
 1160loPI   C3A18225  10.748  18.983   7.066 -0.1162 -0.0305  0.1742
 1160loPI   C4A18226  11.171  19.016   7.195 -0.1060 -0.1061 -0.0855
 1160loPI   C5A18227  11.417  18.954   7.563  0.2007 -0.0163 -0.0705
 1160loPI   C6A18228  11.760  18.707   7.725  0.0661 -0.2644  0.2591
 1160loPI   C1B18229  10.513  18.622   6.420  0.0842  0.1838  0.0002
 1160loPI   C2B18230  10.418  18.590   6.888  0.3176  0.1070 -0.0995
 1160loPI   C3B18231  10.546  18.616   7.322  0.1414 -0.0400  0.0354
 1160loPI   C4B18232  10.890  18.702   7.543 -0.0422  0.3670 -0.3670
 1161loPI    C118233   0.777   8.402   4.832 -0.0022  0.0828  0.0300
 1161loPI    C218234   1.001   8.072   4.792 -0.1561 -0.0273  0.0688
 1161loPI    C318235   0.640   8.092   4.620 -0.1456  0.1233  0.0624
 1161loPI   PO418236   0.779   8.354   5.074 -0.2456  0.0251  0.4312
 1161loPI   GL118237   0.869   8.536   5.337 -0.4090 -0.0840  0.1706
 1161loPI   GL218238   0.671   8.832   5.416 -0.1366 -0.2538 -0.1271
 1161loPI   C1A18239   0.944   8.739   5.827 -0.1051  0.0745 -0.1277
 1161loPI   C2A18240   0.884   8.688   6.269 -0.0938 -0.1089  0.2936
 1161loPI   C3A18241   0.535   8.711   6.668 -0.0132  0.3186 -0.2960
 1161loPI   C4A18242   0.509   8.850   7.152  0.0972 -0.0151 -0.0404
 1161loPI   C5A18243   0.618   8.995   7.564 -0.1142 -0.2870 -0.0532
 1161loPI   C6A18244   0.608   9.379   7.691  0.0516 -0.2559  0.0169
 1161loPI   C1B18245   0.286   8.771   5.610  0.1709  0.0536  0.1518
 1161loPI   C2B18246   0.075   8.981   5.993  0.1218  0.2220 -0.2810
 1161loPI   C3B18247   0.025   9.040   6.456 -0.1188 -0.1095 -0.0849
 1161loPI   C4B18248   0.114   9.099   6.851  0.2290 -0.1698  0.2002
 1162loPI    C118249  13.710   4.550   5.004 -0.2972 -0.0421 -0.0024
 1162loPI    C218250  13.432   4.742   4.790 -0.1449  0.0302 -0.1376
 1162loPI    C318251  13.732   4.554   4.605 -0.0520  0.0305  0.0104
 1162loPI   PO418252  13.551   4.406   5.192 -0.1092  0.1053  0.1878
 1162loPI   GL118253  13.379   4.246   5.551  0.1779  0.2025  0.0312
 1162loPI   GL218254  13.598   4.393   5.717  0.0681  0.1161 -0.2061
 1162loPI   C1A18255  13.012   4.136   5.824  0.2354 -0.0339  0.1967
 1162loPI   C2A18256  12.919   4.231   6.300 -0.0923  0.2579  0.0566
 1162loPI   C3A18257  12.591   4.161   6.563  0.0377  0.2400  0.1416
 1162loPI   C4A18258  12.290   4.156   6.813  0.1944  0.2859 -0.0630
 1162loPI   C5A18259  12.372   4.036   7.119  0.0618  0.2262  0.0588
 1162loPI   C6A18260  12.536   3.846   7.485  0.0890 -0.1312 -0.0208
 1162loPI   C1B18261  13.850   4.606   6.101  0.0990  0.1006  0.1243
 1162loPI   C2B18262  14.000   4.959   6.169 -0.1372 -0.2801  0.0160
 1162loPI   C3B18263  14.318   5.049   6.372 -0.0003  0.1263 -0.2131
 1162loPI   C4B18264  14.426   5.224   6.648 -0.1442 -0.0920  0.0494
 1163loPI    C118265  17.854  13.213   4.838  0.0473  0.1319  0.2704
 1163loPI    C218266  18.063  13.481   4.628 -0.1122  0.0259 -0.0289
 1163loPI    C318267  17.962  13.132   4.462 -0.1648 -0.0971  0.2565
 1163loPI   PO418268  17.989  13.149   5.118  0.1281  0.2667  0.2673
 1163loPI   GL118269  17.907  12.998   5.488 -0.0956 -0.0245 -0.0049
 1163loPI   GL218270  17.931  12.679   5.545  0.3017  0.0119  0.2176
 1163loPI   C1A18271  18.275  12.910   5.853 -0.3952  0.0081 -0.0149
 1163loPI   C2A18272  18.404  13.288   6.126 -0.1518  0.0470  0.1759
 1163loPI   C3A18273  18.496  13.229   6.539 -0.1603 -0.3180  0.0944
 1163loPI   C4A18274  18.864  13.386   6.838  0.0280  0.0048 -0.1706
 1163loPI   C5A18275  18.882  13.333   7.275  0.3411  0.0833  0.3503
 1163loPI   C6A18276  18.956  13.171   7.651  0.0186  0.2652 -0.0444
 1163loPI   C1B18277  17.842  12.613   6.047  0.1350  0.3454 -0.0616
 1163loPI   C2B18278  17.630  12.807   6.397 -0.1605  0.0668  0.1685
 1163loPI   C3B18279  17.860  12.849   6.762 -0.1579 -0.0839 -0.1729
 1163loPI   C4B18280  18.281  12.893   6.891 -0.0485  0.1249  0.0104
 1164loPI    C118281   3.574   8.103   4.836 -0.0431  0.0059  0.2724
 1164loPI    C218282   3.899   7.962   5.020  0.0969 -0.0604 -0.0203
 1164loPI    C318283   3.586   7.722   4.955  0.0741 -0.0553  0.0692
 1164loPI   PO418284   3.534   8.347   4.979 -0.2414  0.0312  0.0657
 1164loPI   GL118285   3.358   8.417   5.373 -0.3336 -0.0181 -0.1146
 1164loPI   GL218286   3.657   8.484   5.447  0.2411  0.1356  0.2008
 1164loPI   C1A18287   3.243   8.599   5.737  0.2675 -0.2483 -0.2077
 1164loPI   C2A18288   3.205   8.561   6.139  0.2173 -0.1122 -0.1013
 1164loPI   C3A18289   3.098   8.507   6.521  0.3413 -0.0872  0.0519
 1164loPI   C4A18290   2.920   8.489   6.951  0.1049 -0.1400 -0.1232
 1164loPI   C5A18291   2.897   8.473   7.426  0.1742  0.1243 -0.1265
 1164loPI   C6A18292   3.061   8.600   7.774 -0.2270 -0.0193  0.0176
 1164loPI   C1B18293   3.579   8.230   5.861  0.4017  0.0753 -0.3170
 1164loPI   C2B18294   3.430   8.068   6.278  0.0712  0.4245 -0.0903
 1164loPI   C3B18295   3.296   8.156   6.751  0.1207 -0.1014 -0.0552
 1164loPI   C4B18296   3.328   8.289   7.209  0.2119 -0.2158  0.3972
 1165loPI    C118297   7.042  17.010   4.782  0.1645 -0.0464 -0.1712
 1165loPI    C218298   7.056  17.392   4.901 -0.0910 -0.0460 -0.1381
 1165loPI    C318299   7.303  17.263   4.615  0.1208  0.0990 -0.0227
 1165loPI   PO418300   7.074  16.845   5.073 -0.1922  0.1762  0.5819
 1165loPI   GL118301   6.963  17.048   5.387 -0.2065  0.0310  0.1233
 1165loPI   GL218302   7.299  16.926   5.476  0.4458 -0.1113  0.0286
 1165loPI   C1A18303   6.830  17.082   5.812  0.1123 -0.0979  0.2291
 1165loPI   C2A18304   6.916  17.098   6.251 -0.0505 -0.2772  0.1832
 1165loPI   C3A18305   6.863  16.975   6.658 -0.0111 -0.1605  0.1846
 1165loPI   C4A18306   6.768  16.663   7.069  0.3799 -0.1363 -0.3022
 1165loPI   C5A18307   7.065  16.648   7.454 -0.1308  0.1176 -0.3099
 1165loPI   C6A18308   7.386  16.719   7.742  0.2742  0.0502 -0.0032
 1165loPI   C1B18309   7.317  17.167   5.835 -0.1777 -0.1411 -0.0139
 1165loPI   C2B18310   7.446  17.207   6.263 -0.1626 -0.0909  0.0250
 1165loPI   C3B18311   7.394  17.073   6.637  0.1342  0.2111 -0.1589
 1165loPI   C4B18312   7.347  16.968   7.116 -0.0664 -0.0484  0.1449
 1166loPI    C118313   6.226   2.572   5.031  0.0046  0.0590  0.2240
 1166loPI    C218314   6.581   2.528   4.853 -0.0194  0.0236  0.1845
 1166loPI    C318315   6.257   2.611   4.634 -0.0048  0.2323  0.2396
 1166loPI   PO418316   6.320   2.539   5.317  0.1137 -0.0255 -0.3474
 1166loPI   GL118317   6.517   2.272   5.700  0.1051  0.0613 -0.0711
 1166loPI   GL218318   6.310   2.162   5.834  0.2375  0.1681 -0.1002
 1166loPI   C1A18319   6.768   2.601   5.901  0.2760 -0.1053 -0.0022
 1166loPI   C2A18320   6.666   2.881   6.242  0.3649 -0.2361  0.0138
 1166loPI   C3A18321   6.883   3.057   6.608  0.0783 -0.2396 -0.2981
 1166loPI   C4A18322   7.178   3.160   6.921  0.2129 -0.1144  0.2063
 1166loPI   C5A18323   7.304   3.292   7.329 -0.1923  0.1011 -0.0586
 1166loPI   C6A18324   7.479   3.397   7.705  0.2086  0.0678 -0.2498
 1166loPI   C1B18325   6.441   2.394   6.227 -0.3270  0.1960  0.0782
 1166loPI   C2B18326   6.473   2.623   6.608 -0.1880 -0.1447 -0.2107
 1166loPI   C3B18327   6.642   2.876   7.055  0.5125 -0.0580 -0.2299
 1166loPI   C4B18328   6.905   2.918   7.387  0.1033  0.1538 -0.0150
 1167loPI    C118329  13.890   3.602   5.062 -0.1325  0.0100  0.0315
 1167loPI    C218330  13.895   3.388   4.724  0.3785 -0.0743  0.0846
 1167loPI    C318331  14.190   3.647   4.801  0.0151  0.3030  0.2461
 1167loPI   PO418332  13.810   3.401   5.250  0.3512  0.1771  0.0786
 1167loPI   GL118333  13.979   3.127   5.531  0.0303 -0.1674 -0.2076
 1167loPI   GL218334  14.261   2.992   5.747 -0.0415 -0.1106  0.0515
 1167loPI   C1A18335  13.738   3.155   5.902  0.1693  0.0936 -0.4633
 1167loPI   C2A18336  13.580   3.438   6.246  0.0173 -0.0056  0.0424
 1167loPI   C3A18337  13.280   3.448   6.590 -0.1181  0.0482  0.1897
 1167loPI   C4A18338  13.116   3.274   6.949  0.1837 -0.3269  0.1356
 1167loPI   C5A18339  13.003   2.925   7.185  0.0572  0.0455  0.2554
 1167loPI   C6A18340  13.185   2.677   7.451 -0.0352  0.0111  0.0341
 1167loPI   C1B18341  14.137   2.911   6.188 -0.5292  0.0340  0.1673
 1167loPI   C2B18342  13.912   3.116   6.430 -0.2174  0.0591  0.3811
 1167loPI   C3B18343  13.754   3.327   6.763  0.1744  0.0786 -0.0641
 1167loPI   C4B18344  13.976   3.322   7.254 -0.1710 -0.2029  0.1253
 1168loPI    C118345   6.422  14.051   4.643  0.1352  0.0375  0.0564
 1168loPI    C218346   6.496  14.412   4.489  0.0043  0.0360 -0.0117
 1168loPI    C318347   6.518  14.087   4.257  0.2966 -0.0204  0.0903
 1168loPI   PO418348   6.343  14.153   4.889  0.1477  0.1405  0.2624
 1168loPI   GL118349   6.638  14.118   5.266 -0.2990 -0.3223  0.0201
 1168loPI   GL218350   6.496  13.854   5.274  0.1486 -0.2122 -0.0579
 1168loPI   C1A18351   6.831  14.221   5.620 -0.1486  0.3268 -0.5126
 1168loPI   C2A18352   7.072  14.224   5.948  0.0681  0.1154  0.3408
 1168loPI   C3A18353   7.162  14.012   6.404 -0.0654  0.3542  0.2335
 1168loPI   C4A18354   7.106  13.990   6.872 -0.0674  0.0921 -0.3584
 1168loPI   C5A18355   7.090  13.880   7.264  0.0748 -0.0264  0.2025
 1168loPI   C6A18356   7.268  14.090   7.601 -0.0909  0.1675 -0.0803
 1168loPI   C1B18357   6.399  13.954   5.730 -0.2063  0.0845 -0.5183
 1168loPI   C2B18358   6.166  14.171   6.012 -0.3030 -0.0713 -0.0839
 1168loPI   C3B18359   6.299  14.382   6.417 -0.0973 -0.0436 -0.1588
 1168loPI   C4B18360   6.405  14.407   6.835 -0.2052  0.1078 -0.0504
 1169loPI    C118361  11.176   1.531   5.251 -0.1086  0.2767 -0.1616
 1169loPI    C218362  11.014   1.374   4.921 -0.0250  0.0489 -0.0959
 1169loPI    C318363  11.361   1.233   5.060 -0.0301  0.1837  0.0563
 1169loPI   PO418364  10.903   1.658   5.366  0.1650  0.3082 -0.0907
 1169loPI   GL118365  10.656   1.599   5.706 -0.3029  0.2446 -0.1007
 1169loPI   GL218366  10.522   1.869   5.744 -0.3666  0.2009 -0.0585
 1169loPI   C1A18367  10.654   1.267   6.133 -0.2269  0.0478 -0.0254
 1169loPI   C2A18368  10.963   0.925   6.374  0.5619 -0.2229 -0.1887
 1169loPI   C3A18369  11.118   0.642   6.587  0.1764  0.1744  0.3480
 1169loPI   C4A18370  11.375   0.577   6.960 -0.1393  0.0930  0.2970
 1169loPI   C5A18371  11.413   0.307   7.302 -0.0395  0.2847  0.1611
 1169loPI   C6A18372  10.975   0.297   7.579 -0.0654 -0.1650 -0.1456
 1169loPI   C1B18373  10.703   1.815   6.177 -0.0442  0.3969  0.0931
 1169loPI   C2B18374  10.646   1.715   6.631 -0.0950 -0.0889 -0.0388
 1169loPI   C3B18375  10.472   1.617   7.002 -0.0685 -0.0789  0.2807
 1169loPI   C4B18376  10.318   1.514   7.470 -0.0702  0.0356  0.1421
 1170loPI    C118377   8.800   5.871   4.866 -0.0858 -0.0115  0.1141
 1170loPI    C218378   8.515   6.104   5.021 -0.0533  0.0767  0.0420
 1170loPI    C318379   8.431   5.863   4.714 -0.0540  0.0924  0.0298
 1170loPI   PO418380   8.927   5.846   5.131 -0.1315  0.1100  0.0701
 1170loPI   GL118381   8.921   5.988   5.524  0.1144  0.2115 -0.0617
 1170loPI   GL218382   8.632   6.199   5.481  0.1927 -0.0334  0.2377
 1170loPI   C1A18383   9.180   5.999   5.914  0.2027  0.0610 -0.1101
 1170loPI   C2A18384   9.186   6.028   6.281  0.2178  0.0393  0.0177
 1170loPI   C3A18385   9.156   6.005   6.782  0.0580 -0.5142  0.3628
 1170loPI   C4A18386   9.085   5.811   7.219  0.2778 -0.0832 -0.1504
 1170loPI   C5A18387   9.134   5.845   7.619 -0.3609  0.0909 -0.1074
 1170loPI   C6A18388   8.822   6.107   7.852  0.1268 -0.1137  0.2566
 1170loPI   C1B18389   8.649   5.994   5.986  0.0384 -0.1534 -0.0934
 1170loPI   C2B18390   8.694   6.008   6.502  0.0680 -0.2249  0.2686
 1170loPI   C3B18391   8.730   6.178   6.959  0.3193  0.0418 -0.0852
 1170loPI   C4B18392   8.791   6.173   7.346 -0.0211 -0.2586  0.3095
 1171loPI    C118393  10.170  13.274   4.841  0.3463 -0.2994  0.1738
 1171loPI    C218394  10.424  13.248   4.533  0.1944 -0.1875  0.0375
 1171loPI    C318395  10.293  13.606   4.655  0.1292 -0.2423  0.1292
 1171loPI   PO418396  10.181  13.147   4.999  0.1143  0.0759 -0.1924
 1171loPI   GL118397  10.427  12.814   5.317 -0.0101 -0.2763  0.1501
 1171loPI   GL218398  10.489  13.193   5.397 -0.1302  0.1437  0.0222
 1171loPI   C1A18399  10.453  12.568   5.649  0.1655  0.0061 -0.3741
 1171loPI   C2A18400  10.348  12.616   6.042 -0.1912  0.0672 -0.2488
 1171loPI   C3A18401  10.518  12.593   6.370  0.0203 -0.1225  0.1156
 1171loPI   C4A18402  10.839  12.654   6.672  0.2670  0.0980 -0.0176
 1171loPI   C5A18403  10.801  12.921   7.130  0.2367 -0.0380 -0.0849
 1171loPI   C6A18404  11.143  13.238   7.197 -0.0308  0.0172 -0.0245
 1171loPI   C1B18405  10.658  13.054   5.890  0.0080 -0.0116  0.4467
 1171loPI   C2B18406  10.871  13.032   6.225  0.0892 -0.1091 -0.2247
 1171loPI   C3B18407  10.995  13.134   6.681 -0.0029 -0.0857 -0.2283
 1171loPI   C4B18408  11.455  13.191   6.824  0.1950 -0.0328 -0.2564
 1172loPI    C118409  14.112  16.980   4.935  0.0644  0.0752  0.0004
 1172loPI    C218410  14.320  16.895   4.604  0.0179  0.4975 -0.1432
 1172loPI    C318411  13.945  16.762   4.644  0.1514  0.1268 -0.0892
 1172loPI   PO418412  14.342  16.814   5.101  0.0105 -0.1623  0.2340
 1172loPI   GL118413  14.261  16.734   5.553 -0.0187 -0.1114 -0.0772
 1172loPI   GL218414  14.447  16.415   5.586  0.2608  0.0803  0.1749
 1172loPI   C1A18415  14.011  16.557   5.914 -0.2898  0.1017 -0.1503
 1172loPI   C2A18416  13.668  16.669   6.260 -0.1525 -0.1251 -0.2802
 1172loPI   C3A18417  13.584  16.605   6.690 -0.0022  0.1729 -0.0552
 1172loPI   C4A18418  13.400  16.497   7.119 -0.0361  0.1926 -0.3438
 1172loPI   C5A18419  13.324  16.543   7.516 -0.1118  0.1194  0.3678
 1172loPI   C6A18420  13.215  16.812   7.879  0.1147  0.2308  0.2172
 1172loPI   C1B18421  14.356  16.160   5.814  0.2601  0.3202 -0.2187
 1172loPI   C2B18422  14.341  16.340   6.212  0.0125  0.2900  0.3074
 1172loPI   C3B18423  14.556  16.532   6.567  0.2060 -0.1017 -0.0988
 1172loPI   C4B18424  14.737  16.853   6.750  0.2839 -0.0793 -0.1363
 1173loPI    C118425  19.020  13.652   4.523 -0.0306  0.0020 -0.0808
 1173loPI    C218426  19.230  13.367   4.337  0.0576 -0.2314  0.3627
 1173loPI    C318427  18.855  13.445   4.223  0.1744 -0.2299 -0.0366
 1173loPI   PO418428  19.196  13.702   4.736 -0.3017  0.2476 -0.4824
 1173loPI   GL118429  19.138  14.014   5.079  0.4101 -0.1589 -0.3086
 1173loPI   GL218430  18.833  13.810   5.094 -0.1151 -0.1488 -0.2485
 1173loPI   C1A18431  19.247  13.916   5.455  0.1671  0.0100  0.0220
 1173loPI   C2A18432  19.244  13.711   5.820 -0.3170 -0.0517 -0.3078
 1173loPI   C3A18433  19.120  13.822   6.258  0.1814  0.2059 -0.1137
 1173loPI   C4A18434  19.239  13.926   6.701  0.2660 -0.3870  0.1412
 1173loPI   C5A18435  19.105  13.866   7.072 -0.2412  0.3115 -0.3420
 1173loPI   C6A18436  18.762  13.764   7.338  0.0001 -0.7116 -0.0007
 1173loPI   C1B18437  18.826  13.668   5.474 -0.1152  0.2689 -0.1811
 1173loPI   C2B18438  18.747  13.610   5.910  0.0185  0.2578 -0.2819
 1173loPI   C3B18439  18.914  13.297   6.203  0.0528  0.1483 -0.2695
 1173loPI   C4B18440  18.992  13.065   6.525  0.1186  0.0129 -0.2568
 1174loPI    C118441  15.485   3.374   4.485 -0.0892 -0.0458  0.0771
 1174loPI    C218442  15.639   3.081   4.260  0.1046 -0.0424  0.2027
 1174loPI    C318443  15.752   3.460   4.200 -0.0785 -0.0028  0.0998
 1174loPI   PO418444  15.436   3.294   4.730  0.3074 -0.0262  0.0898
 1174loPI   GL118445  15.580   3.364   5.112  0.2790  0.0217  0.0677
 1174loPI   GL218446  15.540   3.685   5.146  0.1393  0.1071 -0.1595
 1174loPI   C1A18447  15.799   3.030   5.370  0.1919 -0.1349 -0.0137
 1174loPI   C2A18448  15.979   2.783   5.670  0.2672  0.1208  0.0326
 1174loPI   C3A18449  16.096   2.527   6.029 -0.1460 -0.0453 -0.0558
 1174loPI   C4A18450  16.431   2.500   6.190  0.1252 -0.2174  0.3194
 1174loPI   C5A18451  16.497   2.390   6.605 -0.2099 -0.1502  0.0097
 1174loPI   C6A18452  16.520   2.143   6.946  0.0442 -0.2123  0.0553
 1174loPI   C1B18453  15.306   3.761   5.595 -0.1993  0.4214  0.0540
 1174loPI   C2B18454  15.222   3.865   6.004  0.2057 -0.1012 -0.2302
 1174loPI   C3B18455  15.077   3.928   6.458  0.2014  0.0563  0.1911
 1174loPI   C4B18456  14.663   3.656   6.620  0.1014  0.1174 -0.0893
 1175loPI    C118457  10.382   1.873   5.223  0.0758  0.0933 -0.0530
 1175loPI    C218458  10.336   2.218   5.421 -0.1508  0.0295  0.0093
 1175loPI    C318459  10.323   2.214   5.021  0.1691  0.1379 -0.0055
 1175loPI   PO418460  10.223   1.686   5.380  0.4169  0.1992 -0.4200
 1175loPI   GL118461  10.191   1.526   5.805  0.0151  0.1686 -0.2208
 1175loPI   GL218462  10.006   1.813   5.781  0.0255  0.0417  0.0625
 1175loPI   C1A18463  10.230   1.613   6.238  0.1783 -0.1618 -0.2197
 1175loPI   C2A18464  10.147   1.852   6.531 -0.3018  0.1911 -0.0663
 1175loPI   C3A18465  10.075   1.966   6.976 -0.0640  0.1061 -0.2182
 1175loPI   C4A18466  10.183   2.022   7.430  0.0010 -0.2935 -0.1802
 1175loPI   C5A18467  10.276   2.188   7.808 -0.2158 -0.0666 -0.0905
 1175loPI   C6A18468  10.540   2.245   8.205  0.0046 -0.0349 -0.0137
 1175loPI   C1B18469   9.769   1.978   6.107  0.0681 -0.0020 -0.0488
 1175loPI   C2B18470   9.379   2.174   6.224  0.0284  0.0104 -0.3015
 1175loPI   C3B18471   9.063   1.999   6.517 -0.2341 -0.2037 -0.0075
 1175loPI   C4B18472   9.140   1.779   6.937 -0.0141 -0.0375 -0.0602
 1176loPI    C118473   4.693  11.579   4.952 -0.1762  0.2185  0.0716
 1176loPI    C218474   4.983  11.852   4.922 -0.1402  0.1807  0.0746
 1176loPI    C318475   4.976  11.540   4.672 -0.1960  0.1981  0.0545
 1176loPI   PO418476   4.684  11.655   5.231  0.2554  0.1472 -0.1829
 1176loPI   GL118477   4.795  11.532   5.589  0.3449  0.2622 -0.2469
 1176loPI   GL218478   5.019  11.849   5.524 -0.3051  0.0868  0.1979
 1176loPI   C1A18479   4.959  11.521   6.053 -0.3241  0.1809  0.1374
 1176loPI   C2A18480   5.068  11.593   6.443  0.0038  0.1247 -0.3033
 1176loPI   C3A18481   5.238  11.592   6.878  0.1164  0.3067 -0.1503
 1176loPI   C4A18482   5.455  11.590   7.217  0.1026 -0.0833 -0.0220
 1176loPI   C5A18483   5.863  11.363   7.443 -0.1450 -0.4182  0.0953
 1176loPI   C6A18484   6.153  11.205   7.626 -0.2302  0.1954  0.2333
 1176loPI   C1B18485   4.994  12.033   5.908  0.1832 -0.0926  0.1022
 1176loPI   C2B18486   5.068  12.264   6.298 -0.3575  0.2680  0.1060
 1176loPI   C3B18487   5.110  12.162   6.653 -0.0284  0.0368  0.1145
 1176loPI   C4B18488   5.328  12.080   6.915  0.0868 -0.2072 -0.0732
 1177loPI    C118489  10.578  10.713   4.661 -0.0719 -0.1666 -0.1088
 1177loPI    C218490  10.461  10.708   4.279 -0.0401 -0.1893 -0.1182
 1177loPI    C318491  10.784  10.500   4.392  0.1760  0.1200 -0.1518
 1177loPI   PO418492  10.340  10.705   4.809 -0.1072 -0.0463 -0.0947
 1177loPI   GL118493  10.089  10.534   5.232 -0.0462 -0.2032  0.1442
 1177loPI   GL218494  10.299  10.910   5.341 -0.0242 -0.1177  0.4198
 1177loPI   C1A18495  10.083  10.717   5.711 -0.0716 -0.3242  0.1344
 1177loPI   C2A18496  10.014  10.586   6.105 -0.0882 -0.0269 -0.0501
 1177loPI   C3A18497  10.135  10.592   6.519  0.1506  0.0128 -0.1487
 1177loPI   C4A18498   9.968  10.582   6.954  0.2435  0.2416  0.1345
 1177loPI   C5A18499   9.826  10.798   7.310  0.0423  0.1285 -0.0146
 1177loPI   C6A18500   9.986  11.014   7.609  0.0840 -0.0386  0.2175
 1177loPI   C1B18501  10.565  10.873   5.666  0.0385  0.1020  0.0091
 1177loPI   C2B18502  10.425  10.877   6.146  0.2519 -0.1944  0.1359
 1177loPI   C3B18503  10.403  11.004   6.554 -0.2261 -0.5195  0.1353
 1177loPI   C4B18504  10.707  11.041   6.967 -0.1328  0.1896 -0.2962
 1178loPI    C118505  16.498   6.507   4.780 -0.0266  0.0873 -0.2056
 1178loPI    C218506  16.563   6.165   4.977  0.0510  0.2325  0.0248
 1178loPI    C318507  16.574   6.171   4.577  0.0661 -0.0298  0.0199
 1178loPI   PO418508  16.363   6.660   5.021  0.1139  0.3883  0.1770
 1178loPI   GL118509  16.354   6.768   5.443  0.0382  0.2121  0.1090
 1178loPI   GL218510  16.393   6.985   5.500  0.0610 -0.1499  0.0931
 1178loPI   C1A18511  16.406   6.588   5.760  0.0059  0.1595  0.0028
 1178loPI   C2A18512  16.351   6.657   6.088 -0.2043 -0.1886  0.0800
 1178loPI   C3A18513  16.490   6.533   6.464 -0.0298 -0.0644  0.0038
 1178loPI   C4A18514  16.666   6.599   6.842 -0.1208  0.1586 -0.0429
 1178loPI   C5A18515  16.995   6.602   7.247  0.0524 -0.1065 -0.1393
 1178loPI   C6A18516  17.030   6.371   7.654  0.0619  0.3755  0.1401
 1178loPI   C1B18517  16.377   7.075   5.840 -0.1289 -0.1921 -0.6012
 1178loPI   C2B18518  16.310   7.123   6.184  0.0679  0.1179 -0.2040
 1178loPI   C3B18519  16.181   6.944   6.570  0.0914  0.0063 -0.1305
 1178loPI   C4B18520  16.203   6.681   6.963  0.3271  0.2431 -0.1227
 1179loPI    C118521  18.544  15.070   4.727 -0.2726  0.2234 -0.1527
 1179loPI    C218522  18.451  14.896   4.379 -0.1276 -0.1787  0.0046
 1179loPI    C318523  18.330  15.270   4.453 -0.0434 -0.0365 -0.5306
 1179loPI   PO418524  18.508  14.892   4.904  0.4168 -0.1339  0.0432
 1179loPI   GL118525  18.613  14.784   5.292 -0.3468 -0.1077  0.0433
 1179loPI   GL218526  18.882  14.783   5.487 -0.1813  0.1910  0.0653
 1179loPI   C1A18527  18.463  15.046   5.611 -0.3384  0.3296 -0.3313
 1179loPI   C2A18528  18.586  14.959   6.049 -0.0819 -0.4698  0.0049
 1179loPI   C3A18529  18.572  15.117   6.404  0.0303 -0.2421  0.0974
 1179loPI   C4A18530  18.576  15.049   6.782 -0.0803 -0.0970  0.2273
 1179loPI   C5A18531  18.504  14.758   7.164  0.2301 -0.0598  0.2029
 1179loPI   C6A18532  18.160  14.469   7.400  0.1680 -0.1129  0.1407
 1179loPI   C1B18533  18.974  14.756   5.907 -0.2690  0.2003 -0.0661
 1179loPI   C2B18534  19.096  14.804   6.426 -0.0630  0.0182  0.0999
 1179loPI   C3B18535  19.433  14.953   6.816  0.2482  0.1069  0.0114
 1179loPI   C4B18536  19.573  15.156   7.220 -0.1670  0.0044  0.0946
 1180loPI    C118537  11.799   7.253   4.822 -0.1564 -0.1507  0.0777
 1180loPI    C218538  11.467   7.386   4.642 -0.0865  0.0156  0.0708
 1180loPI    C318539  11.745   7.191   4.430 -0.1365 -0.0412  0.0575
 1180loPI   PO418540  11.891   7.397   4.953 -0.0822 -0.0215  0.1859
 1180loPI   GL118541  12.149   7.493   5.372  0.0681  0.1932 -0.0885
 1180loPI   GL218542  11.789   7.411   5.474  0.1323 -0.1105  0.1243
 1180loPI   C1A18543  12.151   7.798   5.770  0.0291  0.4819  0.1410
 1180loPI   C2A18544  12.161   7.782   6.201  0.1074 -0.0430 -0.1966
 1180loPI   C3A18545  12.028   7.804   6.689 -0.1017 -0.1241  0.4109
 1180loPI   C4A18546  12.046   7.764   7.171 -0.2896 -0.3418  0.1035
 1180loPI   C5A18547  12.406   7.701   7.439 -0.0277  0.0322 -0.1444
 1180loPI   C6A18548  12.566   7.327   7.383  0.0097  0.0968 -0.1818
 1180loPI   C1B18549  11.758   7.402   5.897  0.0787 -0.3773 -0.0181
 1180loPI   C2B18550  11.739   7.458   6.396  0.0979  0.1366 -0.0833
 1180loPI   C3B18551  11.718   7.371   6.941 -0.0162  0.0842 -0.0746
 1180loPI   C4B18552  11.529   7.297   7.323  0.2768 -0.1809  0.0888
 1181loPI    C118553   0.433   0.049   5.058  0.0920  0.2339  0.0948
 1181loPI    C218554   0.594  -0.230   4.820  0.1013  0.1707  0.1744
 1181loPI    C318555   0.631   0.158   4.728  0.1746  0.1501  0.1160
 1181loPI   PO418556   0.404  -0.047   5.301 -0.0487  0.0706  0.1601
 1181loPI   GL118557  -0.050  -0.055   5.546 -0.2097  0.4044 -0.1444
 1181loPI   GL218558  -0.252   0.148   5.614  0.3541 -0.1373  0.0250
 1181loPI   C1A18559   0.220  -0.130   5.920  0.0276 -0.0142 -0.0112
 1181loPI   C2A18560   0.203   0.019   6.279 -0.1654 -0.0440 -0.1435
 1181loPI   C3A18561   0.382   0.066   6.618 -0.0925  0.2575 -0.1377
 1181loPI   C4A18562   0.378   0.088   7.076  0.0892 -0.2943 -0.3175
 1181loPI   C5A18563   0.138   0.216   7.336  0.0168  0.4619 -0.1581
 1181loPI   C6A18564   0.376   0.437   7.637  0.2640 -0.1452 -0.0065
 1181loPI   C1B18565  -0.093   0.245   5.967 -0.0340 -0.1116 -0.0864
 1181loPI   C2B18566  -0.256   0.189   6.347  0.0054  0.1426 -0.2407
 1181loPI   C3B18567  -0.430   0.282   6.776 -0.0609 -0.0833 -0.0914
 1181loPI   C4B18568  -0.519   0.333   7.232  0.2459  0.0001  0.2182
 1182loPI    C118569  10.762   3.124   4.871 -0.1365  0.0485 -0.0444
 1182loPI    C218570  10.586   3.172   4.515 -0.1163 -0.2758 -0.1017
 1182loPI    C318571  10.736   2.815   4.617  0.3451 -0.0544  0.0213
 1182loPI   PO418572  10.696   3.210   5.090  0.0907  0.1058 -0.1205
 1182loPI   GL118573  10.877   3.220   5.377  0.0447  0.1214  0.0487
 1182loPI   GL218574  11.011   2.926   5.418  0.2016  0.2060  0.1654
 1182loPI   C1A18575  10.935   3.610   5.594  0.2969 -0.1970  0.3603
 1182loPI   C2A18576  10.848   3.738   5.921  0.0330 -0.1796  0.0755
 1182loPI   C3A18577  10.929   3.797   6.367 -0.1695 -0.0004  0.2300
 1182loPI   C4A18578  10.820   3.772   6.860 -0.2476 -0.2788 -0.0215
 1182loPI   C5A18579  10.558   3.745   7.109  0.1196 -0.0524  0.0820
 1182loPI   C6A18580  10.227   3.443   7.139  0.0771  0.1946 -0.2352
 1182loPI   C1B18581  11.107   2.716   5.846  0.2077 -0.1358 -0.0279
 1182loPI   C2B18582  11.290   2.859   6.252  0.1138 -0.2717  0.1741
 1182loPI   C3B18583  11.409   2.960   6.693 -0.1263  0.0407 -0.0273
 1182loPI   C4B18584  11.309   2.976   7.090  0.1457  0.0132 -0.0310
 1183loPI    C118585   8.151  10.576   4.903  0.0699  0.0496 -0.1120
 1183loPI    C218586   8.120  10.218   4.727 -0.2200  0.0453 -0.0569
 1183loPI    C318587   8.041  10.551   4.520 -0.0075  0.0755 -0.0917
 1183loPI   PO418588   8.331  10.584   5.081 -0.2797 -0.1248 -0.2095
 1183loPI   GL118589   8.322  10.505   5.476  0.0813 -0.0358  0.0890
 1183loPI   GL218590   8.190  10.180   5.532 -0.1283  0.0858 -0.4236
 1183loPI   C1A18591   8.336  10.432   5.936  0.1213 -0.0052  0.0941
 1183loPI   C2A18592   8.021  10.519   6.234 -0.1045 -0.0422 -0.1937
 1183loPI   C3A18593   7.964  10.758   6.576 -0.1624  0.1328 -0.0588
 1183loPI   C4A18594   8.166  10.729   7.013  0.0591 -0.2023 -0.2976
 1183loPI   C5A18595   7.918  10.687   7.330  0.0014  0.1511 -0.1518
 1183loPI   C6A18596   7.875  10.340   7.701  0.2782 -0.3700  0.1016
 1183loPI   C1B18597   7.943  10.058   5.882  0.0776  0.1069  0.3918
 1183loPI   C2B18598   7.899  10.001   6.249 -0.0562 -0.0852  0.2212
 1183loPI   C3B18599   7.729   9.994   6.691  0.1122 -0.2396  0.0373
 1183loPI   C4B18600   7.516   9.956   7.108 -0.2469  0.1007 -0.1290
 1184loPI    C118601  17.788  15.762   4.910 -0.1104  0.2166 -0.1936
 1184loPI    C218602  17.736  15.450   4.665  0.1650 -0.0072  0.0260
 1184loPI    C318603  17.980  15.749   4.559 -0.1112  0.1453 -0.1916
 1184loPI   PO418604  17.836  15.565   5.212  0.0858  0.1461  0.1323
 1184loPI   GL118605  17.920  15.809   5.662 -0.0767  0.0713  0.1259
 1184loPI   GL218606  17.920  15.404   5.678  0.4310 -0.1071 -0.2175
 1184loPI   C1A18607  18.199  15.885   6.056 -0.1933  0.2057 -0.1705
 1184loPI   C2A18608  18.467  16.038   6.408 -0.0398  0.3735 -0.0093
 1184loPI   C3A18609  18.446  16.057   6.891  0.0653  0.1115  0.1065
 1184loPI   C4A18610  18.617  16.315   7.249 -0.4189  0.0371 -0.0358
 1184loPI   C5A18611  18.794  16.708   7.535 -0.1244  0.1586  0.3416
 1184loPI   C6A18612  19.141  17.025   7.353 -0.0846 -0.1080 -0.0173
 1184loPI   C1B18613  18.073  15.292   6.027 -0.0341  0.3358 -0.2741
 1184loPI   C2B18614  18.136  15.305   6.474 -0.1138  0.0035 -0.0656
 1184loPI   C3B18615  17.965  15.100   6.915  0.2160 -0.0670 -0.0511
 1184loPI   C4B18616  17.981  15.006   7.332 -0.4089 -0.1962 -0.0737
 1185loPI    C118617   7.258  13.131   4.761  0.0304  0.0430  0.1909
 1185loPI    C218618   7.087  13.384   4.502 -0.0792 -0.0869  0.1351
 1185loPI    C318619   7.485  13.344   4.510 -0.0643  0.0533  0.1132
 1185loPI   PO418620   7.131  13.273   4.981  0.3532  0.0361  0.0365
 1185loPI   GL118621   7.282  13.138   5.296  0.0227 -0.0523  0.2072
 1185loPI   GL218622   7.536  12.864   5.172  0.0792  0.0720 -0.0697
 1185loPI   C1A18623   7.533  13.197   5.703 -0.3225 -0.0872  0.0066
 1185loPI   C2A18624   7.638  13.402   6.086 -0.0509 -0.0770  0.0479
 1185loPI   C3A18625   7.646  13.760   6.388 -0.1347  0.0346 -0.1378
 1185loPI   C4A18626   7.650  14.141   6.563 -0.0053  0.4139  0.2921
 1185loPI   C5A18627   7.593  14.338   6.794  0.2674 -0.0823  0.1252
 1185loPI   C6A18628   7.466  14.395   7.206 -0.0913 -0.2026 -0.2327
 1185loPI   C1B18629   7.146  12.750   5.554 -0.4920  0.0229  0.1644
 1185loPI   C2B18630   7.268  12.760   6.022 -0.2148  0.0867 -0.0650
 1185loPI   C3B18631   7.569  12.794   6.425  0.1714 -0.1840  0.1890
 1185loPI   C4B18632   7.717  12.627   6.820  0.0993 -0.1339  0.0833
 1186loPI    C118633  18.965  14.506   4.826 -0.0630 -0.2003  0.2247
 1186loPI    C218634  18.859  14.144   4.694  0.0588 -0.1000 -0.1612
 1186loPI    C318635  18.698  14.471   4.531  0.2939  0.0305 -0.1365
 1186loPI   PO418636  18.932  14.538   5.039 -0.0695 -0.2985 -0.3647
 1186loPI   GL118637  18.741  14.260   5.395  0.0093 -0.1670 -0.1320
 1186loPI   GL218638  18.462  14.393   5.499  0.0868 -0.1940  0.1375
 1186loPI   C1A18639  18.881  14.087   5.812 -0.1029  0.0626 -0.0128
 1186loPI   C2A18640  18.645  14.041   6.132  0.0795 -0.2845  0.0790
 1186loPI   C3A18641  18.628  13.745   6.447  0.2439 -0.1325  0.1426
 1186loPI   C4A18642  18.488  13.696   6.866  0.0273 -0.2448 -0.0537
 1186loPI   C5A18643  18.281  13.823   7.205 -0.1081  0.1733 -0.2835
 1186loPI   C6A18644  18.137  13.990   7.621 -0.1203  0.2109 -0.0925
 1186loPI   C1B18645  18.543  14.502   5.851  0.0093  0.1135  0.2253
 1186loPI   C2B18646  18.650  14.578   6.342  0.1427 -0.0377  0.0178
 1186loPI   C3B18647  18.807  14.630   6.748 -0.0340  0.0936 -0.5704
 1186loPI   C4B18648  19.003  14.856   7.077 -0.2431 -0.0091 -0.0876
 1187loPI    C118649  12.870  12.626   4.760  0.1597 -0.3891  0.2153
 1187loPI    C218650  12.495  12.573   4.629  0.2130  0.1150 -0.1695
 1187loPI    C318651  12.803  12.420   4.424  0.2412  0.0278 -0.0633
 1187loPI   PO418652  12.835  12.759   4.999  0.1697  0.1782  0.0847
 1187loPI   GL118653  13.101  12.628   5.383  0.1220 -0.3951  0.0437
 1187loPI   GL218654  12.836  12.412   5.552  0.1079 -0.0327 -0.0536
 1187loPI   C1A18655  12.959  12.846   5.754  0.0179  0.0630 -0.0597
 1187loPI   C2A18656  12.845  12.827   6.242  0.0432 -0.0483 -0.2116
 1187loPI   C3A18657  12.788  12.687   6.721  0.1886  0.2042  0.2869
 1187loPI   C4A18658  12.681  12.570   7.184  0.0517  0.0860 -0.3045
 1187loPI   C5A18659  12.837  12.300   7.533 -0.0537 -0.1676 -0.0495
 1187loPI   C6A18660  13.201  12.018   7.621  0.1158 -0.3104 -0.1379
 1187loPI   C1B18661  12.920  12.302   6.050  0.3993 -0.1359 -0.0987
 1187loPI   C2B18662  12.918  12.312   6.478  0.0212  0.1454  0.2041
 1187loPI   C3B18663  13.151  12.117   6.790  0.2562  0.0585  0.2422
 1187loPI   C4B18664  13.310  12.192   7.182 -0.3470  0.0734  0.1522
 1188loPI    C118665  11.465  15.521   5.052 -0.1138  0.0119 -0.0096
 1188loPI    C218666  11.517  15.356   4.691 -0.0368  0.0892 -0.0341
 1188loPI    C318667  11.160  15.337   4.871 -0.0120 -0.1602 -0.0084
 1188loPI   PO418668  11.658  15.477   5.179  0.1012  0.1401  0.1807
 1188loPI   GL118669  11.874  15.571   5.524 -0.0523  0.1839  0.0084
 1188loPI   GL218670  11.607  15.784   5.536  0.0360  0.3298  0.0562
 1188loPI   C1A18671  11.847  15.335   5.929 -0.0396 -0.0449  0.2006
 1188loPI   C2A18672  11.904  15.157   6.373 -0.1178  0.0664 -0.0565
 1188loPI   C3A18673  12.187  14.878   6.632 -0.2415 -0.0336 -0.0868
 1188loPI   C4A18674  12.257  14.815   7.096 -0.2653 -0.1254 -0.0843
 1188loPI   C5A18675  12.721  14.650   7.296  0.2193 -0.2232  0.2511
 1188loPI   C6A18676  12.932  14.500   7.213 -0.2122  0.1541  0.2593
 1188loPI   C1B18677  11.390  15.689   5.945 -0.1948 -0.1129 -0.1826
 1188loPI   C2B18678  11.319  15.787   6.331 -0.1705  0.0242  0.4005
 1188loPI   C3B18679  11.463  15.795   6.787  0.1567  0.1539  0.1192
 1188loPI   C4B18680  11.634  15.713   7.092  0.2062  0.2160 -0.0439
 1189loPI    C118681  10.213  15.614   4.732  0.4466  0.0302  0.0335
 1189loPI    C218682  10.315  15.413   4.401 -0.0155 -0.0515 -0.0663
 1189loPI    C318683  10.085  15.740   4.375 -0.1777 -0.1424  0.1835
 1189loPI   PO418684  10.217  15.541   4.990 -0.0992 -0.1490 -0.0374
 1189loPI   GL118685  10.259  15.319   5.276  0.0050  0.0734  0.0414
 1189loPI   GL218686  10.568  15.318   5.375  0.1954  0.1658 -0.1979
 1189loPI   C1A18687  10.061  14.868   5.552 -0.1005 -0.2423  0.0942
 1189loPI   C2A18688  10.127  14.818   5.947  0.0223  0.0514 -0.0758
 1189loPI   C3A18689  10.038  14.749   6.413  0.0783  0.3449  0.1498
 1189loPI   C4A18690   9.985  14.904   6.856  0.0709  0.0373 -0.1492
 1189loPI   C5A18691   9.887  14.878   7.286  0.0699 -0.2005  0.0213
 1189loPI   C6A18692   9.602  14.976   7.658  0.2252 -0.0511 -0.1035
 1189loPI   C1B18693  10.389  15.341   5.784  0.0450  0.0643  0.2206
 1189loPI   C2B18694  10.403  15.627   6.068 -0.1344  0.2033  0.1310
 1189loPI   C3B18695  10.125  15.651   6.476 -0.1948 -0.1174  0.2112
 1189loPI   C4B18696  10.027  15.828   6.907 -0.2738  0.2036  0.2739
 1190loPI    C118697   0.764   6.303   4.359  0.1567 -0.0721 -0.2121
 1190loPI    C218698   0.832   6.587   4.086  0.0545  0.0220 -0.1404
 1190loPI    C318699   0.487   6.385   4.082 -0.1427  0.3395  0.1947
 1190loPI   PO418700   1.027   6.357   4.514 -0.0555 -0.1072  0.0338
 1190loPI   GL118701   1.143   6.613   4.929 -0.0612  0.0636 -0.1112
 1190loPI   GL218702   1.433   6.704   5.186  0.0644 -0.0366 -0.1205
 1190loPI   C1A18703   1.116   6.330   5.374  0.1561 -0.2099  0.0893
 1190loPI   C2A18704   1.093   6.359   5.674  0.2459  0.1993  0.0179
 1190loPI   C3A18705   0.912   6.372   6.010 -0.1797 -0.1129  0.2299
 1190loPI   C4A18706   0.882   6.185   6.336  0.0939  0.0135  0.0331
 1190loPI   C5A18707   0.843   6.061   6.626  0.1143 -0.1446 -0.2618
 1190loPI   C6A18708   0.956   6.025   7.102 -0.1627  0.1459 -0.1179
 1190loPI   C1B18709   1.326   6.777   5.528 -0.2965 -0.1287 -0.2803
 1190loPI   C2B18710   1.300   6.687   5.942 -0.2306  0.2747  0.1023
 1190loPI   C3B18711   1.203   6.561   6.364 -0.2925  0.1547  0.2717
 1190loPI   C4B18712   1.249   6.446   6.760  0.1927 -0.0879 -0.2050
 1191loPI    C118713  16.372  10.382   4.575  0.3604  0.0319  0.0113
 1191loPI    C218714  16.360   9.992   4.486 -0.1259  0.0554 -0.0563
 1191loPI    C318715  16.308  10.264   4.197  0.1019  0.1706  0.0093
 1191loPI   PO418716  16.383  10.388   4.883  0.2820  0.2337  0.0808
 1191loPI   GL118717  16.291  10.553   5.276 -0.1529  0.0220 -0.0033
 1191loPI   GL218718  16.407  10.204   5.383 -0.1721  0.0884 -0.1697
 1191loPI   C1A18719  16.427  10.675   5.656 -0.2979 -0.2512 -0.1142
 1191loPI   C2A18720  16.420  10.591   6.084 -0.0703  0.0571  0.0793
 1191loPI   C3A18721  16.730  10.560   6.317  0.1987  0.0875 -0.2064
 1191loPI   C4A18722  16.809  10.374   6.743  0.1377 -0.1093  0.0307
 1191loPI   C5A18723  16.876  10.054   7.151  0.1239 -0.1194  0.1639
 1191loPI   C6A18724  17.069   9.969   7.569  0.1012  0.0909 -0.0151
 1191loPI   C1B18725  16.123  10.325   5.831 -0.0773 -0.2276 -0.1214
 1191loPI   C2B18726  15.887  10.397   6.174 -0.1616 -0.1105 -0.0557
 1191loPI   C3B18727  15.764  10.618   6.524 -0.0992 -0.1569 -0.1378
 1191loPI   C4B18728  15.951  10.416   6.980  0.0886  0.2366  0.2501
 1192loPI    C118729   6.193  18.563   4.597  0.2301  0.0831 -0.2220
 1192loPI    C218730   6.406  18.257   4.453  0.0405 -0.0887 -0.1430
 1192loPI    C318731   6.018  18.290   4.363  0.0605  0.1327 -0.1551
 1192loPI   PO418732   6.268  18.597   4.873  0.1195 -0.0892 -0.2614
 1192loPI   GL118733   6.075  18.594   5.263  0.1028  0.0455 -0.0261
 1192loPI   GL218734   6.305  18.792   5.406 -0.0630  0.2791  0.0227
 1192loPI   C1A18735   6.302  18.295   5.599 -0.1566 -0.1038  0.2381
 1192loPI   C2A18736   6.324  18.157   6.062  0.2649  0.1186 -0.1700
 1192loPI   C3A18737   6.095  18.038   6.427 -0.0795  0.2256  0.1595
 1192loPI   C4A18738   6.144  18.190   6.816  0.1827 -0.1227  0.1839
 1192loPI   C5A18739   6.263  18.235   7.196  0.0327  0.1722 -0.0974
 1192loPI   C6A18740   6.684  18.101   7.412 -0.0881  0.1604 -0.1179
 1192loPI   C1B18741   6.688  18.647   5.581 -0.1235  0.0834 -0.0877
 1192loPI   C2B18742   6.755  18.497   5.949  0.1545  0.2042 -0.0702
 1192loPI   C3B18743   6.848  18.433   6.373  0.1809  0.0902  0.1186
 1192loPI   C4B18744   7.086  18.485   6.714  0.2560  0.4221 -0.2438
 1193loPI    C118745  15.136  18.443   4.685  0.0912 -0.0127 -0.0903
 1193loPI    C218746  15.163  18.109   4.466  0.1645 -0.0440 -0.0340
 1193loPI    C318747  15.042  18.450   4.296  0.3643 -0.0334 -0.1591
 1193loPI   PO418748  14.995  18.388   4.983 -0.0980 -0.1101  0.0291
 1193loPI   GL118749  14.958  18.482   5.424  0.0098  0.0847 -0.2299
 1193loPI   GL218750  14.768  18.224   5.654  0.5591 -0.1817  0.4726
 1193loPI   C1A18751  15.166  18.653   5.739  0.1979  0.0344 -0.2353
 1193loPI   C2A18752  15.250  18.515   6.178  0.3326  0.0360 -0.2244
 1193loPI   C3A18753  15.371  18.411   6.660 -0.1895  0.1911  0.1499
 1193loPI   C4A18754  15.165  18.396   6.969  0.2797 -0.0381 -0.4612
 1193loPI   C5A18755  14.856  18.692   7.112 -0.0818 -0.4031 -0.1054
 1193loPI   C6A18756  14.942  19.042   7.335 -0.1875  0.1360 -0.1538
 1193loPI   C1B18757  14.716  18.476   6.011 -0.0981  0.0068 -0.1175
 1193loPI   C2B18758  14.765  18.206   6.421 -0.1787 -0.1686  0.0650
 1193loPI   C3B18759  14.698  18.274   6.828 -0.0037 -0.0776  0.1927
 1193loPI   C4B18760  14.470  18.145   7.127  0.1446 -0.1974 -0.0406
 1194loPI    C118761  12.709   0.146   5.112 -0.0375  0.2588 -0.1436
 1194loPI    C218762  13.023  -0.081   5.214 -0.2230  0.0887  0.0599
 1194loPI    C318763  13.045   0.160   4.895  0.0533 -0.0495 -0.0284
 1194loPI   PO418764  12.690   0.229   5.355  0.0340  0.0909  0.1937
 1194loPI   GL118765  12.732   0.354   5.781 -0.0359 -0.1631  0.0377
 1194loPI   GL218766  12.381   0.449   5.625  0.1289 -0.0496  0.0202
 1194loPI   C1A18767  12.715   0.403   6.172  0.0205  0.0677 -0.1713
 1194loPI   C2A18768  12.729   0.467   6.614 -0.1287 -0.3029  0.0154
 1194loPI   C3A18769  12.824   0.498   6.953 -0.0040  0.3108  0.3991
 1194loPI   C4A18770  12.661   0.636   7.268  0.1277 -0.1406 -0.0738
 1194loPI   C5A18771  12.566   1.069   7.373 -0.0343 -0.2706 -0.1819
 1194loPI   C6A18772  12.318   1.421   7.509 -0.1535 -0.2251 -0.2106
 1194loPI   C1B18773  12.274   0.608   6.055 -0.0817 -0.0281 -0.0279
 1194loPI   C2B18774  12.331   0.785   6.485 -0.0039  0.0686  0.2918
 1194loPI   C3B18775  12.379   0.879   6.890  0.0719  0.0084  0.3307
 1194loPI   C4B18776  12.160   0.708   7.216  0.1482  0.1373 -0.0705
 1195loPI    C118777  13.383  11.943   4.724 -0.0612  0.0066  0.0418
 1195loPI    C218778  13.292  12.275   4.520 -0.2021 -0.0331  0.0391
 1195loPI    C318779  13.414  11.947   4.325  0.3552  0.1448  0.0702
 1195loPI   PO418780  13.623  12.049   4.877 -0.0346  0.0304 -0.3003
 1195loPI   GL118781  13.560  11.986   5.343 -0.0513  0.0980  0.1792
 1195loPI   GL218782  13.476  12.295   5.417  0.2356  0.1826  0.0343
 1195loPI   C1A18783  13.608  11.940   5.751  0.1585 -0.0717 -0.0373
 1195loPI   C2A18784  13.810  11.959   6.164  0.3062  0.0442  0.0948
 1195loPI   C3A18785  13.871  11.958   6.712 -0.2413 -0.4592 -0.0639
 1195loPI   C4A18786  13.741  11.755   7.030  0.4038  0.0466  0.1007
 1195loPI   C5A18787  13.514  11.695   7.349 -0.0508  0.2428  0.2602
 1195loPI   C6A18788  13.606  11.465   7.730  0.0841  0.3899  0.0368
 1195loPI   C1B18789  13.328  12.433   5.758 -0.0772 -0.1666  0.2983
 1195loPI   C2B18790  13.430  12.260   6.203  0.0376  0.2581  0.1684
 1195loPI   C3B18791  13.365  11.911   6.408 -0.0967 -0.0029  0.0163
 1195loPI   C4B18792  13.314  11.623   6.718  0.1370 -0.0045 -0.3419
 1196loPI    C118793   5.523  15.620   4.742 -0.3561 -0.0446 -0.0197
 1196loPI    C218794   5.578  15.530   4.356  0.1091 -0.1944  0.0749
 1196loPI    C318795   5.590  15.911   4.476  0.0914 -0.1579 -0.0380
 1196loPI   PO418796   5.631  15.457   4.887 -0.3600  0.1912  0.0194
 1196loPI   GL118797   5.489  15.450   5.261  0.1674 -0.1108  0.2238
 1196loPI   GL218798   5.689  15.343   5.343  0.1831  0.1122 -0.2237
 1196loPI   C1A18799   5.518  15.710   5.703  0.0174 -0.1201  0.0454
 1196loPI   C2A18800   5.574  15.537   6.086  0.0751 -0.1334 -0.0986
 1196loPI   C3A18801   5.816  15.543   6.414  0.2778 -0.0873  0.0756
 1196loPI   C4A18802   5.789  15.634   6.790 -0.1346 -0.0126 -0.3506
 1196loPI   C5A18803   5.607  15.500   7.113 -0.1542 -0.3119  0.0245
 1196loPI   C6A18804   5.764  15.264   7.398 -0.1440 -0.0434  0.2177
 1196loPI   C1B18805   5.921  15.180   5.712 -0.2638 -0.0253  0.2694
 1196loPI   C2B18806   5.768  15.112   6.182  0.1725  0.1892  0.1320
 1196loPI   C3B18807   5.576  15.095   6.674  0.0154 -0.2195  0.1574
 1196loPI   C4B18808   5.562  14.965   7.073 -0.0903  0.0787 -0.0831
 1197loPI    C118809   3.988  16.364   4.329  0.1046 -0.0639 -0.0214
 1197loPI    C218810   4.151  16.703   4.465 -0.3162  0.1231  0.0320
 1197loPI    C318811   4.210  16.591   4.086  0.0022  0.1417  0.0737
 1197loPI   PO418812   3.994  16.090   4.526 -0.2181 -0.0653 -0.0578
 1197loPI   GL118813   4.252  15.983   4.876 -0.1316  0.0282 -0.0607
 1197loPI   GL218814   4.398  16.348   4.988 -0.1511 -0.0086  0.0440
 1197loPI   C1A18815   4.195  15.749   5.218 -0.1848 -0.0144  0.1623
 1197loPI   C2A18816   4.250  15.853   5.743 -0.3516 -0.0312 -0.0480
 1197loPI   C3A18817   4.359  15.631   6.101  0.0780  0.1476  0.0405
 1197loPI   C4A18818   4.453  15.549   6.484  0.1140 -0.0089  0.3312
 1197loPI   C5A18819   4.742  15.440   6.770  0.1481 -0.2447 -0.0223
 1197loPI   C6A18820   5.184  15.283   6.930 -0.3207  0.0743  0.0253
 1197loPI   C1B18821   4.132  16.215   5.297 -0.3753  0.1290  0.0953
 1197loPI   C2B18822   3.787  16.242   5.650 -0.2227  0.1377 -0.1045
 1197loPI   C3B18823   3.845  16.204   5.987 -0.1962 -0.1348  0.1124
 1197loPI   C4B18824   3.899  16.097   6.433  0.3291  0.2709 -0.1638
 1198loPI    C118825   7.766   8.066   4.840 -0.0551 -0.1639  0.2000
 1198loPI    C218826   7.768   8.284   4.504 -0.2922 -0.3092  0.1014
 1198loPI    C318827   7.964   7.936   4.518 -0.0644 -0.1796  0.2007
 1198loPI   PO418828   7.698   8.245   4.973  0.1412 -0.1901  0.2278
 1198loPI   GL118829   7.836   8.384   5.300  0.1072 -0.1152  0.3012
 1198loPI   GL218830   7.896   8.116   5.474  0.0584 -0.3281 -0.0694
 1198loPI   C1A18831   7.693   8.623   5.628  0.0079  0.3818 -0.0040
 1198loPI   C2A18832   7.487   8.601   6.009  0.1657  0.1002  0.0403
 1198loPI   C3A18833   7.584   8.561   6.433 -0.1039  0.0117  0.3587
 1198loPI   C4A18834   7.735   8.562   6.868 -0.0419 -0.0040 -0.2410
 1198loPI   C5A18835   7.940   8.502   7.246  0.1029 -0.0903 -0.1293
 1198loPI   C6A18836   8.156   8.323   7.313  0.2251  0.1932  0.2122
 1198loPI   C1B18837   7.915   8.252   5.925 -0.1483 -0.1058 -0.0025
 1198loPI   C2B18838   8.072   8.572   6.169 -0.3948 -0.0550  0.0331
 1198loPI   C3B18839   7.995   8.767   6.534  0.1873  0.1411 -0.0518
 1198loPI   C4B18840   8.262   8.771   6.973  0.0573  0.2145  0.0818
 1199loPI    C118841  10.193   1.202   4.991 -0.1965 -0.2446  0.0139
 1199loPI    C218842  10.511   1.439   5.048 -0.3348 -0.0540  0.0015
 1199loPI    C318843  10.562   1.049   4.976 -0.1132 -0.0713  0.2398
 1199loPI   PO418844   9.998   1.286   5.268  0.0138 -0.0506  0.0214
 1199loPI   GL118845   9.903   1.140   5.734 -0.0253  0.1274 -0.4954
 1199loPI   GL218846   9.632   1.283   5.772 -0.0681  0.0602  0.0255
 1199loPI   C1A18847   9.785   0.835   5.978 -0.0060  0.4519  0.3532
 1199loPI   C2A18848   9.714   0.536   6.395 -0.3248 -0.2023 -0.0302
 1199loPI   C3A18849  10.069   0.520   6.745  0.2361 -0.1147  0.0259
 1199loPI   C4A18850  10.255   0.229   6.936 -0.1531 -0.0475 -0.0378
 1199loPI   C5A18851  10.540   0.333   7.265 -0.1462 -0.0381 -0.0244
 1199loPI   C6A18852  10.584   0.630   7.571 -0.1339 -0.0520 -0.0139
 1199loPI   C1B18853   9.739   1.386   6.164 -0.2157  0.0867  0.4405
 1199loPI   C2B18854   9.863   1.129   6.384 -0.1304 -0.0847 -0.0415
 1199loPI   C3B18855  10.088   1.016   6.832  0.1684  0.0785  0.1561
 1199loPI   C4B18856  10.417   0.817   6.997  0.1477 -0.1633  0.0304
 1200loPI    C118857  11.780   9.268   4.621  0.0001 -0.0302  0.2369
 1200loPI    C218858  11.527   8.990   4.756  0.2138 -0.3325  0.0263
 1200loPI    C318859  11.584   9.035   4.362 -0.1595  0.3221  0.0331
 1200loPI   PO418860  11.700   9.476   4.784 -0.1862 -0.1366 -0.0348
 1200loPI   GL118861  11.575   9.439   5.256  0.0405  0.2020 -0.0995
 1200loPI   GL218862  11.335   9.721   5.034  0.0523 -0.4715 -0.3597
 1200loPI   C1A18863  11.498   9.231   5.671 -0.0911  0.0761  0.0994
 1200loPI   C2A18864  11.521   9.212   6.188  0.1353  0.2272 -0.0610
 1200loPI   C3A18865  11.603   9.562   6.547 -0.2291 -0.4051  0.0959
 1200loPI   C4A18866  11.622   9.517   7.029  0.0195  0.1402 -0.0160
 1200loPI   C5A18867  11.437   9.366   7.263 -0.3694  0.1001 -0.0530
 1200loPI   C6A18868  11.222   9.082   7.519  0.1137 -0.0627  0.1938
 1200loPI   C1B18869  11.508   9.952   5.344 -0.3212  0.0874  0.2035
 1200loPI   C2B18870  11.307  10.197   5.595 -0.3554  0.1281  0.3085
 1200loPI   C3B18871  11.183  10.099   5.900  0.3815  0.0238  0.0329
 1200loPI   C4B18872  11.046  10.090   6.192  0.2185  0.1887  0.0188
 1201loPI    C118873   4.891  11.058   4.851  0.0833 -0.0801  0.0715
 1201loPI    C218874   4.801  10.784   4.574 -0.0105 -0.1055  0.1267
 1201loPI    C318875   5.106  11.036   4.514 -0.0334 -0.1075 -0.0016
 1201loPI   PO418876   4.932  10.868   5.124  0.1694  0.0941 -0.0840
 1201loPI   GL118877   5.242  10.866   5.334 -0.2962  0.0590 -0.1282
 1201loPI   GL218878   5.451  11.156   5.464 -0.0561  0.1217 -0.0859
 1201loPI   C1A18879   5.327  10.781   5.764  0.1331 -0.1243  0.1954
 1201loPI   C2A18880   5.345  10.698   6.123 -0.2755 -0.2718 -0.1330
 1201loPI   C3A18881   5.420  10.581   6.506  0.0103 -0.2011  0.0136
 1201loPI   C4A18882   5.459  10.463   6.938  0.2182  0.0023 -0.0633
 1201loPI   C5A18883   5.597  10.164   7.264  0.0490 -0.0952  0.1924
 1201loPI   C6A18884   5.748  10.000   7.602  0.2472  0.2601  0.1351
 1201loPI   C1B18885   5.405  11.298   5.926  0.0280 -0.0296  0.1384
 1201loPI   C2B18886   5.362  11.136   6.384  0.2821  0.1335  0.0616
 1201loPI   C3B18887   5.250  11.091   6.840 -0.0930 -0.1843 -0.2702
 1201loPI   C4B18888   5.358  10.927   7.174  0.0653 -0.2371 -0.0355
 1202loPI    C118889   0.917   6.848   4.537  0.2287  0.1373  0.1334
 1202loPI    C218890   1.138   6.951   4.219  0.1101 -0.2270 -0.0738
 1202loPI    C318891   1.302   6.738   4.516  0.1359 -0.1654 -0.0435
 1202loPI   PO418892   0.841   7.096   4.658 -0.1040  0.1759  0.0878
 1202loPI   GL118893   1.038   7.154   5.182  0.1843  0.2809 -0.2765
 1202loPI   GL218894   0.813   6.855   5.141  0.0603 -0.0386 -0.0859
 1202loPI   C1A18895   1.111   7.152   5.690  0.4625 -0.0916  0.1170
 1202loPI   C2A18896   1.006   7.123   6.099  0.1990 -0.0613  0.2281
 1202loPI   C3A18897   0.668   7.057   6.348  0.0180 -0.0986 -0.1578
 1202loPI   C4A18898   0.330   6.930   6.690  0.1351  0.0169  0.1275
 1202loPI   C5A18899   0.135   7.025   7.035 -0.0502  0.1901 -0.0067
 1202loPI   C6A18900   0.174   6.931   7.485  0.1277 -0.0260 -0.0085
 1202loPI   C1B18901   0.763   6.754   5.606 -0.4631  0.0340 -0.1948
 1202loPI   C2B18902   0.560   6.672   6.030  0.3065  0.4360 -0.3403
 1202loPI   C3B18903   0.601   6.580   6.423  0.1764 -0.2467  0.2821
 1202loPI   C4B18904   0.789   6.699   6.794 -0.1099 -0.5771  0.2913
 1203loPI    C118905   8.188  12.865   4.754  0.1944  0.0279  0.0586
 1203loPI    C218906   8.103  12.519   4.573 -0.2195  0.0597  0.1819
 1203loPI    C318907   8.131  12.856   4.358  0.5461 -0.0973  0.0078
 1203loPI   PO418908   7.954  12.728   4.983  0.0068  0.2001 -0.2037
 1203loPI   GL118909   7.989  12.746   5.377  0.0016 -0.1297  0.2329
 1203loPI   GL218910   7.882  12.986   5.492  0.0116 -0.0530 -0.1143
 1203loPI   C1A18911   8.153  12.704   5.813  0.2651 -0.0232 -0.1048
 1203loPI   C2A18912   8.066  12.879   6.248 -0.0326  0.0405 -0.1522
 1203loPI   C3A18913   7.958  13.032   6.683 -0.1708 -0.1346  0.2163
 1203loPI   C4A18914   8.122  12.780   7.091  0.1729 -0.4891 -0.0747
 1203loPI   C5A18915   8.111  12.579   7.500  0.1528 -0.0163 -0.0079
 1203loPI   C6A18916   7.987  12.557   7.986  0.1344  0.1505 -0.1992
 1203loPI   C1B18917   7.641  12.673   5.711 -0.3209  0.0703 -0.2260
 1203loPI   C2B18918   7.445  12.313   5.873  0.3362 -0.0917 -0.1478
 1203loPI   C3B18919   7.433  12.283   6.342  0.1869  0.3152  0.6355
 1203loPI   C4B18920   7.372  12.158   6.748  0.2813  0.3002  0.1849
 1204loPI    C118921  18.667  18.440   5.077 -0.4665 -0.1862 -0.2442
 1204loPI    C218922  18.761  18.706   4.794 -0.2092 -0.1002 -0.0815
 1204loPI    C318923  18.894  18.330   4.767  0.0825 -0.0116  0.0816
 1204loPI   PO418924  18.653  18.561   5.262  0.0502  0.1399  0.1087
 1204loPI   GL118925  18.363  18.734   5.582  0.0095  0.0340 -0.0860
 1204loPI   GL218926  18.032  18.635   5.485 -0.0277 -0.1510 -0.0449
 1204loPI   C1A18927  18.262  18.645   6.025  0.2160 -0.0030  0.1736
 1204loPI   C2A18928  18.018  18.549   6.407 -0.2427  0.3240 -0.2363
 1204loPI   C3A18929  18.423  18.459   6.649  0.0482  0.0182  0.1581
 1204loPI   C4A18930  18.551  18.819   7.003 -0.4578 -0.0846 -0.0674
 1204loPI   C5A18931  18.202  19.174   7.087  0.1976 -0.2650  0.2110
 1204loPI   C6A18932  17.797  19.279   6.909 -0.0518 -0.1242  0.1546
 1204loPI   C1B18933  17.768  18.576   5.902 -0.1505 -0.0301 -0.4941
 1204loPI   C2B18934  17.491  18.637   6.273  0.2956  0.1015  0.0070
 1204loPI   C3B18935  17.438  18.424   6.693 -0.0444 -0.1617  0.2478
 1204loPI   C4B18936  17.392  18.372   7.085  0.3429  0.3332  0.3000
 1205loPI    C118937   1.474  17.013   4.684  0.0328  0.1438 -0.0779
 1205loPI    C218938   1.199  17.241   4.505 -0.0878 -0.1633 -0.2913
 1205loPI    C318939   1.524  17.125   4.304  0.0031 -0.1300 -0.1645
 1205loPI   PO418940   1.275  16.813   4.856  0.1481 -0.0859  0.1643
 1205loPI   GL118941   1.230  16.754   5.244 -0.1502  0.0154 -0.0071
 1205loPI   GL218942   1.007  16.893   5.338 -0.1300  0.1536  0.0813
 1205loPI   C1A18943   1.507  16.845   5.528 -0.0263 -0.0855  0.3055
 1205loPI   C2A18944   1.722  16.761   5.961 -0.4172 -0.0682 -0.1452
 1205loPI   C3A18945   1.624  16.717   6.386 -0.1904 -0.1422  0.1771
 1205loPI   C4A18946   1.628  16.591   6.833 -0.0825 -0.3336  0.1584
 1205loPI   C5A18947   1.658  16.631   7.339  0.1864 -0.0106 -0.1584
 1205loPI   C6A18948   1.667  16.272   7.565 -0.3760  0.2454  0.1938
 1205loPI   C1B18949   0.869  16.903   5.667 -0.0085  0.0100 -0.0130
 1205loPI   C2B18950   0.998  16.929   6.104 -0.0162 -0.1252 -0.3243
 1205loPI   C3B18951   1.177  16.909   6.498 -0.0760 -0.0242  0.0683
 1205loPI   C4B18952   1.186  16.788   6.985  0.2542  0.2322  0.1710
 1206loPI    C118953  19.041   0.704   4.486  0.0252  0.0599 -0.1163
 1206loPI    C218954  18.828   0.406   4.326 -0.1251  0.0311  0.1307
 1206loPI    C318955  19.149   0.548   4.134 -0.3000 -0.0000 -0.1931
 1206loPI   PO418956  19.074   0.750   4.762  0.0490  0.1174 -0.2473
 1206loPI   GL118957  19.173   1.174   5.097 -0.2268 -0.3041  0.0715
 1206loPI   GL218958  19.317   1.005   5.235  0.1923  0.2858 -0.3488
 1206loPI   C1A18959  19.101   1.459   5.382 -0.0844 -0.0254  0.1650
 1206loPI   C2A18960  19.045   1.604   5.825 -0.0472 -0.1721 -0.1792
 1206loPI   C3A18961  18.914   1.590   6.198  0.1974  0.0633  0.1244
 1206loPI   C4A18962  18.954   1.513   6.602 -0.3757 -0.3200 -0.0853
 1206loPI   C5A18963  18.874   1.353   6.938 -0.0680 -0.0432 -0.0459
 1206loPI   C6A18964  18.655   1.208   7.296 -0.0288 -0.1711 -0.1005
 1206loPI   C1B18965  19.348   1.124   5.639 -0.0240 -0.1416 -0.0419
 1206loPI   C2B18966  19.171   1.211   6.087 -0.2612  0.1568 -0.2687
 1206loPI   C3B18967  18.986   1.077   6.350 -0.2238 -0.0627  0.2130
 1206loPI   C4B18968  19.215   0.970   6.761 -0.4215  0.2574 -0.1396
 1207loPI    C118969   1.198  12.848   4.863 -0.0204  0.0071  0.1283
 1207loPI    C218970   0.930  12.680   4.619  0.0396 -0.1495  0.1688
 1207loPI    C318971   0.978  13.077   4.620  0.0255 -0.1458 -0.0604
 1207loPI   PO418972   1.288  12.622   4.991  0.0290  0.0098  0.1008
 1207loPI   GL118973   1.157  12.386   5.360  0.0937 -0.2322 -0.0200
 1207loPI   GL218974   1.048  12.108   5.452 -0.0918 -0.1164 -0.1233
 1207loPI   C1A18975   1.057  12.667   5.707 -0.4695  0.0657 -0.2791
 1207loPI   C2A18976   1.015  12.673   6.150 -0.2509  0.0096  0.3175
 1207loPI   C3A18977   0.876  12.538   6.557 -0.3407  0.2984 -0.3200
 1207loPI   C4A18978   0.897  12.314   6.845  0.1746 -0.0098 -0.0809
 1207loPI   C5A18979   0.550  12.005   7.041  0.4443 -0.0812 -0.2787
 1207loPI   C6A18980   0.287  11.619   6.861  0.3242  0.0401  0.1804
 1207loPI   C1B18981   1.030  12.131   5.855  0.1883 -0.0547  0.0905
 1207loPI   C2B18982   0.813  12.099   6.279 -0.0147  0.1181  0.2666
 1207loPI   C3B18983   0.712  11.840   6.609  0.0030  0.0336  0.0084
 1207loPI   C4B18984   0.728  11.459   6.726 -0.2270  0.0465 -0.2194
 1208loPI    C118985  14.118   2.993   4.990  0.0509 -0.0196  0.1051
 1208loPI    C218986  13.753   2.860   5.084 -0.0123  0.1449  0.0951
 1208loPI    C318987  13.864   2.884   4.701 -0.0522  0.2541  0.0901
 1208loPI   PO418988  14.329   2.916   5.225  0.0818 -0.0608 -0.0737
 1208loPI   GL118989  14.187   2.553   5.456 -0.0061  0.1252  0.1917
 1208loPI   GL218990  14.167   2.256   5.549  0.1435 -0.0985  0.0615
 1208loPI   C1A18991  13.942   2.666   5.760 -0.0279  0.4425 -0.0768
 1208loPI   C2A18992  13.841   2.535   6.171  0.1099  0.0534  0.0989
 1208loPI   C3A18993  13.840   2.566   6.668  0.0486  0.2723 -0.1661
 1208loPI   C4A18994  13.816   2.630   7.128 -0.1715  0.0811 -0.3081
 1208loPI   C5A18995  13.885   2.865   7.430  0.1266  0.2696 -0.1712
 1208loPI   C6A18996  13.639   2.773   7.823  0.2300  0.0840  0.1679
 1208loPI   C1B18997  14.198   2.245   6.015 -0.3430  0.0763 -0.3145
 1208loPI   C2B18998  14.287   2.347   6.497  0.1143  0.2256 -0.0488
 1208loPI   C3B18999  14.319   2.454   6.937  0.1081  0.1131 -0.1935
 1208loPI   C4B19000  14.243   2.331   7.382 -0.2573 -0.0023 -0.1621
 1209loPI    C119001  10.902   5.081   4.707  0.0110 -0.0588  0.0135
 1209loPI    C219002  11.212   4.988   4.942  0.0504  0.3028  0.1106
 1209loPI    C319003  11.244   4.953   4.545  0.1497  0.1568  0.1308
 1209loPI   PO419004  10.757   5.200   4.909  0.0206  0.2901 -0.3881
 1209loPI   GL119005  10.478   5.187   5.359 -0.2457  0.0975 -0.2482
 1209loPI   GL219006  10.440   4.912   5.328  0.1237 -0.0378  0.1985
 1209loPI   C1A19007  10.575   5.371   5.747 -0.1650 -0.0191 -0.1694
 1209loPI   C2A19008  10.497   5.373   6.246 -0.0632 -0.1597  0.1156
 1209loPI   C3A19009  10.316   5.272   6.648  0.0781 -0.0935 -0.2188
 1209loPI   C4A19010  10.437   5.538   7.026  0.0017  0.0132  0.4246
 1209loPI   C5A19011  10.648   5.994   7.133 -0.0738 -0.0200 -0.2574
 1209loPI   C6A19012  10.866   6.451   7.334 -0.1338  0.0572 -0.0222
 1209loPI   C1B19013  10.477   4.829   5.747  0.0410  0.0700  0.0828
 1209loPI   C2B19014  10.601   4.889   6.152  0.0982 -0.2025  0.0669
 1209loPI   C3B19015  10.735   5.023   6.532 -0.0652  0.0744  0.1208
 1209loPI   C4B19016  10.747   5.161   6.931 -0.0883  0.1205  0.1133
 1210loPI    C119017   0.698  16.566   4.648  0.0833 -0.2145 -0.1030
 1210loPI    C219018   0.835  16.915   4.509  0.0971 -0.1604  0.0441
 1210loPI    C319019   0.681  16.645   4.257 -0.0602  0.0167 -0.0519
 1210loPI   PO419020   0.679  16.720   5.026  0.1256  0.2613  0.0904
 1210loPI   GL119021   0.810  16.457   5.315  0.1946  0.1369 -0.2755
 1210loPI   GL219022   0.536  16.568   5.493 -0.1997  0.1514  0.1848
 1210loPI   C1A19023   1.016  16.437   5.645 -0.0567 -0.1041 -0.2333
 1210loPI   C2A19024   1.172  16.513   6.104 -0.2257 -0.1233  0.2820
 1210loPI   C3A19025   1.225  16.423   6.524 -0.0034 -0.2734  0.0418
 1210loPI   C4A19026   1.237  16.268   6.901 -0.0914  0.0312 -0.2675
 1210loPI   C5A19027   1.251  16.401   7.314  0.0514 -0.3298  0.0370
 1210loPI   C6A19028   1.234  16.643   7.776 -0.0623 -0.0801  0.2105
 1210loPI   C1B19029   0.591  16.173   5.636 -0.0641  0.2881 -0.0541
 1210loPI   C2B19030   0.488  15.911   5.847  0.0170  0.1725 -0.2247
 1210loPI   C3B19031   0.583  15.780   6.222 -0.0868 -0.0784 -0.0858
 1210loPI   C4B19032   0.546  15.892   6.671 -0.3497  0.3897 -0.1589
 1211loPI    C119033   5.394   2.554   4.650  0.1573  0.0803 -0.0767
 1211loPI    C219034   5.744   2.361   4.659 -0.0366 -0.2795 -0.0366
 1211loPI    C319035   5.541   2.391   4.316  0.0319 -0.0701 -0.0602
 1211loPI   PO419036   5.441   2.764   4.882 -0.2948  0.1799 -0.1196
 1211loPI   GL119037   5.320   2.799   5.211 -0.0318 -0.0103 -0.1638
 1211loPI   GL219038   5.039   2.749   5.345  0.0376  0.1035  0.3021
 1211loPI   C1A19039   5.682   2.936   5.544  0.1873  0.0166  0.1815
 1211loPI   C2A19040   5.738   2.936   6.012  0.1223 -0.2443 -0.1458
 1211loPI   C3A19041   5.592   3.108   6.430  0.0607 -0.2388  0.0501
 1211loPI   C4A19042   5.680   3.204   6.870 -0.0430  0.1182 -0.0459
 1211loPI   C5A19043   5.499   3.379   7.299 -0.1292  0.0969  0.2547
 1211loPI   C6A19044   5.107   3.259   7.569  0.3836  0.1389  0.0946
 1211loPI   C1B19045   5.395   2.537   5.615  0.0875 -0.0621  0.2286
 1211loPI   C2B19046   5.594   2.392   5.991  0.0976 -0.3684  0.1726
 1211loPI   C3B19047   5.927   2.238   6.134  0.2197  0.0508 -0.0845
 1211loPI   C4B19048   6.044   2.148   6.513 -0.0132 -0.0455  0.2111
 1212loPI    C119049  14.928  13.537   4.968 -0.1285  0.0127  0.0942
 1212loPI    C219050  14.946  13.293   5.285 -0.2092 -0.2256 -0.0820
 1212loPI    C319051  15.068  13.165   4.926 -0.1621  0.0269 -0.1582
 1212loPI   PO419052  15.019  13.755   5.107  0.2338 -0.1904 -0.1493
 1212loPI   GL119053  15.250  13.870   5.440 -0.0585 -0.0010 -0.1286
 1212loPI   GL219054  15.144  14.083   5.572  0.0078 -0.2336  0.2427
 1212loPI   C1A19055  15.160  13.613   5.713 -0.1756 -0.1373 -0.0144
 1212loPI   C2A19056  15.257  13.806   6.188 -0.1320 -0.3609  0.2146
 1212loPI   C3A19057  15.193  13.779   6.564 -0.3124 -0.2186 -0.0784
 1212loPI   C4A19058  15.147  13.588   6.972  0.1367  0.0216  0.1513
 1212loPI   C5A19059  15.443  13.340   7.202 -0.0734 -0.0369  0.3047
 1212loPI   C6A19060  15.627  12.977   7.327 -0.1835 -0.2027  0.0362
 1212loPI   C1B19061  14.950  14.034   5.885 -0.0497 -0.0769 -0.0054
 1212loPI   C2B19062  14.758  14.089   6.320  0.0636  0.0182  0.1035
 1212loPI   C3B19063  14.667  14.172   6.715  0.1434 -0.0254 -0.0093
 1212loPI   C4B19064  14.302  14.312   6.998 -0.4130 -0.0862 -0.0272
 1213loPI    C119065   9.186  15.420   4.861 -0.0010  0.3114  0.0071
 1213loPI    C219066   8.789  15.459   4.892 -0.0530 -0.1370 -0.0211
 1213loPI    C319067   8.997  15.705   4.655 -0.3610 -0.1210 -0.2818
 1213loPI   PO419068   9.313  15.406   5.038  0.4285  0.1954  0.0361
 1213loPI   GL119069   9.456  15.363   5.406  0.0280  0.0428 -0.1446
 1213loPI   GL219070   9.722  15.227   5.545 -0.3340 -0.2522  0.0771
 1213loPI   C1A19071   9.239  15.305   5.708 -0.1247  0.0345  0.0256
 1213loPI   C2A19072   9.030  15.199   6.149 -0.4078  0.0397 -0.1650
 1213loPI   C3A19073   8.792  15.234   6.561  0.1851 -0.0895 -0.3347
 1213loPI   C4A19074   8.860  15.555   6.932 -0.0553  0.4941 -0.1296
 1213loPI   C5A19075   9.185  15.720   7.147 -0.4851 -0.0513 -0.1407
 1213loPI   C6A19076   9.563  15.926   7.351 -0.2055  0.0004 -0.0588
 1213loPI   C1B19077   9.888  15.304   5.862 -0.0513 -0.1827 -0.1886
 1213loPI   C2B19078  10.011  15.217   6.230 -0.1429  0.1658 -0.0442
 1213loPI   C3B19079  10.272  15.158   6.526 -0.0477  0.0280  0.1888
 1213loPI   C4B19080  10.613  15.143   6.797 -0.1042  0.3216  0.0733
 1214loPI    C119081   0.672   5.973   3.907  0.0915 -0.2290  0.0126
 1214loPI    C219082   1.045   6.015   4.045  0.1678 -0.4297 -0.1281
 1214loPI    C319083   0.923   6.230   3.731  0.1196 -0.2623  0.0039
 1214loPI   PO419084   0.560   5.875   4.115  0.1531 -0.2049 -0.0899
 1214loPI   GL119085   0.378   6.048   4.549  0.1450 -0.0917  0.0354
 1214loPI   GL219086   0.318   6.371   4.560  0.2279  0.2925 -0.0895
 1214loPI   C1A19087   0.541   5.902   4.949 -0.0578  0.0337  0.1847
 1214loPI   C2A19088   0.546   5.563   5.197 -0.0273  0.0041 -0.1531
 1214loPI   C3A19089   0.710   5.385   5.602  0.2586  0.0803  0.1747
 1214loPI   C4A19090   0.775   5.320   5.939  0.0868  0.1322 -0.0010
 1214loPI   C5A19091   0.763   5.316   6.462  0.1712 -0.2941  0.1522
 1214loPI   C6A19092   0.820   5.599   6.834  0.1585 -0.0092  0.2115
 1214loPI   C1B19093   0.073   6.231   4.945  0.2670 -0.2982  0.1464
 1214loPI   C2B19094   0.140   5.914   5.299  0.2302  0.1640  0.0229
 1214loPI   C3B19095   0.246   5.684   5.646  0.1472  0.0458  0.1148
 1214loPI   C4B19096   0.141   5.643   6.105  0.3810  0.1098 -0.1297
 1215loPI    C119097   5.088  18.018   4.951  0.3970 -0.2680 -0.0383
 1215loPI    C219098   5.218  18.017   4.572  0.0372  0.1271 -0.1706
 1215loPI    C319099   4.848  17.891   4.657  0.1597 -0.0796  0.0713
 1215loPI   PO419100   5.361  17.855   5.094 -0.0963 -0.3038 -0.0153
 1215loPI   GL119101   5.392  17.574   5.427 -0.2307  0.2689 -0.2200
 1215loPI   GL219102   5.308  17.268   5.516  0.1755  0.0116  0.0871
 1215loPI   C1A19103   5.306  17.630   5.850  0.2452  0.1027  0.0118
 1215loPI   C2A19104   5.433  17.418   6.118  0.0528 -0.0659 -0.1635
 1215loPI   C3A19105   5.604  17.330   6.571  0.1214  0.0364  0.1138
 1215loPI   C4A19106   5.727  17.162   7.073  0.0891 -0.2025  0.0043
 1215loPI   C5A19107   5.761  17.361   7.541 -0.1854 -0.0354  0.1231
 1215loPI   C6A19108   5.375  17.604   7.711 -0.0305 -0.1439 -0.0015
 1215loPI   C1B19109   5.209  16.967   5.796  0.1119 -0.3677 -0.2081
 1215loPI   C2B19110   5.128  16.851   6.271  0.0463 -0.0368  0.0626
 1215loPI   C3B19111   5.062  16.846   6.619 -0.2754  0.0813  0.3426
 1215loPI   C4B19112   4.812  17.044   6.933 -0.3738  0.0245  0.2870
 1216loPI    C119113   6.782   6.229   4.477 -0.2874 -0.0573  0.1132
 1216loPI    C219114   6.642   5.890   4.319 -0.0642 -0.1460  0.1015
 1216loPI    C319115   6.476   6.240   4.221 -0.0304 -0.2137 -0.2086
 1216loPI   PO419116   6.758   6.194   4.821  0.0649 -0.2042 -0.4888
 1216loPI   GL119117   6.397   6.000   5.169  0.1221 -0.3004 -0.1676
 1216loPI   GL219118   6.245   6.069   5.358 -0.1973 -0.1209  0.0208
 1216loPI   C1A19119   6.396   5.619   5.278 -0.1815 -0.0409  0.0568
 1216loPI   C2A19120   6.318   5.450   5.763  0.0259 -0.1192 -0.0970
 1216loPI   C3A19121   6.373   5.445   6.203  0.1090  0.0217  0.1835
 1216loPI   C4A19122   6.329   5.317   6.588 -0.0433 -0.0493 -0.1972
 1216loPI   C5A19123   6.256   5.158   6.967 -0.0209 -0.0672 -0.1309
 1216loPI   C6A19124   6.406   5.027   7.492  0.0977 -0.2094 -0.3937
 1216loPI   C1B19125   6.348   6.057   5.742 -0.0057 -0.0570 -0.2775
 1216loPI   C2B19126   6.303   5.990   6.196  0.0780 -0.1935  0.1225
 1216loPI   C3B19127   6.322   5.836   6.622 -0.2444  0.0835  0.2171
 1216loPI   C4B19128   6.113   5.647   6.971 -0.1721  0.1786  0.0626
 1217loPI    C119129   8.331  18.093   4.597  0.0417 -0.0373  0.1135
 1217loPI    C219130   8.102  17.908   4.326 -0.0100 -0.0591  0.1719
 1217loPI    C319131   8.361  18.190   4.210 -0.1120  0.0113  0.1129
 1217loPI   PO419132   8.404  17.876   4.787 -0.2242  0.1453  0.2552
 1217loPI   GL119133   8.424  17.741   5.142  0.1837 -0.0342 -0.0970
 1217loPI   GL219134   8.385  17.530   5.420 -0.0002  0.2009  0.4459
 1217loPI   C1A19135   8.457  17.963   5.603 -0.4060  0.0123  0.4417
 1217loPI   C2A19136   8.460  17.879   5.980  0.1089 -0.2065  0.2504
 1217loPI   C3A19137   8.434  17.885   6.397  0.0873 -0.1045  0.2338
 1217loPI   C4A19138   8.535  17.877   6.827  0.1294  0.1866  0.0785
 1217loPI   C5A19139   8.531  17.628   7.209 -0.0328 -0.2281 -0.2422
 1217loPI   C6A19140   8.601  17.586   7.716 -0.1389  0.0322  0.0330
 1217loPI   C1B19141   8.447  17.394   5.764 -0.2003  0.0247  0.0704
 1217loPI   C2B19142   8.469  17.431   6.184  0.0199 -0.0315 -0.2070
 1217loPI   C3B19143   8.328  17.394   6.588  0.0177  0.0543 -0.1008
 1217loPI   C4B19144   8.304  17.313   6.968 -0.0623 -0.2643 -0.1343
 1218loPI    C119145   5.732  16.749   4.990  0.3012  0.1233 -0.1544
 1218loPI    C219146   5.455  16.762   4.702  0.2070  0.2505 -0.0594
 1218loPI    C319147   5.799  16.569   4.639 -0.0274 -0.1774 -0.0688
 1218loPI   PO419148   5.658  16.993   5.097 -0.1409 -0.1143 -0.1218
 1218loPI   GL119149   5.803  17.218   5.359 -0.0006 -0.1256 -0.0359
 1218loPI   GL219150   6.155  17.283   5.379  0.1046  0.4452  0.0108
 1218loPI   C1A19151   5.782  17.467   5.718  0.1444  0.1391  0.3110
 1218loPI   C2A19152   5.800  17.831   5.688  0.1922  0.2043 -0.2439
 1218loPI   C3A19153   5.754  18.157   6.023 -0.2339 -0.2593  0.5810
 1218loPI   C4A19154   5.842  18.505   6.283 -0.0708  0.0349 -0.0069
 1218loPI   C5A19155   5.832  18.649   6.724 -0.2467  0.1253  0.2895
 1218loPI   C6A19156   5.768  18.793   7.171  0.0336 -0.3370 -0.0945
 1218loPI   C1B19157   6.221  17.169   5.747 -0.0381 -0.0673  0.0942
 1218loPI   C2B19158   6.478  17.359   6.107 -0.2387 -0.2807  0.0315
 1218loPI   C3B19159   6.596  17.491   6.492 -0.0168  0.1029  0.0425
 1218loPI   C4B19160   6.572  17.539   6.972  0.1375 -0.2681 -0.0240
 1219loPI    C119161  17.780   9.156   4.357 -0.1093 -0.0036 -0.0777
 1219loPI    C219162  17.464   9.285   4.565 -0.0574 -0.1287  0.0808
 1219loPI    C319163  17.417   9.004   4.284 -0.0923 -0.1218  0.0797
 1219loPI   PO419164  18.008   9.198   4.654 -0.0689 -0.2485 -0.0452
 1219loPI   GL119165  18.078   9.331   5.006 -0.0870 -0.2052  0.2885
 1219loPI   GL219166  18.298   9.448   5.105 -0.2719 -0.1128  0.1513
 1219loPI   C1A19167  17.885   9.272   5.346 -0.0427  0.0060 -0.0176
 1219loPI   C2A19168  17.879   9.162   5.736  0.2520 -0.0585  0.3327
 1219loPI   C3A19169  17.895   9.218   6.140  0.2640  0.2674  0.1355
 1219loPI   C4A19170  17.947   9.326   6.570  0.2546  0.0678  0.1903
 1219loPI   C5A19171  18.129   9.463   7.003 -0.2727 -0.1231  0.0197
 1219loPI   C6A19172  18.463   9.467   7.205 -0.2074  0.1884 -0.1800
 1219loPI   C1B19173  18.386   9.338   5.504  0.1273  0.0645 -0.2439
 1219loPI   C2B19174  18.323   9.483   5.915 -0.2370  0.3011  0.1461
 1219loPI   C3B19175  18.337   9.562   6.378 -0.2123 -0.1401  0.1934
 1219loPI   C4B19176  18.520   9.857   6.785  0.0932 -0.0868  0.1388
 1220loPI    C119177   0.572   7.330   4.994  0.0030 -0.0627  0.1145
 1220loPI    C219178   0.579   7.587   4.687  0.3481 -0.0771  0.1073
 1220loPI    C319179   0.370   7.247   4.659  0.2149  0.0155 -0.0347
 1220loPI   PO419180   0.575   7.426   5.242 -0.1004 -0.0718 -0.0643
 1220loPI   GL119181   0.568   7.252   5.563 -0.0474  0.1643 -0.1533
 1220loPI   GL219182   0.451   6.997   5.406  0.1236 -0.3076  0.5157
 1220loPI   C1A19183   0.458   7.409   5.934 -0.4219  0.1358 -0.3212
 1220loPI   C2A19184   0.612   7.498   6.271  0.1585  0.0444  0.3032
 1220loPI   C3A19185   0.844   7.739   6.591 -0.0700  0.0603 -0.0060
 1220loPI   C4A19186   1.066   7.994   6.918 -0.1787 -0.1398 -0.2925
 1220loPI   C5A19187   1.391   7.925   7.298  0.2566 -0.0428 -0.0059
 1220loPI   C6A19188   1.556   7.981   7.733  0.1565  0.0992  0.2733
 1220loPI   C1B19189   0.197   6.907   5.718  0.0602  0.0210  0.1863
 1220loPI   C2B19190   0.175   6.972   6.098 -0.0690 -0.0141  0.0523
 1220loPI   C3B19191   0.077   7.358   6.350 -0.0335 -0.3070  0.0606
 1220loPI   C4B19192  -0.137   7.176   6.634  0.1079 -0.2489 -0.3616
 1221loPI    C119193  17.314  13.204   4.783 -0.4788  0.1824 -0.0726
 1221loPI    C219194  17.517  13.437   4.529 -0.1895  0.2204  0.1870
 1221loPI    C319195  17.422  13.063   4.425 -0.0907  0.2416  0.0168
 1221loPI   PO419196  17.411  13.362   5.068 -0.0342 -0.1184 -0.1461
 1221loPI   GL119197  17.672  13.449   5.365  0.1680  0.4789  0.0437
 1221loPI   GL219198  17.405  13.325   5.611  0.0128  0.0081  0.0797
 1221loPI   C1A19199  17.806  13.786   5.574 -0.0895 -0.3254 -0.1023
 1221loPI   C2A19200  17.737  13.994   5.960  0.1296 -0.0392 -0.0108
 1221loPI   C3A19201  17.747  14.117   6.263 -0.0895  0.2289 -0.0541
 1221loPI   C4A19202  17.749  14.233   6.685 -0.0097  0.0458  0.0654
 1221loPI   C5A19203  17.366  14.429   6.878  0.2578 -0.0773 -0.2839
 1221loPI   C6A19204  17.274  14.271   7.325 -0.1118  0.0687 -0.0308
 1221loPI   C1B19205  17.530  13.328   5.885 -0.2084 -0.3662  0.1168
 1221loPI   C2B19206  17.566  13.403   6.390  0.0637  0.2009  0.2018
 1221loPI   C3B19207  17.562  13.282   6.817 -0.1316 -0.0338 -0.0408
 1221loPI   C4B19208  17.350  13.152   7.122 -0.2337 -0.1823 -0.1327
 1222loPI    C119209   5.566   1.959   4.938  0.0106 -0.0057  0.0274
 1222loPI    C219210   5.707   1.827   4.588 -0.0191  0.0638 -0.0111
 1222loPI    C319211   5.366   2.036   4.600 -0.0193  0.0597  0.0598
 1222loPI   PO419212   5.520   1.686   5.057  0.4226 -0.0337  0.0033
 1222loPI   GL119213   5.806   1.478   5.459  0.0011 -0.1685  0.1634
 1222loPI   GL219214   6.171   1.471   5.485  0.2303 -0.1769  0.0989
 1222loPI   C1A19215   5.877   1.340   5.875  0.0834  0.0505 -0.2301
 1222loPI   C2A19216   5.796   1.314   6.312 -0.1937  0.3336  0.0836
 1222loPI   C3A19217   5.901   1.111   6.765 -0.1782  0.4033 -0.0935
 1222loPI   C4A19218   6.077   1.060   7.037  0.5552  0.0426  0.2369
 1222loPI   C5A19219   6.478   1.096   7.224 -0.2185 -0.0155  0.1760
 1222loPI   C6A19220   6.797   1.349   7.390  0.3742  0.0815 -0.2241
 1222loPI   C1B19221   6.412   1.334   5.948 -0.0522  0.0037  0.1991
 1222loPI   C2B19222   6.373   1.359   6.322  0.0650  0.0664  0.1588
 1222loPI   C3B19223   6.136   1.609   6.640  0.0178 -0.1678  0.2330
 1222loPI   C4B19224   6.127   1.976   6.954 -0.0510  0.0355  0.0092
 1223loPI    C119225  15.473  10.678   4.822 -0.0948 -0.1125 -0.0316
 1223loPI    C219226  15.369  10.927   4.526 -0.1583 -0.0272  0.0619
 1223loPI    C319227  15.481  10.552   4.442 -0.2806 -0.0367 -0.0617
 1223loPI   PO419228  15.325  10.716   5.057  0.0189 -0.2083  0.1641
 1223loPI   GL119229  15.066  10.827   5.341 -0.0294  0.0049 -0.3870
 1223loPI   GL219230  15.044  10.549   5.422  0.0031  0.0646 -0.1171
 1223loPI   C1A19231  14.902  10.975   5.708  0.3126  0.1563 -0.0357
 1223loPI   C2A19232  14.889  10.904   6.171 -0.0955 -0.0948 -0.2563
 1223loPI   C3A19233  14.768  10.964   6.562  0.0139  0.0607 -0.0322
 1223loPI   C4A19234  14.554  10.665   6.963  0.0586  0.2014 -0.0224
 1223loPI   C5A19235  14.290  10.782   7.333 -0.0577  0.0950  0.3380
 1223loPI   C6A19236  13.997  11.096   7.532  0.1405  0.0015  0.0489
 1223loPI   C1B19237  15.270  10.509   5.846 -0.1743  0.2344 -0.3226
 1223loPI   C2B19238  15.309  10.486   6.354  0.5146 -0.2948 -0.0129
 1223loPI   C3B19239  15.418  10.304   6.782  0.1183 -0.1732  0.0372
 1223loPI   C4B19240  15.463  10.288   7.247 -0.0030  0.0726 -0.1083
 1224loPI    C119241  15.052  14.408   4.759 -0.0111 -0.2145  0.2340
 1224loPI    C219242  14.796  14.142   4.605 -0.2329  0.0516  0.1353
 1224loPI    C319243  15.102  14.274   4.385 -0.1249 -0.1166  0.1829
 1224loPI   PO419244  15.151  14.313   5.060 -0.0630 -0.0205  0.4233
 1224loPI   GL119245  15.488  14.384   5.316  0.2454  0.2848  0.0944
 1224loPI   GL219246  15.423  14.729   5.456 -0.2970  0.0591 -0.1750
 1224loPI   C1A19247  15.570  14.093   5.823  0.0207 -0.0384 -0.0073
 1224loPI   C2A19248  15.690  14.042   6.303  0.2317  0.2728  0.2266
 1224loPI   C3A19249  15.587  14.060   6.670 -0.0569  0.2718  0.0983
 1224loPI   C4A19250  15.579  14.185   7.173  0.0322 -0.1659  0.2868
 1224loPI   C5A19251  15.487  14.465   7.563 -0.0413 -0.2615  0.2930
 1224loPI   C6A19252  15.744  14.758   7.772  0.1988  0.3356 -0.0461
 1224loPI   C1B19253  15.313  14.514   5.808  0.0416 -0.0326  0.0963
 1224loPI   C2B19254  15.347  14.379   6.205  0.0991  0.0839 -0.0398
 1224loPI   C3B19255  15.167  14.415   6.677 -0.0509 -0.1241 -0.1247
 1224loPI   C4B19256  15.056  14.129   7.040  0.1526  0.1027  0.2855
 1225loPI    C119257   5.672   0.162   4.716 -0.1531  0.1642 -0.0705
 1225loPI    C219258   5.952  -0.004   4.484 -0.1597  0.2930 -0.1719
 1225loPI    C319259   5.691   0.255   4.327 -0.1581  0.3887 -0.0185
 1225loPI   PO419260   5.733   0.106   4.924 -0.1470 -0.3058  0.1689
 1225loPI   GL119261   5.524   0.246   5.373 -0.1591 -0.1664 -0.1164
 1225loPI   GL219262   5.283   0.420   5.075 -0.0193 -0.1405  0.2304
 1225loPI   C1A19263   5.365   0.515   5.626  0.1553 -0.0353  0.1174
 1225loPI   C2A19264   5.387   0.364   6.093  0.2339 -0.0825 -0.1222
 1225loPI   C3A19265   5.553   0.412   6.532 -0.1375 -0.1133 -0.0072
 1225loPI   C4A19266   5.647   0.565   6.975 -0.1524  0.0500 -0.2827
 1225loPI   C5A19267   5.843   0.301   7.310  0.1699  0.0208 -0.3234
 1225loPI   C6A19268   5.582   0.054   7.569  0.0072  0.4205  0.0148
 1225loPI   C1B19269   5.039   0.399   5.321  0.2325  0.0178 -0.0240
 1225loPI   C2B19270   4.810   0.362   5.754  0.3768  0.0488  0.0681
 1225loPI   C3B19271   4.883   0.322   6.150  0.0352 -0.3423  0.2429
 1225loPI   C4B19272   5.006   0.686   6.375 -0.3917  0.0612 -0.1309
 1226loPI    C119273  12.809   5.854   4.547 -0.2634 -0.2126 -0.0795
 1226loPI    C219274  13.112   5.633   4.408 -0.2200 -0.1298 -0.1174
 1226loPI    C319275  12.869   5.822   4.153 -0.1641 -0.0100 -0.0825
 1226loPI   PO419276  12.810   5.895   4.723 -0.3903  0.2726 -0.1060
 1226loPI   GL119277  12.684   5.875   5.154  0.1392  0.0464 -0.1943
 1226loPI   GL219278  12.943   5.969   5.293  0.0735  0.0450  0.2182
 1226loPI   C1A19279  12.402   6.064   5.441  0.0630  0.0371 -0.1032
 1226loPI   C2A19280  12.465   6.172   5.901  0.1266  0.0116 -0.0909
 1226loPI   C3A19281  12.644   6.437   6.279  0.0804  0.3511  0.0728
 1226loPI   C4A19282  12.719   6.478   6.693 -0.0244 -0.1369 -0.0980
 1226loPI   C5A19283  12.824   6.451   7.166 -0.0089 -0.1608 -0.2476
 1226loPI   C6A19284  12.868   6.255   7.571  0.0340  0.2240  0.0296
 1226loPI   C1B19285  12.846   5.907   5.720  0.2394 -0.0198  0.0407
 1226loPI   C2B19286  12.799   5.660   6.071 -0.1951  0.2468  0.2057
 1226loPI   C3B19287  13.043   5.448   6.361  0.0245  0.0448 -0.0571
 1226loPI   C4B19288  12.904   5.457   6.796  0.2880  0.2184 -0.2489
 1227loPI    C119289  16.994  18.902   4.558 -0.0955 -0.4182 -0.1904
 1227loPI    C219290  17.265  18.995   4.279 -0.0741 -0.2324 -0.1095
 1227loPI    C319291  16.876  19.056   4.208 -0.0420  0.1883  0.0459
 1227loPI   PO419292  16.978  19.075   4.738  0.0467  0.1665  0.1528
 1227loPI   GL119293  17.101  19.054   5.157  0.0717 -0.2188 -0.0616
 1227loPI   GL219294  17.400  19.113   5.118  0.0161 -0.1334 -0.2124
 1227loPI   C1A19295  17.163  19.157   5.616  0.0200  0.1032 -0.1703
 1227loPI   C2A19296  17.107  19.242   6.114 -0.1510 -0.5720  0.0521
 1227loPI   C3A19297  16.861  19.312   6.494  0.2048 -0.0024  0.4942
 1227loPI   C4A19298  16.937  19.272   6.917 -0.0471  0.0157 -0.0603
 1227loPI   C5A19299  16.958  19.049   7.297  0.5052  0.1537 -0.3308
 1227loPI   C6A19300  17.265  18.720   7.447  0.0634 -0.3165 -0.3384
 1227loPI   C1B19301  17.597  18.955   5.569 -0.0503 -0.1462  0.2134
 1227loPI   C2B19302  18.036  19.071   5.825  0.0054 -0.3627  0.2835
 1227loPI   C3B19303  18.142  19.132   6.170  0.4003  0.2629  0.1055
 1227loPI   C4B19304  18.346  19.000   6.532 -0.2164  0.0631 -0.1598
 1228loPI    C119305  18.181  16.297   4.826 -0.0567  0.1922 -0.1752
 1228loPI    C219306  18.467  16.327   5.104 -0.2774 -0.3459  0.1261
 1228loPI    C319307  18.142  16.559   5.125 -0.0377  0.0117 -0.0124
 1228loPI   PO419308  18.250  16.044   4.775  0.1956 -0.0399 -0.0962
 1228loPI   GL119309  18.447  15.840   5.193  0.1977  0.3440 -0.1067
 1228loPI   GL219310  18.313  15.609   5.428 -0.0318  0.2270  0.0457
 1228loPI   C1A19311  18.326  16.093   5.561 -0.0796 -0.1911  0.1349
 1228loPI   C2A19312  18.763  16.066   5.887 -0.1017 -0.1025 -0.2194
 1228loPI   C3A19313  18.935  16.193   6.266 -0.0825 -0.4429 -0.3320
 1228loPI   C4A19314  18.889  16.047   6.652 -0.1655 -0.0119  0.0730
 1228loPI   C5A19315  19.053  16.087   7.088 -0.2743 -0.1023 -0.2516
 1228loPI   C6A19316  19.102  16.030   7.537 -0.3161  0.2966 -0.3910
 1228loPI   C1B19317  18.597  15.549   5.762  0.2002  0.1576 -0.2448
 1228loPI   C2B19318  18.683  15.583   6.171  0.0279 -0.3250 -0.3193
 1228loPI   C3B19319  18.624  15.561   6.642 -0.0374  0.1973 -0.3076
 1228loPI   C4B19320  18.774  15.666   7.024 -0.0403  0.0289 -0.1039
 1229loPI    C119321  10.449   4.864   4.591 -0.1289  0.0647  0.0376
 1229loPI    C219322  10.464   5.240   4.456 -0.1691  0.0090 -0.1238
 1229loPI    C319323  10.317   4.949   4.224 -0.1355 -0.1073 -0.0009
 1229loPI   PO419324  10.331   4.837   4.869  0.0296  0.0852  0.0693
 1229loPI   GL119325  10.213   4.412   5.152  0.2653  0.2384 -0.1756
 1229loPI   GL219326  10.371   4.238   5.327 -0.3739  0.1305 -0.2820
 1229loPI   C1A19327  10.123   4.540   5.627  0.0657 -0.4633 -0.1542
 1229loPI   C2A19328  10.245   4.503   6.032  0.0856  0.1360 -0.3186
 1229loPI   C3A19329  10.468   4.532   6.487 -0.0722  0.2926 -0.1217
 1229loPI   C4A19330  10.447   4.725   6.877  0.0091 -0.0140 -0.0371
 1229loPI   C5A19331  10.291   4.988   7.198 -0.0578  0.0432 -0.1582
 1229loPI   C6A19332  10.276   5.284   7.437  0.0659  0.0229 -0.0787
 1229loPI   C1B19333  10.534   4.123   5.792 -0.3351 -0.1570 -0.4503
 1229loPI   C2B19334  10.485   4.032   6.135 -0.0995 -0.1178  0.4308
 1229loPI   C3B19335  10.442   3.909   6.552 -0.0641  0.2402  0.0328
 1229loPI   C4B19336  10.576   3.473   6.596  0.1749  0.4150 -0.1954
 1230loPI    C119337  13.582  13.931   4.784  0.0096  0.1521 -0.0203
 1230loPI    C219338  13.225  13.926   4.603 -0.0198  0.2812  0.0331
 1230loPI    C319339  13.500  14.196   4.496  0.0391  0.2230  0.0363
 1230loPI   PO419340  13.525  13.943   5.114  0.1359 -0.0211  0.0072
 1230loPI   GL119341  13.398  13.879   5.516 -0.2410 -0.0155  0.1428
 1230loPI   GL219342  13.109  13.884   5.655  0.2786  0.0148 -0.0401
 1230loPI   C1A19343  13.708  13.807   5.930  0.0348 -0.0940  0.1132
 1230loPI   C2A19344  13.714  13.836   6.364 -0.0125 -0.1858  0.2041
 1230loPI   C3A19345  13.590  13.764   6.699 -0.1131 -0.3274  0.2122
 1230loPI   C4A19346  13.682  13.691   7.137  0.1355 -0.1927  0.0979
 1230loPI   C5A19347  13.450  13.500   7.572  0.2257 -0.2716  0.0224
 1230loPI   C6A19348  13.511  13.486   8.016 -0.0629 -0.0382  0.0664
 1230loPI   C1B19349  12.863  13.546   5.741  0.0564  0.0541 -0.0488
 1230loPI   C2B19350  12.613  13.164   5.933  0.4308 -0.2550  0.3237
 1230loPI   C3B19351  12.388  13.047   6.343  0.0811  0.2178 -0.1973
 1230loPI   C4B19352  12.512  13.133   6.778 -0.2644  0.2983 -0.0361
 1231loPI    C119353   6.070   0.471   4.771  0.1832 -0.0049  0.1909
 1231loPI    C219354   5.760   0.599   4.989  0.0727  0.0447  0.0068
 1231loPI    C319355   5.902   0.826   4.691 -0.0168 -0.1841 -0.2135
 1231loPI   PO419356   6.265   0.436   4.927  0.0989 -0.0558 -0.0851
 1231loPI   GL119357   6.063   0.330   5.287  0.0832  0.2890 -0.1819
 1231loPI   GL219358   6.038   0.071   5.372  0.0540  0.1000  0.4040
 1231loPI   C1A19359   5.968   0.420   5.744 -0.1282 -0.1652 -0.0234
 1231loPI   C2A19360   5.873   0.435   6.091 -0.0882  0.1418  0.0428
 1231loPI   C3A19361   6.045   0.362   6.495  0.1848 -0.0880 -0.0755
 1231loPI   C4A19362   6.119   0.481   6.907 -0.1308 -0.1880 -0.1769
 1231loPI   C5A19363   6.217   0.668   7.306  0.1103  0.2781  0.1545
 1231loPI   C6A19364   6.088   0.834   7.610 -0.2102  0.0560 -0.2834
 1231loPI   C1B19365   5.862  -0.066   5.701 -0.3607  0.0099  0.0275
 1231loPI   C2B19366   5.906  -0.159   6.117  0.0483 -0.2101  0.0773
 1231loPI   C3B19367   5.756  -0.051   6.465 -0.0978 -0.0923 -0.1804
 1231loPI   C4B19368   5.924   0.011   6.892 -0.0015 -0.0259  0.1561
 1232loPI    C119369  10.941  16.255   4.949  0.0746 -0.1170 -0.0643
 1232loPI    C219370  11.072  15.914   4.787 -0.3100 -0.1764 -0.2625
 1232loPI    C319371  10.924  16.202   4.552  0.3932  0.3066 -0.1412
 1232loPI   PO419372  10.819  16.232   5.154  0.3220  0.0466 -0.2844
 1232loPI   GL119373  10.879  16.432   5.528  0.0437 -0.1245  0.1217
 1232loPI   GL219374  11.147  16.473   5.463 -0.1039  0.0149 -0.0636
 1232loPI   C1A19375  10.838  16.531   5.900  0.1630 -0.1527 -0.0350
 1232loPI   C2A19376  10.932  16.477   6.382 -0.1541  0.1174 -0.0295
 1232loPI   C3A19377  11.082  16.172   6.580  0.1396 -0.0139  0.0115
 1232loPI   C4A19378  10.988  15.887   6.911  0.0200  0.0345 -0.1002
 1232loPI   C5A19379  11.142  15.532   7.129 -0.1103  0.2400  0.2247
 1232loPI   C6A19380  11.381  15.163   7.253 -0.0714 -0.1642 -0.0387
 1232loPI   C1B19381  11.363  16.236   5.793  0.1623 -0.2477 -0.1657
 1232loPI   C2B19382  11.589  16.221   6.122  0.0077 -0.4149  0.1317
 1232loPI   C3B19383  11.837  16.189   6.555  0.0833  0.0920  0.0806
 1232loPI   C4B19384  11.904  16.215   6.997  0.3432 -0.1424  0.1610
 1233loPI    C119385   9.550   0.327   5.116  0.2422  0.1481  0.0556
 1233loPI    C219386   9.712   0.413   4.760  0.0546  0.1367 -0.0338
 1233loPI    C319387   9.328   0.502   4.833 -0.0292 -0.2460  0.0157
 1233loPI   PO419388   9.543   0.100   5.251  0.0728 -0.0009 -0.0906
 1233loPI   GL119389   9.303   0.106   5.625  0.1282  0.0292 -0.1275
 1233loPI   GL219390   9.585   0.413   5.625 -0.0583  0.0322 -0.2418
 1233loPI   C1A19391   9.193  -0.071   6.014 -0.0547 -0.1456  0.1942
 1233loPI   C2A19392   9.120  -0.116   6.357 -0.0940  0.0903 -0.2181
 1233loPI   C3A19393   9.072  -0.001   6.745  0.2314  0.2540  0.4374
 1233loPI   C4A19394   9.259  -0.052   7.134 -0.1639 -0.3092 -0.1119
 1233loPI   C5A19395   9.164   0.123   7.566  0.3220 -0.0008  0.0518
 1233loPI   C6A19396   9.317   0.293   7.960  0.1832  0.0146 -0.1582
 1233loPI   C1B19397   9.383   0.471   6.034  0.0430  0.3680 -0.4105
 1233loPI   C2B19398   9.216   0.395   6.486 -0.0424 -0.0056  0.1519
 1233loPI   C3B19399   9.101   0.588   6.829 -0.1570  0.2242 -0.0481
 1233loPI   C4B19400   9.044   0.860   7.200  0.1318  0.0484  0.0972
 1234loPI    C119401   5.793   5.018   4.530  0.0768  0.1313 -0.1321
 1234loPI    C219402   6.135   4.821   4.591  0.0109  0.0295 -0.0894
 1234loPI    C319403   5.887   4.705   4.299 -0.1072 -0.0563  0.0439
 1234loPI   PO419404   5.646   4.981   4.811  0.2291 -0.2303 -0.2377
 1234loPI   GL119405   5.282   5.187   5.070 -0.0281  0.1766 -0.0561
 1234loPI   GL219406   5.038   5.030   5.287  0.0273  0.1925 -0.0587
 1234loPI   C1A19407   5.497   5.088   5.500  0.5781 -0.0900 -0.1099
 1234loPI   C2A19408   5.436   5.290   5.909  0.1408  0.0687 -0.5469
 1234loPI   C3A19409   5.216   5.428   6.293 -0.1525  0.0588 -0.3249
 1234loPI   C4A19410   5.273   5.415   6.709  0.3326 -0.0115  0.1960
 1234loPI   C5A19411   5.199   5.643   7.153  0.3236 -0.0560  0.1249
 1234loPI   C6A19412   4.894   5.946   7.368 -0.0147 -0.2172 -0.0892
 1234loPI   C1B19413   4.974   5.340   5.639 -0.1761  0.0975  0.3591
 1234loPI   C2B19414   4.962   5.657   5.963  0.0149  0.1795 -0.0484
 1234loPI   C3B19415   4.867   5.845   6.428 -0.0371 -0.1418  0.0227
 1234loPI   C4B19416   5.000   5.874   6.773 -0.1841  0.1808 -0.0060
 1235loPI    C119417   6.606  13.517   4.507  0.0293  0.0666  0.2545
 1235loPI    C219418   6.249  13.345   4.452  0.2238 -0.2602 -0.0295
 1235loPI    C319419   6.412  13.566   4.161  0.1618  0.0683  0.1798
 1235loPI   PO419420   6.640  13.288   4.733  0.0174 -0.0367  0.2757
 1235loPI   GL119421   6.542  13.352   5.183 -0.0841 -0.1460  0.2206
 1235loPI   GL219422   6.809  13.074   5.360 -0.1258  0.0966 -0.1059
 1235loPI   C1A19423   6.516  13.444   5.607 -0.1766  0.0501  0.1132
 1235loPI   C2A19424   6.581  13.489   6.007  0.0850 -0.1794  0.2753
 1235loPI   C3A19425   6.762  13.468   6.398 -0.0263  0.1378 -0.0308
 1235loPI   C4A19426   7.049  13.491   6.804 -0.0533  0.0117 -0.1589
 1235loPI   C5A19427   7.059  13.337   7.178 -0.0910 -0.2103 -0.1341
 1235loPI   C6A19428   7.163  13.097   7.521 -0.1791 -0.0810  0.0151
 1235loPI   C1B19429   6.903  13.186   5.775 -0.0124  0.1348  0.0089
 1235loPI   C2B19430   7.149  13.388   6.030 -0.0306 -0.2777  0.1053
 1235loPI   C3B19431   7.424  13.798   5.892 -0.1585 -0.2126 -0.0118
 1235loPI   C4B19432   7.579  14.090   5.595 -0.0315 -0.1216 -0.4465
 1236loPI    C119433  17.224  10.819   4.649 -0.1259  0.0825  0.0166
 1236loPI    C219434  17.170  10.833   4.253  0.1166  0.1193 -0.0164
 1236loPI    C319435  17.359  11.132   4.440  0.0777  0.0623  0.1152
 1236loPI   PO419436  17.282  10.600   4.698 -0.3360  0.3978  0.0022
 1236loPI   GL119437  17.439  10.574   5.030  0.1025  0.3065 -0.1044
 1236loPI   GL219438  17.529  10.237   5.070  0.2029 -0.1013 -0.0483
 1236loPI   C1A19439  17.303  10.584   5.369 -0.0842  0.1239  0.1755
 1236loPI   C2A19440  17.337  10.438   5.793 -0.2171  0.2227 -0.4359
 1236loPI   C3A19441  17.317  10.571   6.193  0.0556  0.0953 -0.0669
 1236loPI   C4A19442  17.328  10.672   6.581  0.0992 -0.1734  0.1833
 1236loPI   C5A19443  17.035  10.722   6.898 -0.0696  0.0282 -0.1570
 1236loPI   C6A19444  16.834  10.526   7.301 -0.0571 -0.0218  0.4901
 1236loPI   C1B19445  17.470  10.097   5.466  0.2508 -0.0336  0.1818
 1236loPI   C2B19446  17.473   9.904   5.941 -0.3770 -0.1369 -0.0051
 1236loPI   C3B19447  17.488   9.661   6.340 -0.2137  0.0453  0.0904
 1236loPI   C4B19448  17.570   9.505   6.866  0.0893 -0.1545  0.0763
 1237loPI    C119449  17.264  15.674   4.833 -0.4123  0.1468 -0.0113
 1237loPI    C219450  17.472  15.932   4.609 -0.3060  0.1223  0.0589
 1237loPI    C319451  17.285  15.623   4.437 -0.1153  0.0286  0.0172
 1237loPI   PO419452  17.351  15.593   5.096  0.0081  0.1413  0.1710
 1237loPI   GL119453  17.417  15.424   5.518 -0.1241  0.1418 -0.1152
 1237loPI   GL219454  17.379  15.770   5.637  0.1379 -0.0017  0.2423
 1237loPI   C1A19455  17.475  15.154   5.849  0.0187 -0.3581 -0.2417
 1237loPI   C2A19456  17.640  15.087   6.241 -0.1096  0.0025 -0.0211
 1237loPI   C3A19457  17.552  15.184   6.617 -0.0135 -0.0986 -0.0920
 1237loPI   C4A19458  17.364  14.991   6.952 -0.1280 -0.1348  0.2041
 1237loPI   C5A19459  17.373  15.243   7.335 -0.1500  0.2166 -0.0264
 1237loPI   C6A19460  17.096  15.446   7.553 -0.0650  0.2640 -0.0416
 1237loPI   C1B19461  17.485  15.619   5.992 -0.3715 -0.2478 -0.3137
 1237loPI   C2B19462  17.721  15.604   6.328 -0.2212 -0.2051  0.0951
 1237loPI   C3B19463  17.803  15.605   6.844 -0.0293  0.1165 -0.0695
 1237loPI   C4B19464  18.034  15.922   7.053 -0.1085  0.2835 -0.1252
 1238loPI    C119465   1.378  15.909   4.967  0.0480 -0.0003  0.1893
 1238loPI    C219466   1.433  15.960   4.574  0.1987  0.0243  0.2127
 1238loPI    C319467   1.234  15.640   4.708 -0.0287  0.1188  0.1070
 1238loPI   PO419468   1.596  15.860   5.120 -0.0340  0.2483  0.3936
 1238loPI   GL119469   1.856  16.051   5.430  0.0172  0.2519 -0.0341
 1238loPI   GL219470   1.635  16.294   5.467  0.0915  0.1210  0.2425
 1238loPI   C1A19471   1.923  15.802   5.839 -0.3656  0.0990 -0.1398
 1238loPI   C2A19472   1.930  15.651   6.186 -0.1648 -0.0366 -0.1167
 1238loPI   C3A19473   2.086  15.744   6.496  0.1565  0.3866 -0.0427
 1238loPI   C4A19474   2.138  15.790   6.949  0.0313 -0.0971  0.1792
 1238loPI   C5A19475   2.030  15.976   7.312  0.2093 -0.0130  0.1790
 1238loPI   C6A19476   2.102  16.022   7.749  0.1688  0.1271  0.3350
 1238loPI   C1B19477   1.403  16.193   5.811 -0.2741  0.2736 -0.2326
 1238loPI   C2B19478   1.596  16.213   6.099  0.2105 -0.1970 -0.0897
 1238loPI   C3B19479   1.664  16.070   6.509 -0.0339  0.0492 -0.1647
 1238loPI   C4B19480   1.631  16.017   6.929  0.1760  0.3192  0.2496
 1239loPI    C119481   6.168  10.168   4.558 -0.1534  0.0376  0.0036
 1239loPI    C219482   6.288   9.943   4.867 -0.0534 -0.0431 -0.0932
 1239loPI    C319483   6.558  10.132   4.640 -0.1428  0.2888  0.0708
 1239loPI   PO419484   5.851  10.266   4.728 -0.1780  0.0020 -0.1496
 1239loPI   GL119485   5.626  10.519   5.059  0.0364  0.2730 -0.1320
 1239loPI   GL219486   5.357  10.201   5.052  0.2538 -0.0609 -0.0219
 1239loPI   C1A19487   5.627  10.571   5.435 -0.1286 -0.1156  0.2214
 1239loPI   C2A19488   5.746  10.477   5.876 -0.2398  0.5077 -0.2982
 1239loPI   C3A19489   5.969  10.450   6.303 -0.2426  0.0142  0.0812
 1239loPI   C4A19490   6.077  10.136   6.705  0.0314 -0.1027  0.1327
 1239loPI   C5A19491   5.999   9.753   7.067 -0.1404  0.1848 -0.2657
 1239loPI   C6A19492   6.112   9.667   7.527  0.0806 -0.0490 -0.1517
 1239loPI   C1B19493   5.187  10.258   5.525 -0.2343 -0.0765 -0.2548
 1239loPI   C2B19494   4.986  10.424   5.834 -0.0077 -0.1009 -0.1771
 1239loPI   C3B19495   4.795  10.363   6.232  0.0271 -0.0738  0.0575
 1239loPI   C4B19496   4.552  10.332   6.631  0.1158 -0.0496  0.1818
 1240loPI    C119497   1.052  10.102   4.874 -0.0431  0.0763  0.0985
 1240loPI    C219498   0.975   9.735   5.012  0.0767  0.0299  0.0437
 1240loPI    C319499   0.783  10.050   5.166 -0.1458 -0.0718 -0.0207
 1240loPI   PO419500   1.311  10.168   4.945 -0.2408 -0.0343  0.1444
 1240loPI   GL119501   1.519  10.052   5.441 -0.2022 -0.1802 -0.0809
 1240loPI   GL219502   1.196  10.031   5.439 -0.1377  0.1571 -0.0466
 1240loPI   C1A19503   1.447  10.185   5.943  0.0719 -0.0520  0.3191
 1240loPI   C2A19504   1.542  10.280   6.334 -0.2323  0.0141  0.1949
 1240loPI   C3A19505   1.581  10.494   6.741  0.0288 -0.0286  0.2206
 1240loPI   C4A19506   1.858  10.762   6.947 -0.1830  0.0511 -0.0779
 1240loPI   C5A19507   2.329  10.911   7.050  0.0636  0.0067  0.2239
 1240loPI   C6A19508   2.566  10.561   7.202  0.1466  0.1461 -0.0996
 1240loPI   C1B19509   1.176   9.828   5.805 -0.0258 -0.3917  0.0131
 1240loPI   C2B19510   1.294   9.839   6.219 -0.1346  0.3459 -0.3211
 1240loPI   C3B19511   1.401   9.880   6.632 -0.0717  0.0359  0.0232
 1240loPI   C4B19512   1.370   9.837   7.021 -0.0825 -0.0394  0.3325
 1241loPI    C119513   4.327  11.308   4.645  0.0740  0.0215  0.0056
 1241loPI    C219514   4.645  11.228   4.415  0.1395  0.1742  0.0420
 1241loPI    C319515   4.281  11.256   4.251  0.1489  0.0308 -0.0045
 1241loPI   PO419516   4.344  11.185   4.849 -0.2232 -0.2250  0.0556
 1241loPI   GL119517   4.590  11.152   5.323  0.0364  0.1886  0.4508
 1241loPI   GL219518   4.440  10.903   5.604 -0.0075  0.0817 -0.4680
 1241loPI   C1A19519   4.910  11.077   5.747  0.0150  0.1955  0.0017
 1241loPI   C2A19520   4.862  11.015   6.144  0.1597 -0.2085  0.1456
 1241loPI   C3A19521   4.952  10.801   6.441 -0.0042  0.0537 -0.1002
 1241loPI   C4A19522   4.879  10.741   6.906  0.3648 -0.0338  0.1781
 1241loPI   C5A19523   4.855  10.841   7.315  0.0634  0.0722 -0.0458
 1241loPI   C6A19524   5.053  10.762   7.788  0.4746 -0.1679  0.3392
 1241loPI   C1B19525   4.485  10.759   6.086 -0.1888 -0.1163  0.1143
 1241loPI   C2B19526   4.454  10.821   6.518 -0.1192 -0.0754 -0.1549
 1241loPI   C3B19527   4.378  11.046   6.944 -0.1599 -0.0991  0.0552
 1241loPI   C4B19528   4.353  11.017   7.344  0.0533 -0.1135  0.1093
 1242loPI    C119529  11.150   8.823   4.428  0.1507  0.0241 -0.0198
 1242loPI    C219530  11.088   9.112   4.159  0.2251  0.0147 -0.0472
 1242loPI    C319531  11.036   8.729   4.056  0.1280  0.0182 -0.0113
 1242loPI   PO419532  10.971   9.021   4.637  0.2269 -0.0560 -0.0470
 1242loPI   GL119533  11.043   9.306   5.038  0.0965  0.0113 -0.2023
 1242loPI   GL219534  11.197   9.066   5.216 -0.3520  0.1429  0.0377
 1242loPI   C1A19535  11.122   9.556   5.417 -0.0151  0.1294 -0.1230
 1242loPI   C2A19536  11.154   9.593   5.766 -0.1106  0.0293  0.0539
 1242loPI   C3A19537  11.200   9.630   6.137 -0.2149 -0.1504 -0.0194
 1242loPI   C4A19538  11.103   9.362   6.407  0.3048  0.0892  0.1810
 1242loPI   C5A19539  11.115   9.309   6.769 -0.2419 -0.1729 -0.0997
 1242loPI   C6A19540  10.934   9.278   7.124  0.3786 -0.2958 -0.2283
 1242loPI   C1B19541  11.027   9.127   5.657 -0.1051  0.0108  0.1313
 1242loPI   C2B19542  11.023   8.947   6.119  0.0401  0.0636  0.1096
 1242loPI   C3B19543  11.167   8.842   6.506  0.1365 -0.0874 -0.3075
 1242loPI   C4B19544  11.530   9.072   6.708 -0.1260 -0.2890  0.3387
 1243loPI    C119545   7.833   4.748   4.506 -0.1997 -0.1593 -0.2501
 1243loPI    C219546   8.204   4.789   4.362 -0.1865 -0.0300 -0.1805
 1243loPI    C319547   8.114   4.479   4.599 -0.0122  0.1645  0.1466
 1243loPI   PO419548   7.821   5.082   4.659 -0.1557  0.3347  0.0237
 1243loPI   GL119549   7.897   5.378   5.063 -0.1066 -0.0570  0.1303
 1243loPI   GL219550   8.145   5.395   4.976 -0.1456 -0.0622 -0.1468
 1243loPI   C1A19551   7.844   5.490   5.506  0.0961 -0.1508 -0.0543
 1243loPI   C2A19552   7.797   5.595   5.937 -0.4128  0.1461 -0.1702
 1243loPI   C3A19553   7.832   5.619   6.317  0.1405 -0.0845 -0.0336
 1243loPI   C4A19554   7.823   5.492   6.660  0.0321 -0.0752 -0.2851
 1243loPI   C5A19555   7.564   5.243   6.957  0.2178  0.1409 -0.0475
 1243loPI   C6A19556   7.507   4.963   7.353 -0.0403  0.2111  0.0141
 1243loPI   C1B19557   8.181   5.190   5.402 -0.0173  0.1801 -0.0448
 1243loPI   C2B19558   8.072   5.143   5.897 -0.0663 -0.0226  0.0183
 1243loPI   C3B19559   8.036   5.088   6.383  0.2429  0.1511  0.2044
 1243loPI   C4B19560   8.024   4.941   6.825 -0.3093  0.1478  0.2520
 1244loPI    C119561  10.178   8.760   4.709 -0.0240 -0.1168  0.0122
 1244loPI    C219562  10.215   9.054   4.440  0.0536 -0.0361  0.1103
 1244loPI    C319563  10.200   8.673   4.319 -0.2411  0.0181 -0.0316
 1244loPI   PO419564  10.345   8.764   4.813  0.3284 -0.5795  0.0449
 1244loPI   GL119565  10.633   8.778   5.134 -0.0768  0.0655  0.1942
 1244loPI   GL219566  10.612   9.035   5.361 -0.0519  0.1303  0.0772
 1244loPI   C1A19567  10.423   8.510   5.443  0.3478 -0.1362  0.0799
 1244loPI   C2A19568  10.357   8.397   5.940  0.0427  0.0322 -0.1373
 1244loPI   C3A19569  10.190   8.108   6.305 -0.1639 -0.0944  0.0250
 1244loPI   C4A19570  10.211   7.777   6.605  0.0174 -0.1449 -0.1957
 1244loPI   C5A19571  10.023   7.629   7.035 -0.0299 -0.1592  0.2298
 1244loPI   C6A19572   9.623   7.424   7.182  0.1105 -0.1603  0.0588
 1244loPI   C1B19573  10.412   9.041   5.669 -0.0963 -0.0219 -0.2746
 1244loPI   C2B19574  10.407   8.910   6.128  0.0244 -0.1421  0.1743
 1244loPI   C3B19575  10.642   8.728   6.374 -0.1113 -0.0712  0.0858
 1244loPI   C4B19576  10.514   8.383   6.655  0.1545  0.1977 -0.3060
 1245loPI    C119577   6.709   6.824   4.752 -0.0134  0.1846 -0.3515
 1245loPI    C219578   6.497   6.659   5.048  0.2911  0.3573 -0.0310
 1245loPI    C319579   6.452   6.527   4.673 -0.2510  0.2751  0.0551
 1245loPI   PO419580   6.870   6.941   4.828 -0.1839 -0.0480 -0.3333
 1245loPI   GL119581   6.960   6.832   5.201 -0.1379 -0.1657  0.1795
 1245loPI   GL219582   6.937   6.497   5.252 -0.2044  0.1349  0.1867
 1245loPI   C1A19583   6.882   6.728   5.681  0.1238  0.2472  0.4170
 1245loPI   C2A19584   6.955   6.863   6.210 -0.3196 -0.2566 -0.4200
 1245loPI   C3A19585   7.192   7.015   6.634  0.0601  0.2115  0.2024
 1245loPI   C4A19586   7.292   6.788   7.120 -0.3406  0.0018 -0.1227
 1245loPI   C5A19587   7.397   6.496   7.277  0.0200  0.1010 -0.0320
 1245loPI   C6A19588   7.211   6.060   7.339 -0.0935  0.1105 -0.1419
 1245loPI   C1B19589   6.621   6.367   5.491 -0.3106  0.1958 -0.4158
 1245loPI   C2B19590   6.669   6.357   5.943 -0.2737  0.3734  0.2766
 1245loPI   C3B19591   6.488   6.440   6.334  0.3408  0.5650 -0.1121
 1245loPI   C4B19592   6.339   6.327   6.725 -0.3703  0.1973  0.1521
 1246loPI    C119593   3.383  16.707   5.076 -0.1484  0.1309  0.0776
 1246loPI    C219594   3.624  17.025   5.113 -0.0221  0.0299  0.1291
 1246loPI    C319595   3.750  16.663   5.228 -0.0930 -0.0729 -0.1100
 1246loPI   PO419596   3.227  16.750   5.114 -0.0197 -0.3221  0.0150
 1246loPI   GL119597   3.224  16.942   5.518  0.2508 -0.2962  0.1293
 1246loPI   GL219598   3.112  17.269   5.631 -0.0602  0.2624  0.1596
 1246loPI   C1A19599   3.431  17.051   5.998 -0.0005  0.1243 -0.0388
 1246loPI   C2A19600   3.474  17.031   6.410  0.2186 -0.0410 -0.2449
 1246loPI   C3A19601   3.559  16.887   6.821 -0.2641 -0.2799 -0.1162
 1246loPI   C4A19602   3.569  16.888   7.271 -0.0602  0.2978  0.1339
 1246loPI   C5A19603   3.612  17.296   7.335 -0.0047 -0.1276 -0.1682
 1246loPI   C6A19604   3.395  17.567   7.522  0.2669  0.1680 -0.2154
 1246loPI   C1B19605   3.017  17.353   6.116 -0.0314 -0.0692 -0.1843
 1246loPI   C2B19606   3.105  17.336   6.556  0.2987 -0.0965 -0.0504
 1246loPI   C3B19607   3.261  17.338   6.953  0.5708  0.0589 -0.1206
 1246loPI   C4B19608   3.071  17.690   7.167 -0.2752  0.1464 -0.4768
 1247loPI    C119609   0.158   2.562   4.487  0.0861  0.0917 -0.1742
 1247loPI    C219610  -0.223   2.526   4.370  0.1239 -0.0809 -0.2471
 1247loPI    C319611   0.064   2.316   4.186  0.2326 -0.0778 -0.0834
 1247loPI   PO419612   0.111   2.622   4.751 -0.1278  0.0226 -0.2457
 1247loPI   GL119613   0.330   2.581   5.146  0.0897  0.1643 -0.2459
 1247loPI   GL219614   0.611   2.652   5.139  0.2308 -0.0535 -0.0737
 1247loPI   C1A19615   0.182   2.420   5.448 -0.0347 -0.1234  0.1177
 1247loPI   C2A19616   0.053   2.269   5.886  0.0885 -0.1795  0.1171
 1247loPI   C3A19617  -0.165   2.024   6.105 -0.0473  0.0778 -0.0696
 1247loPI   C4A19618  -0.333   2.076   6.512  0.1172 -0.0827 -0.0290
 1247loPI   C5A19619  -0.432   2.365   6.903  0.0184 -0.0758  0.1403
 1247loPI   C6A19620  -0.489   2.859   7.069  0.0803 -0.0522  0.0698
 1247loPI   C1B19621   0.600   2.756   5.520  0.1058  0.4397  0.0764
 1247loPI   C2B19622   0.674   2.986   5.879 -0.0052 -0.1153 -0.1753
 1247loPI   C3B19623   0.787   2.982   6.272  0.1959 -0.2582  0.3184
 1247loPI   C4B19624   0.620   2.997   6.697  0.1545 -0.0480  0.2317
 1248loPI    C119625  10.082  11.513   4.683 -0.2938  0.1546  0.0013
 1248loPI    C219626  10.085  11.875   4.515 -0.2446  0.0366 -0.2569
 1248loPI    C319627  10.298  11.578   4.353 -0.2846 -0.1083 -0.0471
 1248loPI   PO419628  10.011  11.597   4.952  0.2261 -0.2275  0.0804
 1248loPI   GL119629   9.751  11.453   5.123  0.2672  0.0549 -0.0157
 1248loPI   GL219630   9.397  11.434   5.202  0.0926 -0.0603  0.1409
 1248loPI   C1A19631   9.793  11.294   5.477  0.0297 -0.0059  0.1856
 1248loPI   C2A19632   9.640  11.193   5.850  0.0006 -0.0307 -0.3138
 1248loPI   C3A19633   9.539  11.225   6.256  0.2158  0.0590  0.1478
 1248loPI   C4A19634   9.396  11.221   6.736 -0.3172  0.1176 -0.0721
 1248loPI   C5A19635   9.494  11.019   7.015  0.2543  0.1668 -0.2038
 1248loPI   C6A19636   9.555  11.210   7.388 -0.1644  0.1140 -0.0089
 1248loPI   C1B19637   9.334  11.636   5.577 -0.2601  0.0360 -0.1636
 1248loPI   C2B19638   9.214  11.848   5.851  0.1977 -0.1985  0.0437
 1248loPI   C3B19639   9.591  12.005   6.148  0.6790 -0.1460 -0.1958
 1248loPI   C4B19640   9.664  12.162   6.561 -0.2972  0.2925 -0.0531
 1249loPI    C119641   4.484   6.896   4.347  0.0394 -0.1118 -0.0462
 1249loPI    C219642   4.308   7.202   4.159 -0.0326 -0.0320  0.1485
 1249loPI    C319643   4.458   6.898   3.948 -0.4260 -0.1138 -0.0218
 1249loPI   PO419644   4.329   7.018   4.581  0.0501 -0.0565 -0.0841
 1249loPI   GL119645   4.289   6.966   5.038 -0.1585  0.0257 -0.0978
 1249loPI   GL219646   3.905   6.979   5.026  0.1290  0.1594 -0.1084
 1249loPI   C1A19647   4.460   6.819   5.406 -0.0912  0.1702  0.0987
 1249loPI   C2A19648   4.281   6.783   5.837 -0.2080  0.0772  0.1944
 1249loPI   C3A19649   4.186   7.050   6.173  0.1081 -0.1587  0.4104
 1249loPI   C4A19650   4.204   7.317   6.589 -0.2304 -0.0613  0.2476
 1249loPI   C5A19651   4.219   7.673   6.639 -0.3277  0.0611 -0.1602
 1249loPI   C6A19652   4.226   8.079   7.001  0.0657  0.0331 -0.1663
 1249loPI   C1B19653   3.992   6.950   5.450  0.0703  0.1659  0.0097
 1249loPI   C2B19654   3.788   6.912   5.856 -0.3409  0.1781  0.0391
 1249loPI   C3B19655   3.493   6.898   6.280 -0.0950  0.1609 -0.0528
 1249loPI   C4B19656   3.159   6.721   6.200  0.0833  0.0377  0.1970
 1250loPI    C119657   9.429  12.319   4.887 -0.0590 -0.1506 -0.0252
 1250loPI    C219658   9.114  12.348   5.132  0.0556  0.0286  0.1028
 1250loPI    C319659   9.076  12.442   4.745 -0.0268  0.1366  0.1366
 1250loPI   PO419660   9.607  12.412   5.002  0.0700  0.0813  0.0489
 1250loPI   GL119661   9.847  12.822   5.236 -0.1386  0.3847  0.3009
 1250loPI   GL219662   9.916  13.059   5.491  0.1150 -0.0231  0.1141
 1250loPI   C1A19663   9.971  12.590   5.663 -0.2352  0.0104  0.1871
 1250loPI   C2A19664   9.932  12.425   6.175 -0.2549  0.1049 -0.0765
 1250loPI   C3A19665  10.106  12.567   6.543 -0.2909  0.1134  0.1438
 1250loPI   C4A19666   9.926  12.587   6.889  0.0973  0.0254 -0.1516
 1250loPI   C5A19667   9.965  12.991   7.154 -0.2610  0.2299 -0.1041
 1250loPI   C6A19668   9.707  13.260   7.314  0.2564  0.0705  0.1994
 1250loPI   C1B19669  10.163  13.034   5.868  0.0447  0.3382 -0.1032
 1250loPI   C2B19670  10.311  13.037   6.228 -0.0010  0.3003 -0.0582
 1250loPI   C3B19671  10.509  13.130   6.595  0.0546 -0.1509  0.0227
 1250loPI   C4B19672  10.443  13.234   6.942  0.0839 -0.0922  0.2207
 1251loPI    C119673   3.445  13.695   4.944 -0.3052  0.2920  0.0699
 1251loPI    C219674   3.342  13.312   4.995 -0.1575  0.2597  0.1315
 1251loPI    C319675   3.676  13.404   4.797 -0.0955  0.3509  0.2770
 1251loPI   PO419676   3.502  13.856   5.183 -0.0319  0.1146 -0.0678
 1251loPI   GL119677   3.699  13.874   5.583 -0.1071 -0.1681  0.1547
 1251loPI   GL219678   4.006  13.771   5.689  0.2386  0.0952  0.1409
 1251loPI   C1A19679   3.536  14.158   5.897  0.4298 -0.0712 -0.1587
 1251loPI   C2A19680   3.499  14.296   6.371 -0.3733 -0.0405 -0.1693
 1251loPI   C3A19681   3.463  14.491   6.800  0.0550  0.2108  0.1952
 1251loPI   C4A19682   3.325  14.507   7.196  0.0362  0.0708  0.0055
 1251loPI   C5A19683   3.049  14.317   7.391 -0.1971  0.0758  0.4321
 1251loPI   C6A19684   3.029  13.917   7.489 -0.0483 -0.2111 -0.0285
 1251loPI   C1B19685   3.795  13.768   6.093 -0.1024 -0.1758  0.3771
 1251loPI   C2B19686   3.758  13.739   6.542 -0.1040  0.1044  0.2805
 1251loPI   C3B19687   3.725  13.576   6.925  0.5282 -0.0382 -0.1512
 1251loPI   C4B19688   3.724  13.722   7.334 -0.1009 -0.1826 -0.0511
 1252loPI    C119689   8.644   7.600   5.096  0.1782  0.0628  0.1235
 1252loPI    C219690   8.802   7.862   4.838  0.0848 -0.0051 -0.0041
 1252loPI    C319691   9.025   7.562   4.981  0.2411  0.2374  0.2711
 1252loPI   PO419692   8.424   7.452   4.977 -0.2587  0.0550  0.0943
 1252loPI   GL119693   8.196   7.207   5.274  0.1375 -0.2085 -0.1565
 1252loPI   GL219694   7.934   7.300   5.472 -0.2086  0.0426  0.2149
 1252loPI   C1A19695   8.414   6.972   5.579  0.1046 -0.2164  0.2079
 1252loPI   C2A19696   8.578   6.986   5.993 -0.0692  0.1971  0.0743
 1252loPI   C3A19697   8.369   6.879   6.322  0.2942  0.0243  0.2241
 1252loPI   C4A19698   8.035   6.921   6.527  0.1516  0.3500  0.2717
 1252loPI   C5A19699   7.756   7.199   6.697 -0.1513  0.0693 -0.1803
 1252loPI   C6A19700   7.548   7.310   7.106  0.4952  0.0811 -0.2442
 1252loPI   C1B19701   7.613   7.251   5.811 -0.1495  0.0213  0.0101
 1252loPI   C2B19702   7.473   7.236   6.216 -0.0519  0.4916 -0.3900
 1252loPI   C3B19703   7.355   7.460   6.596 -0.1085  0.1439 -0.1813
 1252loPI   C4B19704   7.468   7.726   6.886  0.0828 -0.1882 -0.2129
 1253loPI    C119705   2.372   5.099   4.730 -0.2040 -0.0009  0.0459
 1253loPI    C219706   2.738   4.958   4.651 -0.1469  0.1848 -0.0261
 1253loPI    C319707   2.440   4.899   4.390 -0.1826 -0.0127  0.0571
 1253loPI   PO419708   2.343   5.057   4.935 -0.1208 -0.1378  0.0411
 1253loPI   GL119709   2.370   4.934   5.354 -0.1346 -0.0672 -0.0288
 1253loPI   GL219710   2.224   4.720   5.531 -0.0879  0.1816 -0.0487
 1253loPI   C1A19711   2.459   5.106   5.726 -0.5518  0.2335 -0.3467
 1253loPI   C2A19712   2.362   5.076   6.178 -0.1380  0.2040  0.3553
 1253loPI   C3A19713   2.195   4.973   6.610 -0.1003  0.0728  0.1084
 1253loPI   C4A19714   2.283   4.592   6.837 -0.0059  0.0027  0.0460
 1253loPI   C5A19715   2.468   4.323   6.982  0.0226 -0.0147 -0.4512
 1253loPI   C6A19716   2.319   4.056   7.341  0.1730 -0.0324  0.3846
 1253loPI   C1B19717   2.146   4.691   5.985  0.0973 -0.0182  0.1046
 1253loPI   C2B19718   2.063   4.529   6.353  0.0566 -0.1401 -0.2342
 1253loPI   C3B19719   2.006   4.203   6.691  0.3471  0.1890 -0.0939
 1253loPI   C4B19720   1.941   3.899   7.051 -0.0024  0.3215 -0.1402
 1254loPI    C119721   8.115   6.245   4.377 -0.0760 -0.0136 -0.1455
 1254loPI    C219722   7.887   6.306   4.054 -0.2251  0.0494 -0.0295
 1254loPI    C319723   8.126   6.597   4.189 -0.1966  0.0384 -0.0559
 1254loPI   PO419724   7.964   6.094   4.646 -0.0408  0.3960 -0.0605
 1254loPI   GL119725   8.027   5.907   5.055  0.1554 -0.2860 -0.1248
 1254loPI   GL219726   7.702   5.825   5.160 -0.2284  0.2004 -0.0680
 1254loPI   C1A19727   8.117   6.049   5.493  0.0935 -0.0496  0.1642
 1254loPI   C2A19728   8.145   6.052   5.866 -0.0447  0.1912 -0.1864
 1254loPI   C3A19729   8.182   5.976   6.300 -0.2405 -0.2002  0.3075
 1254loPI   C4A19730   8.174   5.885   6.765 -0.0149  0.1428  0.1764
 1254loPI   C5A19731   7.871   5.725   7.063 -0.0407  0.2102 -0.2655
 1254loPI   C6A19732   7.484   5.647   7.323 -0.1093 -0.0211 -0.0264
 1254loPI   C1B19733   7.598   5.921   5.613  0.0549  0.1265  0.2090
 1254loPI   C2B19734   7.633   6.037   6.114 -0.1430  0.2903 -0.0009
 1254loPI   C3B19735   7.764   6.138   6.484  0.0173 -0.3674 -0.1512
 1254loPI   C4B19736   7.610   6.211   6.878  0.0756  0.2183 -0.0283
 1255loPI    C119737  14.187   4.855   5.017  0.0001 -0.0992  0.1911
 1255loPI    C219738  13.830   5.033   5.049  0.0201  0.0128 -0.1603
 1255loPI    C319739  13.975   4.940   4.688  0.3921  0.0601 -0.0280
 1255loPI   PO419740  14.281   4.977   5.249  0.2365  0.1140 -0.0531
 1255loPI   GL119741  14.499   4.776   5.490 -0.0893 -0.0148 -0.0078
 1255loPI   GL219742  14.478   4.410   5.602 -0.0064 -0.3558 -0.1429
 1255loPI   C1A19743  14.560   4.826   5.969 -0.2434  0.0421 -0.1679
 1255loPI   C2A19744  14.703   4.757   6.373  0.1147 -0.1149  0.3063
 1255loPI   C3A19745  14.779   4.929   6.755 -0.4304  0.1125 -0.1787
 1255loPI   C4A19746  14.686   4.790   7.121  0.0545 -0.0296  0.1246
 1255loPI   C5A19747  14.267   4.807   7.405 -0.0122  0.0598  0.0071
 1255loPI   C6A19748  13.888   5.104   7.542 -0.1321  0.0104  0.0371
 1255loPI   C1B19749  14.333   4.305   6.057  0.2981 -0.2322 -0.0232
 1255loPI   C2B19750  14.253   4.534   6.376 -0.0117  0.1270  0.0428
 1255loPI   C3B19751  14.331   4.651   6.720  0.1299  0.2766  0.0723
 1255loPI   C4B19752  14.220   4.925   6.937 -0.1781  0.2138  0.3026
 1256loPI    C119753   4.705   0.477   4.986 -0.3231  0.1669 -0.1675
 1256loPI    C219754   4.741   0.486   4.588  0.1132  0.2570 -0.1312
 1256loPI    C319755   4.912   0.771   4.810  0.0009  0.1233  0.1308
 1256loPI   PO419756   4.405   0.311   5.054  0.1119 -0.2544  0.2127
 1256loPI   GL119757   4.395   0.164   5.455  0.4588  0.1951  0.2354
 1256loPI   GL219758   4.260   0.487   5.544 -0.2707 -0.1026 -0.0675
 1256loPI   C1A19759   4.584  -0.021   5.834 -0.1734 -0.0918 -0.1583
 1256loPI   C2A19760   4.681  -0.312   6.162 -0.0367  0.0051 -0.1333
 1256loPI   C3A19761   4.825  -0.243   6.551 -0.2012 -0.0797 -0.0390
 1256loPI   C4A19762   4.898  -0.076   6.954 -0.2048 -0.0960  0.0390
 1256loPI   C5A19763   4.880   0.197   7.133  0.2137  0.1205 -0.0643
 1256loPI   C6A19764   4.743   0.388   7.473 -0.1920  0.0478 -0.0988
 1256loPI   C1B19765   4.348   0.472   6.027  0.4671 -0.1257  0.0439
 1256loPI   C2B19766   4.352   0.581   6.389 -0.1481  0.0039 -0.0395
 1256loPI   C3B19767   4.184   0.405   6.759 -0.1632  0.0009  0.0782
 1256loPI   C4B19768   4.429   0.352   7.040 -0.3048 -0.1034 -0.2765
 1257loPI    C119769   3.235  11.752   4.978 -0.1830  0.1041  0.1246
 1257loPI    C219770   3.279  12.148   5.022 -0.0059  0.1004 -0.0064
 1257loPI    C319771   2.956  12.001   4.836 -0.0960  0.1802  0.0858
 1257loPI   PO419772   3.361  11.646   5.187 -0.0638 -0.2746 -0.0100
 1257loPI   GL119773   3.220  11.521   5.575  0.1785  0.2745 -0.3525
 1257loPI   GL219774   2.937  11.549   5.470  0.0842  0.0562 -0.1491
 1257loPI   C1A19775   3.177  11.446   5.998 -0.1040 -0.3265 -0.0403
 1257loPI   C2A19776   3.169  11.530   6.451 -0.1409  0.0053  0.1168
 1257loPI   C3A19777   3.089  11.361   6.772 -0.1291 -0.1711 -0.1540
 1257loPI   C4A19778   3.129  11.651   7.038  0.0610  0.2852 -0.0709
 1257loPI   C5A19779   2.825  11.533   7.307 -0.0624  0.3054 -0.0443
 1257loPI   C6A19780   2.716  11.429   7.638  0.2250  0.1094 -0.1839
 1257loPI   C1B19781   2.751  11.681   5.945 -0.3556  0.2127  0.0063
 1257loPI   C2B19782   2.679  11.684   6.334 -0.0865  0.1766 -0.3514
 1257loPI   C3B19783   2.780  11.805   6.697 -0.0005  0.3982 -0.0768
 1257loPI   C4B19784   2.686  11.901   7.036 -0.1013  0.2662  0.2366
 1258loPI    C119785  14.109   9.477   4.845  0.0968 -0.1965  0.0473
 1258loPI    C219786  13.860   9.667   4.597  0.1513 -0.0980  0.0677
 1258loPI    C319787  14.148   9.433   4.449  0.0344 -0.2288  0.0447
 1258loPI   PO419788  14.143   9.637   5.034  0.2031 -0.0579  0.1905
 1258loPI   GL119789  14.010   9.533   5.334  0.1091  0.1616  0.3282
 1258loPI   GL219790  13.726   9.335   5.385 -0.1041  0.1218 -0.0028
 1258loPI   C1A19791  14.054   9.621   5.699 -0.1533 -0.0550 -0.3024
 1258loPI   C2A19792  13.872   9.642   6.104 -0.1971 -0.0208  0.0124
 1258loPI   C3A19793  13.763   9.774   6.561 -0.1262  0.1757  0.1192
 1258loPI   C4A19794  13.677   9.805   7.010  0.0124 -0.3579 -0.1519
 1258loPI   C5A19795  13.286   9.979   7.149  0.0320  0.1939  0.0103
 1258loPI   C6A19796  12.981  10.313   7.434 -0.0087 -0.0947  0.0695
 1258loPI   C1B19797  13.698   9.250   5.840  0.0307  0.0076  0.1880
 1258loPI   C2B19798  13.504   9.259   6.255  0.2820 -0.0974  0.0468
 1258loPI   C3B19799  13.461   9.300   6.815  0.1366  0.0149  0.0632
 1258loPI   C4B19800  13.259   9.461   7.131 -0.2843  0.0831 -0.1139
 1259loPI    C119801   3.091   7.460   4.858 -0.0366 -0.1610  0.3318
 1259loPI    C219802   2.720   7.592   4.789 -0.0419 -0.2729  0.1391
 1259loPI    C319803   2.819   7.216   4.697  0.1937 -0.1643 -0.0652
 1259loPI   PO419804   3.084   7.601   5.111 -0.0495 -0.1305  0.1749
 1259loPI   GL119805   3.299   7.920   5.398  0.1508  0.2121  0.0376
 1259loPI   GL219806   3.523   7.833   5.402  0.1614  0.0858 -0.0024
 1259loPI   C1A19807   3.064   8.160   5.830  0.1192 -0.0241  0.0506
 1259loPI   C2A19808   2.912   8.097   6.199 -0.0169 -0.2278 -0.0782
 1259loPI   C3A19809   2.837   8.031   6.703  0.3846 -0.0038 -0.0037
 1259loPI   C4A19810   2.803   7.927   7.145 -0.0868  0.1469  0.5109
 1259loPI   C5A19811   2.596   7.968   7.529 -0.0181  0.1594  0.0297
 1259loPI   C6A19812   2.667   8.213   7.833  0.0518  0.0992 -0.0853
 1259loPI   C1B19813   3.441   7.727   5.880  0.1959  0.1306 -0.0400
 1259loPI   C2B19814   3.301   7.499   6.229 -0.1864  0.0088 -0.0056
 1259loPI   C3B19815   3.236   7.717   6.571  0.2029 -0.0246  0.0965
 1259loPI   C4B19816   3.270   7.732   7.012  0.1394 -0.3405  0.0280
 1260loPI    C119817  15.650  15.405   4.974  0.0602 -0.0049  0.0148
 1260loPI    C219818  15.653  15.589   4.619  0.1233 -0.1223 -0.0460
 1260loPI    C319819  15.981  15.400   4.750  0.0083 -0.3356 -0.0605
 1260loPI   PO419820  15.509  15.147   4.987 -0.3340  0.2273  0.0589
 1260loPI   GL119821  15.237  15.198   5.401 -0.2929  0.0520 -0.2487
 1260loPI   GL219822  14.984  15.075   5.586 -0.1381  0.3419  0.0342
 1260loPI   C1A19823  15.567  15.042   5.779 -0.0359  0.0457 -0.1571
 1260loPI   C2A19824  15.605  15.034   6.200 -0.0989 -0.0665  0.3138
 1260loPI   C3A19825  15.597  15.126   6.640  0.0104  0.4608 -0.1281
 1260loPI   C4A19826  15.578  15.177   7.094 -0.0539 -0.0821 -0.3595
 1260loPI   C5A19827  15.589  15.191   7.546 -0.0113 -0.1346 -0.1072
 1260loPI   C6A19828  15.477  15.149   8.001 -0.1754 -0.0435 -0.0845
 1260loPI   C1B19829  15.114  14.929   5.990  0.0165 -0.3061  0.0464
 1260loPI   C2B19830  15.186  14.927   6.382 -0.2219  0.1272  0.2196
 1260loPI   C3B19831  15.134  14.979   6.788 -0.1250  0.4350  0.0723
 1260loPI   C4B19832  15.027  15.111   7.133  0.2479  0.3176  0.5916
 1261loPI    C119833  11.276   4.517   4.806  0.0057 -0.1578  0.1465
 1261loPI    C219834  10.929   4.503   4.608  0.0568 -0.0207  0.0453
 1261loPI    C319835  11.251   4.318   4.460  0.0545 -0.0557  0.0838
 1261loPI   PO419836  11.209   4.448   5.046 -0.0434 -0.1031 -0.1098
 1261loPI   GL119837  11.267   4.549   5.395 -0.0118  0.0042 -0.0494
 1261loPI   GL219838  11.202   4.807   5.393 -0.0783 -0.0208  0.1881
 1261loPI   C1A19839  11.393   4.660   5.916  0.1850  0.0914  0.1006
 1261loPI   C2A19840  11.122   4.754   6.287 -0.0832 -0.2188 -0.3158
 1261loPI   C3A19841  11.096   4.752   6.777  0.3165  0.1411  0.1519
 1261loPI   C4A19842  11.243   4.980   7.176  0.1467  0.0877 -0.0397
 1261loPI   C5A19843  11.301   5.408   7.422  0.3427 -0.1598 -0.1102
 1261loPI   C6A19844  11.507   5.703   7.282  0.0487 -0.2316 -0.1904
 1261loPI   C1B19845  10.957   4.874   5.740 -0.2880 -0.1078 -0.0375
 1261loPI   C2B19846  11.000   5.159   6.053 -0.2826  0.2828  0.1236
 1261loPI   C3B19847  11.195   5.232   6.436  0.0682  0.1498 -0.0321
 1261loPI   C4B19848  11.373   5.512   6.791 -0.0168  0.1756  0.3291
 1262loPI    C119849   3.008  17.917   4.737 -0.0809 -0.1499  0.2751
 1262loPI    C219850   3.317  17.887   4.485 -0.1462 -0.0136  0.1770
 1262loPI    C319851   2.945  17.915   4.342 -0.1841  0.0602  0.2889
 1262loPI   PO419852   3.073  17.741   4.986  0.1215  0.0457  0.2975
 1262loPI   GL119853   2.812  17.607   5.294  0.0542 -0.0766  0.0941
 1262loPI   GL219854   2.604  17.824   5.317 -0.1017 -0.0144  0.0183
 1262loPI   C1A19855   2.647  17.466   5.666  0.1447  0.2265 -0.1207
 1262loPI   C2A19856   2.500  17.260   6.016 -0.0573 -0.1907 -0.1376
 1262loPI   C3A19857   2.528  17.065   6.316 -0.2680 -0.2069 -0.2162
 1262loPI   C4A19858   2.466  17.113   6.764 -0.1619 -0.0305 -0.1519
 1262loPI   C5A19859   2.465  17.194   7.195  0.1665  0.2305  0.0017
 1262loPI   C6A19860   2.369  17.051   7.611  0.1987 -0.0767 -0.1398
 1262loPI   C1B19861   2.515  18.142   5.658 -0.2637 -0.4059  0.3330
 1262loPI   C2B19862   2.694  18.329   5.982  0.0349  0.0648 -0.1650
 1262loPI   C3B19863   2.921  18.214   6.313  0.2925 -0.0244 -0.2532
 1262loPI   C4B19864   3.116  17.870   6.470 -0.0548 -0.0775  0.1251
 1263loPI    C119865   8.021   3.402   5.041 -0.0692 -0.2301 -0.0273
 1263loPI    C219866   7.959   3.419   4.646  0.0741  0.1709 -0.0369
 1263loPI    C319867   7.648   3.401   4.896 -0.0241  0.1641 -0.1586
 1263loPI   PO419868   8.083   3.707   5.045 -0.0762 -0.1322  0.2023
 1263loPI   GL119869   8.119   3.949   5.429  0.2306  0.1025  0.0909
 1263loPI   GL219870   8.161   4.281   5.543  0.3587 -0.1217  0.0973
 1263loPI   C1A19871   8.142   3.765   5.894 -0.0101 -0.1493 -0.0756
 1263loPI   C2A19872   8.087   3.567   6.257 -0.1362  0.2315 -0.1069
 1263loPI   C3A19873   8.419   3.335   6.605  0.0112 -0.2071 -0.0431
 1263loPI   C4A19874   8.524   3.410   6.929  0.0940  0.2222 -0.1066
 1263loPI   C5A19875   8.512   3.685   7.338 -0.0416  0.1988 -0.1512
 1263loPI   C6A19876   8.533   4.109   7.746 -0.1264 -0.0407  0.0539
 1263loPI   C1B19877   8.445   4.229   5.871  0.3031 -0.4221  0.0404
 1263loPI   C2B19878   8.630   4.287   6.329 -0.1272  0.2819  0.0644
 1263loPI   C3B19879   8.665   4.357   6.825 -0.1193 -0.2112 -0.3181
 1263loPI   C4B19880   8.839   4.419   7.241  0.1615 -0.3143  0.0191
 1264loPI    C119881   9.612  11.849   4.643  0.1972 -0.1405  0.0155
 1264loPI    C219882   9.282  12.002   4.475  0.1993  0.1405  0.2601
 1264loPI    C319883   9.475  11.701   4.297 -0.1175  0.0560  0.0511
 1264loPI   PO419884   9.450  11.795   4.926  0.1843 -0.4296  0.4852
 1264loPI   GL119885   9.586  12.072   5.360 -0.1579  0.0736 -0.2599
 1264loPI   GL219886   9.777  11.815   5.516 -0.0860  0.0712 -0.2367
 1264loPI   C1A19887   9.559  12.347   5.766  0.0471 -0.0942  0.3018
 1264loPI   C2A19888   9.387  12.491   6.225 -0.1766 -0.2433  0.1130
 1264loPI   C3A19889   9.465  12.654   6.622 -0.3477  0.2073 -0.0876
 1264loPI   C4A19890   9.574  13.050   6.782  0.1180  0.2761 -0.1411
 1264loPI   C5A19891   9.397  13.303   6.945  0.0628 -0.0547 -0.1227
 1264loPI   C6A19892   9.575  13.697   7.168 -0.1121  0.2556  0.1029
 1264loPI   C1B19893   9.883  11.659   5.974 -0.2042  0.1393  0.0450
 1264loPI   C2B19894   9.838  11.610   6.453  0.1612 -0.0526 -0.0756
 1264loPI   C3B19895   9.864  11.514   6.920  0.0098 -0.2359 -0.1144
 1264loPI   C4B19896   9.523  11.650   7.170 -0.0763  0.2645 -0.0783
 1265loPI    C119897   6.681  17.690   4.727  0.0668  0.0900  0.0067
 1265loPI    C219898   6.949  17.573   4.454 -0.1176  0.1568 -0.2066
 1265loPI    C319899   6.687  17.310   4.604 -0.0685  0.1382 -0.1530
 1265loPI   PO419900   6.834  17.839   4.894 -0.1172  0.0600  0.0785
 1265loPI   GL119901   7.114  17.880   5.191 -0.1590  0.2082 -0.0572
 1265loPI   GL219902   7.137  17.575   5.345  0.0157 -0.0924  0.1413
 1265loPI   C1A19903   7.139  18.026   5.542 -0.0782 -0.0053  0.0046
 1265loPI   C2A19904   7.141  18.019   6.017  0.3210 -0.0146 -0.0469
 1265loPI   C3A19905   7.156  18.025   6.500 -0.1582  0.0378  0.1007
 1265loPI   C4A19906   7.138  18.022   6.979 -0.0969  0.0348 -0.0614
 1265loPI   C5A19907   7.171  18.418   7.290  0.1149 -0.1042  0.2060
 1265loPI   C6A19908   7.330  18.863   7.303 -0.0091  0.0310 -0.0405
 1265loPI   C1B19909   6.883  17.587   5.627 -0.2967 -0.1838 -0.1571
 1265loPI   C2B19910   7.029  17.522   6.033  0.0214 -0.0382 -0.0732
 1265loPI   C3B19911   7.064  17.504   6.493 -0.2434  0.2223 -0.0833
 1265loPI   C4B19912   7.087  17.457   6.919  0.3673  0.0002 -0.0559
 1266loPI    C119913  16.912   7.433   4.570  0.0577 -0.1793 -0.2360
 1266loPI    C219914  17.069   7.798   4.520 -0.3838  0.0530  0.0062
 1266loPI    C319915  17.276   7.473   4.410  0.0244  0.3715 -0.1919
 1266loPI   PO419916  16.822   7.416   4.832  0.0415 -0.0642  0.0008
 1266loPI   GL119917  16.906   7.421   5.246  0.0193 -0.3734  0.1841
 1266loPI   GL219918  16.524   7.461   5.217 -0.2057  0.1668  0.0366
 1266loPI   C1A19919  16.816   7.362   5.675 -0.1722 -0.3766 -0.1585
 1266loPI   C2A19920  16.826   7.141   6.075 -0.1390  0.2154 -0.0153
 1266loPI   C3A19921  16.752   7.119   6.497  0.1859  0.0332  0.2524
 1266loPI   C4A19922  16.640   7.066   6.926  0.2251  0.0207 -0.0748
 1266loPI   C5A19923  16.463   6.947   7.344 -0.0906 -0.0069  0.0586
 1266loPI   C6A19924  16.421   7.261   7.629 -0.0742 -0.3254 -0.0372
 1266loPI   C1B19925  16.640   7.823   5.507  0.0777  0.0832  0.1834
 1266loPI   C2B19926  16.581   7.988   5.944  0.2192 -0.1344  0.0220
 1266loPI   C3B19927  16.683   8.282   6.349  0.1486  0.0423 -0.2675
 1266loPI   C4B19928  16.859   8.350   6.830  0.0629 -0.0228 -0.1397
 1267loPI    C119929   9.300   8.199   4.846 -0.0281 -0.1864 -0.2011
 1267loPI    C219930   8.991   8.368   4.657 -0.2124 -0.0057  0.2490
 1267loPI    C319931   9.346   8.552   4.665 -0.0907 -0.2024 -0.2482
 1267loPI   PO419932   9.191   8.127   5.019  0.3540  0.0648 -0.2484
 1267loPI   GL119933   9.214   8.221   5.443  0.4179 -0.1898 -0.1808
 1267loPI   GL219934   9.447   8.030   5.583 -0.0418  0.0390  0.1364
 1267loPI   C1A19935   9.143   8.244   5.934 -0.0070  0.4341  0.0853
 1267loPI   C2A19936   9.256   8.322   6.360 -0.2878  0.1645  0.0877
 1267loPI   C3A19937   9.258   8.168   6.851  0.0895  0.2509  0.0037
 1267loPI   C4A19938   9.222   8.318   7.294 -0.1531  0.1574  0.3463
 1267loPI   C5A19939   9.185   8.732   7.559  0.0407 -0.0208  0.1032
 1267loPI   C6A19940   9.161   8.780   7.993 -0.0599 -0.0469  0.1128
 1267loPI   C1B19941   9.619   7.795   5.800 -0.2201  0.4624 -0.3152
 1267loPI   C2B19942   9.994   7.657   6.072 -0.0077 -0.0477 -0.1769
 1267loPI   C3B19943  10.035   7.343   6.388  0.0748  0.2189 -0.2075
 1267loPI   C4B19944   9.761   7.216   6.702 -0.0293  0.0458 -0.0247
 1268loPI    C119945   4.486   5.931   4.436 -0.0210  0.1019  0.1493
 1268loPI    C219946   4.831   6.033   4.263 -0.1211 -0.3626 -0.3508
 1268loPI    C319947   4.806   5.695   4.475 -0.1322 -0.0474  0.1679
 1268loPI   PO419948   4.382   6.065   4.654  0.2508 -0.0274 -0.1070
 1268loPI   GL119949   4.576   5.825   4.980 -0.1072  0.1311  0.1534
 1268loPI   GL219950   4.887   5.761   4.982 -0.3035  0.0099 -0.1491
 1268loPI   C1A19951   4.469   5.793   5.419  0.0167 -0.2063  0.0572
 1268loPI   C2A19952   4.482   5.811   5.839 -0.0494  0.0498  0.0168
 1268loPI   C3A19953   4.390   5.808   6.300  0.3295 -0.1385 -0.1217
 1268loPI   C4A19954   4.414   5.840   6.723  0.3577  0.1367  0.1912
 1268loPI   C5A19955   4.387   6.042   7.147  0.0149 -0.0482  0.2671
 1268loPI   C6A19956   3.980   6.085   7.277 -0.1585  0.0397 -0.1677
 1268loPI   C1B19957   4.950   5.852   5.440 -0.2379  0.3102  0.0228
 1268loPI   C2B19958   4.957   6.137   5.749  0.2123  0.1246 -0.2189
 1268loPI   C3B19959   4.802   6.257   6.188 -0.0614 -0.3192  0.1457
 1268loPI   C4B19960   4.598   6.362   6.572 -0.0436  0.2883  0.1967
 1269loPI    C119961   3.115   2.250   4.587  0.1563 -0.0269 -0.1216
 1269loPI    C219962   2.975   2.585   4.419 -0.0822 -0.1420 -0.1566
 1269loPI    C319963   2.939   2.235   4.227 -0.0565 -0.2242 -0.0124
 1269loPI   PO419964   3.305   2.320   4.724  0.0264  0.1094 -0.1169
 1269loPI   GL119965   3.115   2.535   5.152  0.0124  0.1676  0.2525
 1269loPI   GL219966   3.195   2.263   5.215  0.0457  0.2310 -0.1823
 1269loPI   C1A19967   2.945   2.737   5.531 -0.1522 -0.0022  0.0688
 1269loPI   C2A19968   2.664   3.016   5.800  0.2096  0.4531 -0.1281
 1269loPI   C3A19969   2.428   3.051   6.106  0.0329 -0.0173 -0.0190
 1269loPI   C4A19970   2.224   3.030   6.419 -0.2848 -0.1791 -0.0477
 1269loPI   C5A19971   2.209   2.951   6.830 -0.2724  0.0165 -0.2164
 1269loPI   C6A19972   2.007   3.146   7.219 -0.2405  0.0058  0.0890
 1269loPI   C1B19973   2.904   2.129   5.575  0.2687  0.2345  0.2352
 1269loPI   C2B19974   2.826   2.392   5.871  0.1181  0.0350  0.0641
 1269loPI   C3B19975   2.881   2.677   6.093 -0.0721 -0.2900  0.0087
 1269loPI   C4B19976   2.700   2.844   6.475 -0.1512 -0.3512  0.0852
 1270loPI    C119977   7.347   9.623   4.966  0.1658 -0.0335 -0.0477
 1270loPI    C219978   7.514   9.985   4.993 -0.1029  0.0871  0.0249
 1270loPI    C319979   7.620   9.738   4.698  0.3570  0.0776  0.1902
 1270loPI   PO419980   7.126   9.694   5.111 -0.0395 -0.0956  0.0181
 1270loPI   GL119981   7.192  10.040   5.374 -0.1878 -0.4471 -0.0038
 1270loPI   GL219982   7.541   9.949   5.488  0.0927 -0.0072 -0.1591
 1270loPI   C1A19983   7.145  10.419   5.701  0.1324  0.0278  0.2798
 1270loPI   C2A19984   7.114  10.698   6.004 -0.1677 -0.2268 -0.0297
 1270loPI   C3A19985   7.039  10.689   6.394  0.0736  0.3192 -0.1109
 1270loPI   C4A19986   6.870  10.336   6.672  0.4145  0.0270  0.0452
 1270loPI   C5A19987   6.618  10.218   6.964 -0.0054  0.1072  0.0423
 1270loPI   C6A19988   6.511   9.810   7.150 -0.1108  0.4201 -0.1142
 1270loPI   C1B19989   7.316   9.912   5.866 -0.2242  0.0374 -0.1863
 1270loPI   C2B19990   7.303   9.972   6.327 -0.2370 -0.0395  0.0522
 1270loPI   C3B19991   7.082   9.900   6.667 -0.0297 -0.1145 -0.0721
 1270loPI   C4B19992   6.861   9.570   6.853  0.3107 -0.1563  0.0432
 1271loPI    C119993   2.754   0.009   4.663  0.0307 -0.0670  0.0907
 1271loPI    C219994   2.759  -0.253   4.362 -0.3565  0.0684 -0.0407
 1271loPI    C319995   2.950   0.096   4.326 -0.1132 -0.0573  0.0084
 1271loPI   PO419996   2.837  -0.125   4.893  0.0429  0.0586  0.1341
 1271loPI   GL119997   2.903  -0.155   5.256 -0.0735 -0.0823  0.2197
 1271loPI   GL219998   2.727  -0.482   5.348 -0.1667 -0.1583 -0.1018
 1271loPI   C1A19999   2.966   0.172   5.649  0.2050 -0.2191  0.0128
 1271loPI   C2A20000   3.126   0.051   6.046  0.1462 -0.1955  0.0125
 1271loPI   C3A20001   3.312   0.248   6.461 -0.0003 -0.0992 -0.1022
 1271loPI   C4A20002   3.581   0.414   6.705  0.2120  0.1466 -0.1802
 1271loPI   C5A20003   3.788   0.506   7.014 -0.1855  0.2424 -0.4488
 1271loPI   C6A20004   4.007   0.307   7.308  0.3176  0.0377 -0.0910
 1271loPI   C1B20005   2.707  -0.306   5.767 -0.1785  0.1302 -0.0272
 1271loPI   C2B20006   2.611  -0.106   5.981 -0.1548 -0.0684 -0.2738
 1271loPI   C3B20007   2.178   0.049   6.137  0.1007  0.2479 -0.0475
 1271loPI   C4B20008   1.976   0.359   6.374  0.2306  0.2226  0.2538
 1272loPI    C120009  17.975   0.809   4.904  0.1469  0.1455 -0.1219
 1272loPI    C220010  18.096   0.762   4.525  0.0175  0.1116 -0.1597
 1272loPI    C320011  17.727   0.652   4.633  0.0979 -0.0010  0.0066
 1272loPI   PO420012  18.157   0.785   5.088 -0.2041  0.0242 -0.2653
 1272loPI   GL120013  18.278   0.967   5.357  0.1929 -0.1257 -0.0377
 1272loPI   GL220014  18.105   1.297   5.205 -0.1258  0.2497  0.0750
 1272loPI   C1A20015  18.210   0.894   5.831  0.1098 -0.1695  0.0845
 1272loPI   C2A20016  18.049   0.888   6.306 -0.0964 -0.2191  0.1127
 1272loPI   C3A20017  18.118   0.936   6.745  0.3189  0.2800  0.1578
 1272loPI   C4A20018  17.946   1.101   7.032 -0.0095 -0.3906 -0.1286
 1272loPI   C5A20019  17.886   1.080   7.424  0.1331 -0.0315  0.0971
 1272loPI   C6A20020  17.931   1.032   7.831 -0.0124  0.1095  0.1442
 1272loPI   C1B20021  18.011   1.538   5.581  0.2974 -0.1148 -0.1731
 1272loPI   C2B20022  18.027   1.419   6.050 -0.1036  0.2167  0.0072
 1272loPI   C3B20023  18.042   1.371   6.604  0.0774 -0.0572  0.2708
 1272loPI   C4B20024  18.367   1.356   6.981  0.0250 -0.1724  0.4891
 1273loPI    C120025   5.024  16.128   4.542  0.0676 -0.0305  0.1369
 1273loPI    C220026   5.344  16.350   4.451 -0.0181  0.0306 -0.0181
 1273loPI    C320027   5.014  16.525   4.594  0.0647 -0.0482  0.2750
 1273loPI   PO420028   5.137  15.930   4.706 -0.1078  0.0819  0.0796
 1273loPI   GL120029   5.074  15.777   5.220 -0.1644  0.4946 -0.0542
 1273loPI   GL220030   5.171  16.077   5.420 -0.2102  0.1297 -0.3032
 1273loPI   C1A20031   5.062  15.507   5.630 -0.1300  0.1328  0.2393
 1273loPI   C2A20032   5.291  15.224   5.802  0.2659  0.0948 -0.4829
 1273loPI   C3A20033   5.286  15.032   6.119 -0.2900 -0.0710 -0.2051
 1273loPI   C4A20034   5.476  14.684   6.360 -0.0864  0.1160 -0.3439
 1273loPI   C5A20035   5.454  14.606   6.755  0.3034 -0.0980 -0.0795
 1273loPI   C6A20036   5.485  14.394   7.147 -0.2482  0.2365 -0.1780
 1273loPI   C1B20037   5.246  16.110   5.819 -0.2008 -0.1136  0.4024
 1273loPI   C2B20038   5.286  15.918   6.224 -0.0252  0.0551 -0.0842
 1273loPI   C3B20039   5.328  15.829   6.731 -0.1953 -0.3321  0.3682
 1273loPI   C4B20040   5.409  15.949   7.196  0.1914  0.2456 -0.2322
 1274loPI    C120041  18.895  16.504   4.939 -0.0280  0.0998 -0.0763
 1274loPI    C220042  18.899  16.469   4.541  0.0682  0.1150 -0.0769
 1274loPI    C320043  18.571  16.603   4.727  0.0040  0.0552 -0.1464
 1274loPI   PO420044  18.967  16.322   5.011  0.2345 -0.0853 -0.1961
 1274loPI   GL120045  18.968  16.321   5.435  0.2620  0.0223 -0.3620
 1274loPI   GL220046  18.792  16.541   5.450 -0.2002  0.2983 -0.1119
 1274loPI   C1A20047  19.236  16.315   5.774 -0.2203 -0.2786 -0.1044
 1274loPI   C2A20048  19.380  16.206   6.140 -0.0018 -0.1507  0.2639
 1274loPI   C3A20049  19.330  16.275   6.598  0.2958  0.0677 -0.3828
 1274loPI   C4A20050  19.470  16.281   7.112 -0.3699  0.1134  0.1924
 1274loPI   C5A20051  19.276  16.498   7.379  0.2781 -0.2193  0.0492
 1274loPI   C6A20052  19.125  16.511   7.823  0.5153  0.0851  0.2125
 1274loPI   C1B20053  18.928  16.714   5.774 -0.1824  0.1061 -0.2267
 1274loPI   C2B20054  18.983  16.667   6.163 -0.2358 -0.2446 -0.2521
 1274loPI   C3B20055  18.976  16.693   6.618  0.0242 -0.1384  0.0700
 1274loPI   C4B20056  18.960  16.496   6.932 -0.0999 -0.1184 -0.0092
 1275loPI    C120057   2.313   7.827   4.618  0.0327  0.0368  0.1533
 1275loPI    C220058   2.272   7.855   4.221  0.0171  0.1892  0.1651
 1275loPI    C320059   2.207   7.505   4.404 -0.1015  0.1490  0.0487
 1275loPI   PO420060   2.131   8.124   4.684 -0.1711  0.0605  0.2644
 1275loPI   GL120061   2.071   8.286   5.123 -0.3502  0.1044  0.0191
 1275loPI   GL220062   1.891   8.452   5.187  0.1051  0.2343  0.2719
 1275loPI   C1A20063   2.304   8.043   5.475  0.5942 -0.0747  0.2277
 1275loPI   C2A20064   2.469   7.901   5.824  0.0283 -0.0731  0.1372
 1275loPI   C3A20065   2.366   7.936   6.303  0.0482  0.2751 -0.3009
 1275loPI   C4A20066   2.296   7.855   6.785 -0.1445 -0.0318 -0.0381
 1275loPI   C5A20067   2.266   7.815   7.196 -0.2373  0.3093  0.1983
 1275loPI   C6A20068   1.864   7.653   7.357 -0.0268 -0.1191 -0.1912
 1275loPI   C1B20069   1.744   8.069   5.394  0.4544 -0.1470  0.3522
 1275loPI   C2B20070   1.590   7.848   5.685  0.0909  0.1088 -0.1602
 1275loPI   C3B20071   1.441   7.938   6.093 -0.4041  0.0130  0.1391
 1275loPI   C4B20072   1.390   7.944   6.449  0.0623  0.0038  0.0281
 1276loPI    C120073  18.272  14.070   4.537  0.0523 -0.1586 -0.0559
 1276loPI    C220074  18.575  13.916   4.327 -0.1439 -0.4914 -0.1025
 1276loPI    C320075  18.211  13.940   4.164 -0.0931  0.1605 -0.1468
 1276loPI   PO420076  18.235  13.941   4.814  0.1041  0.2214 -0.1168
 1276loPI   GL120077  18.321  13.896   5.280  0.2486  0.3490  0.0266
 1276loPI   GL220078  18.121  14.162   5.226  0.1109  0.2259 -0.0747
 1276loPI   C1A20079  18.408  13.910   5.627 -0.1032 -0.1615 -0.1473
 1276loPI   C2A20080  18.226  13.770   5.991  0.0334  0.0809  0.0089
 1276loPI   C3A20081  18.046  13.646   6.406  0.1958  0.2272 -0.0761
 1276loPI   C4A20082  18.083  13.405   6.802 -0.0307  0.0122  0.1516
 1276loPI   C5A20083  18.295  13.343   7.178 -0.3414  0.4216  0.1856
 1276loPI   C6A20084  18.461  13.490   7.631 -0.1157  0.0856  0.0185
 1276loPI   C1B20085  18.057  14.303   5.740  0.1909 -0.1157 -0.0833
 1276loPI   C2B20086  18.208  14.324   6.173 -0.1518 -0.0547  0.1371
 1276loPI   C3B20087  18.365  14.151   6.506  0.0942  0.3380 -0.0422
 1276loPI   C4B20088  18.742  14.170   6.788  0.0412  0.0363 -0.1712
 1277loPI    C120089  18.315   1.188   4.513 -0.2108 -0.0928 -0.0526
 1277loPI    C220090  18.527   1.334   4.207 -0.2367  0.3038  0.1131
 1277loPI    C320091  18.140   1.429   4.246 -0.2776  0.1158  0.1755
 1277loPI   PO420092  18.341   1.156   4.764  0.0435  0.0260  0.0463
 1277loPI   GL120093  18.590   1.288   5.100  0.1041  0.0739  0.1446
 1277loPI   GL220094  18.701   0.998   5.043  0.0104 -0.0567  0.2001
 1277loPI   C1A20095  18.601   1.516   5.461  0.3948  0.0198 -0.2205
 1277loPI   C2A20096  18.499   1.658   5.856 -0.1461  0.2551 -0.0440
 1277loPI   C3A20097  18.421   1.680   6.263 -0.2169 -0.2941 -0.3273
 1277loPI   C4A20098  18.423   1.738   6.611 -0.2784  0.0358  0.2936
 1277loPI   C5A20099  18.404   1.942   7.027 -0.0606 -0.0969 -0.1147
 1277loPI   C6A20100  18.670   2.215   7.398  0.0671 -0.1389 -0.1938
 1277loPI   C1B20101  18.835   1.061   5.459 -0.0450 -0.1864 -0.1233
 1277loPI   C2B20102  18.750   1.169   5.879 -0.1827  0.2191 -0.1648
 1277loPI   C3B20103  18.540   1.223   6.183  0.0368 -0.3131 -0.1105
 1277loPI   C4B20104  18.520   1.192   6.573 -0.0881  0.2210  0.2060
 1278loPI    C120105   1.150   0.218   5.019  0.4275 -0.3147 -0.1050
 1278loPI    C220106   1.072  -0.072   4.754 -0.2046 -0.1508 -0.1141
 1278loPI    C320107   1.328   0.221   4.660  0.0452 -0.4227 -0.3012
 1278loPI   PO420108   0.876   0.217   5.147  0.1123  0.1799 -0.0069
 1278loPI   GL120109   0.793   0.229   5.542 -0.1387  0.0712  0.1288
 1278loPI   GL220110   0.657  -0.043   5.666  0.0904 -0.2527 -0.0620
 1278loPI   C1A20111   0.945   0.451   5.873  0.2163 -0.0553  0.0233
 1278loPI   C2A20112   1.071   0.618   6.198  0.3399 -0.0156  0.0991
 1278loPI   C3A20113   0.928   0.838   6.472  0.1210  0.0737  0.0635
 1278loPI   C4A20114   1.041   0.932   6.872  0.1890  0.0413  0.0522
 1278loPI   C5A20115   0.904   1.110   7.307 -0.1263 -0.2949  0.3186
 1278loPI   C6A20116   1.009   1.187   7.734  0.0712  0.0536 -0.1189
 1278loPI   C1B20117   0.693   0.036   6.111 -0.0019 -0.1746  0.2654
 1278loPI   C2B20118   0.929   0.190   6.432 -0.0167  0.2196  0.2890
 1278loPI   C3B20119   1.162   0.433   6.751  0.3603 -0.2798  0.0143
 1278loPI   C4B20120   1.190   0.526   7.215 -0.0252 -0.0340 -0.3487
 1279loPI    C120121   2.028  18.114   4.840 -0.0492  0.2347 -0.0776
 1279loPI    C220122   2.298  17.819   4.861 -0.0854  0.2133  0.1025
 1279loPI    C320123   1.979  17.783   4.622  0.0441  0.2175 -0.0726
 1279loPI   PO420124   1.971  18.165   5.011 -0.2409  0.1053  0.3172
 1279loPI   GL120125   1.910  18.087   5.460 -0.1314  0.1958  0.2368
 1279loPI   GL220126   1.627  18.208   5.596 -0.0341 -0.1924 -0.0926
 1279loPI   C1A20127   2.037  18.200   5.888 -0.0757  0.0505  0.0519
 1279loPI   C2A20128   1.899  18.375   6.198 -0.0584 -0.2379 -0.0824
 1279loPI   C3A20129   2.111  18.451   6.618 -0.0583  0.0759  0.0503
 1279loPI   C4A20130   2.200  18.359   6.980 -0.0831 -0.0136 -0.2724
 1279loPI   C5A20131   2.017  18.537   7.227  0.1400  0.1419 -0.2947
 1279loPI   C6A20132   1.623  18.780   7.410  0.0482  0.1427 -0.0810
 1279loPI   C1B20133   1.382  18.161   5.946 -0.1002  0.1127  0.1494
 1279loPI   C2B20134   1.419  17.969   6.373  0.0035 -0.0735 -0.0507
 1279loPI   C3B20135   1.309  17.759   6.670 -0.3810  0.1824  0.3796
 1279loPI   C4B20136   0.839  17.732   6.849 -0.0675 -0.3126  0.0571
 1280loPI    C120137  12.424  18.817   5.030 -0.1342  0.0764  0.0106
 1280loPI    C220138  12.691  18.938   4.758  0.0836 -0.3764  0.0137
 1280loPI    C320139  12.357  18.751   4.642 -0.2259  0.1577  0.0124
 1280loPI   PO420140  12.561  18.792   5.226  0.0029 -0.1807 -0.2790
 1280loPI   GL120141  12.828  18.641   5.646  0.0582  0.0680 -0.0947
 1280loPI   GL220142  12.857  18.999   5.670  0.1137 -0.2938  0.1450
 1280loPI   C1A20143  12.791  18.578   6.046 -0.1940 -0.2100 -0.2039
 1280loPI   C2A20144  12.853  18.620   6.411  0.0342  0.0732 -0.2081
 1280loPI   C3A20145  13.108  18.652   6.785 -0.1992 -0.1549  0.0702
 1280loPI   C4A20146  13.168  18.363   7.165  0.1109 -0.1116 -0.1345
 1280loPI   C5A20147  13.127  18.380   7.468 -0.3425  0.1412  0.1259
 1280loPI   C6A20148  13.072  18.100   7.741  0.2024  0.0609  0.1903
 1280loPI   C1B20149  13.071  19.066   5.960  0.2952  0.1916  0.1339
 1280loPI   C2B20150  13.030  19.160   6.338 -0.1525 -0.0469  0.1246
 1280loPI   C3B20151  13.182  19.275   6.738 -0.2252 -0.1756  0.2763
 1280loPI   C4B20152  13.306  19.019   7.100 -0.2353 -0.2181 -0.0771
 1281loPI    C120153  13.968   6.980   4.733 -0.0716 -0.4956  0.1333
 1281loPI    C220154  13.635   7.144   4.584  0.0633 -0.2100  0.1409
 1281loPI    C320155  13.890   6.953   4.341  0.2151  0.1365  0.0200
 1281loPI   PO420156  13.957   7.142   4.927 -0.2212 -0.0313  0.0242
 1281loPI   GL120157  14.058   7.060   5.319 -0.1139  0.1783 -0.0144
 1281loPI   GL220158  14.212   7.282   5.306 -0.4478 -0.0169  0.3354
 1281loPI   C1A20159  13.858   7.070   5.767  0.0192  0.0990 -0.2038
 1281loPI   C2A20160  13.981   6.985   6.190 -0.1980 -0.0486  0.0138
 1281loPI   C3A20161  14.079   7.020   6.570 -0.0564  0.0920 -0.0515
 1281loPI   C4A20162  13.977   7.112   6.977 -0.0246  0.0099 -0.1735
 1281loPI   C5A20163  14.260   7.129   7.383 -0.2505  0.1306 -0.0860
 1281loPI   C6A20164  14.295   6.824   7.736 -0.1272  0.1025 -0.0171
 1281loPI   C1B20165  13.927   7.543   5.547 -0.1462 -0.1136  0.1822
 1281loPI   C2B20166  13.748   7.517   5.928 -0.1206 -0.1841 -0.1040
 1281loPI   C3B20167  13.782   7.405   6.381 -0.1835 -0.1643 -0.1913
 1281loPI   C4B20168  13.812   7.519   6.778  0.0547 -0.0434  0.1565
 1282POPI    C120169   8.385   0.410   5.122 -0.1391 -0.0769  0.0806
 1282POPI    C220170   8.563   0.072   5.005 -0.1851  0.0218 -0.2867
 1282POPI    C320171   8.369   0.299   4.738 -0.0817  0.3832 -0.0617
 1282POPI   PO420172   8.626   0.593   5.314  0.0152  0.0419  0.2332
 1282POPI   GL120173   8.764   0.703   5.749 -0.0976 -0.0406  0.4249
 1282POPI   GL220174   8.974   0.503   5.788  0.1221 -0.0536  0.0134
 1282POPI   C1A20175   8.815   0.861   6.099  0.2434  0.3326  0.0524
 1282POPI   D2A20176   8.801   0.754   6.413 -0.2741  0.0947  0.0584
 1282POPI   C3A20177   8.666   0.879   6.817 -0.1318  0.2155  0.1563
 1282POPI   C4A20178   8.374   0.584   7.069  0.1637 -0.1049 -0.3504
 1282POPI   C1B20179   8.794   0.262   6.201  0.1507 -0.3197 -0.0942
 1282POPI   C2B20180   8.655   0.290   6.593  0.0264  0.0926  0.2923
 1282POPI   C3B20181   8.743   0.304   6.933 -0.0938  0.0737  0.0096
 1282POPI   C4B20182   8.881   0.385   7.301  0.0827  0.0706  0.0928
 1283POPI    C120183  12.460  13.390   5.473 -0.2335  0.2828  0.0542
 1283POPI    C220184  12.797  13.252   5.308 -0.3580  0.0578 -0.0153
 1283POPI    C320185  12.720  13.644   5.304  0.0721  0.1536  0.3194
 1283POPI   PO420186  12.249  13.196   5.313  0.1825  0.0010 -0.2776
 1283POPI   GL120187  11.847  13.213   5.462 -0.0581 -0.3108  0.3163
 1283POPI   GL220188  11.933  13.482   5.598 -0.0805  0.0418  0.0135
 1283POPI   C1A20189  11.665  13.104   5.908 -0.2838  0.0914  0.0586
 1283POPI   D2A20190  11.689  13.250   6.344 -0.1587  0.2445  0.2630
 1283POPI   C3A20191  11.937  13.059   6.636 -0.0670  0.3695 -0.0152
 1283POPI   C4A20192  11.743  12.820   6.983 -0.1778 -0.3072 -0.1041
 1283POPI   C1B20193  12.120  13.410   5.880  0.0400 -0.0772  0.1792
 1283POPI   C2B20194  12.318  13.501   6.165  0.1113 -0.1589 -0.2395
 1283POPI   C3B20195  12.199  13.543   6.561  0.1812  0.1766  0.1121
 1283POPI   C4B20196  12.270  13.537   6.998 -0.0811 -0.0247 -0.0155
 1284POPI    C120197   8.615  14.393   4.574  0.0205  0.1027  0.0844
 1284POPI    C220198   8.313  14.157   4.687 -0.0944  0.2174  0.0199
 1284POPI    C320199   8.625  14.002   4.489 -0.1318  0.1065  0.0468
 1284POPI   PO420200   8.680  14.583   4.759  0.0712  0.1072  0.2535
 1284POPI   GL120201   8.764  14.645   5.154 -0.3415  0.0945 -0.0555
 1284POPI   GL220202   8.813  14.444   5.520 -0.2559 -0.2014 -0.0630
 1284POPI   C1A20203   8.574  14.886   5.477 -0.1985 -0.0015 -0.1415
 1284POPI   D2A20204   8.676  15.229   5.876 -0.0374 -0.0179  0.1027
 1284POPI   C3A20205   8.414  15.129   6.236 -0.0153 -0.2085 -0.1477
 1284POPI   C4A20206   8.042  14.992   6.436  0.0659 -0.1669 -0.1607
 1284POPI   C1B20207   8.797  14.607   5.905 -0.1089 -0.0945 -0.0205
 1284POPI   C2B20208   8.727  14.706   6.202  0.2474 -0.4442  0.0575
 1284POPI   C3B20209   8.454  14.745   6.516  0.1727  0.0630  0.3292
 1284POPI   C4B20210   8.448  15.003   6.865 -0.1402 -0.0238  0.0626
 1285POPI    C120211  12.604  17.083   4.988  0.0578 -0.1160 -0.1090
 1285POPI    C220212  12.306  17.346   5.032  0.1766  0.0011  0.0034
 1285POPI    C320213  12.623  17.438   4.805  0.2022 -0.0589  0.0147
 1285POPI   PO420214  12.669  16.979   5.333  0.0771  0.1331  0.0656
 1285POPI   GL120215  12.592  16.634   5.564  0.0409  0.1584  0.0664
 1285POPI   GL220216  12.932  16.830   5.759  0.0656 -0.2985  0.3503
 1285POPI   C1A20217  12.601  16.471   6.009  0.0010 -0.1966  0.1809
 1285POPI   D2A20218  12.468  16.515   6.384  0.1133 -0.3373 -0.1975
 1285POPI   C3A20219  12.469  16.927   6.573 -0.0406 -0.2586 -0.1426
 1285POPI   C4A20220  12.449  17.336   6.535  0.1051 -0.2675  0.0672
 1285POPI   C1B20221  12.924  16.825   6.253 -0.0300 -0.1363 -0.1225
 1285POPI   C2B20222  12.981  16.694   6.616 -0.2894 -0.0977 -0.4312
 1285POPI   C3B20223  12.873  16.776   7.038 -0.2349 -0.1816  0.1106
 1285POPI   C4B20224  12.835  16.802   7.499 -0.4509  0.3934 -0.1653
 1286POPI    C120225  18.119   0.319   4.794 -0.6101  0.0295 -0.1238
 1286POPI    C220226  18.315   0.348   4.446  0.1566  0.1081  0.2916
 1286POPI    C320227  18.153  -0.001   4.556  0.1819  0.0016  0.0001
 1286POPI   PO420228  18.264   0.300   5.019 -0.0429  0.0568 -0.2519
 1286POPI   GL120229  18.305   0.179   5.497 -0.0505  0.0984 -0.1664
 1286POPI   GL220230  18.103   0.389   5.524 -0.0184 -0.1070 -0.0580
 1286POPI   C1A20231  18.530  -0.051   5.884 -0.1485 -0.1264 -0.1811
 1286POPI   D2A20232  18.764  -0.323   6.236 -0.0513  0.3272  0.1882
 1286POPI   C3A20233  18.937  -0.173   6.605  0.0714  0.0848 -0.2243
 1286POPI   C4A20234  18.962  -0.090   7.095 -0.1774  0.2950  0.1687
 1286POPI   C1B20235  18.047   0.474   6.019 -0.2370  0.3374 -0.3847
 1286POPI   C2B20236  18.113   0.392   6.418 -0.4174  0.0137 -0.2940
 1286POPI   C3B20237  18.247   0.503   6.839  0.4508  0.0281 -0.2978
 1286POPI   C4B20238  18.308   0.780   7.176 -0.0177  0.2696 -0.3722
 1287POPI    C120239  18.568  11.708   4.754 -0.0053  0.0620  0.1953
 1287POPI    C220240  18.763  12.049   4.825 -0.0455  0.1320 -0.0249
 1287POPI    C320241  18.912  11.784   4.566  0.0080 -0.0390  0.1782
 1287POPI   PO420242  18.331  11.741   4.931 -0.0213  0.0575 -0.0226
 1287POPI   GL120243  18.161  11.755   5.274  0.3451  0.1201  0.1289
 1287POPI   GL220244  18.249  11.452   5.402 -0.1838 -0.1884  0.2441
 1287POPI   C1A20245  18.362  11.950   5.651  0.2056  0.1035 -0.0768
 1287POPI   D2A20246  18.429  11.996   5.993 -0.1085  0.1238  0.1029
 1287POPI   C3A20247  18.165  12.014   6.335  0.0958 -0.0299  0.0208
 1287POPI   C4A20248  17.945  11.949   6.700 -0.1080 -0.0293  0.2032
 1287POPI   C1B20249  17.963  11.524   5.668 -0.0878 -0.0688  0.1408
 1287POPI   C2B20250  17.735  11.255   6.017  0.0255 -0.2169  0.0315
 1287POPI   C3B20251  17.469  11.049   6.242 -0.3267  0.0371  0.0980
 1287POPI   C4B20252  17.614  11.180   6.651  0.0921 -0.1276  0.0486
 1288POPI    C120253  15.927  13.240   4.622  0.0918 -0.0034  0.0183
 1288POPI    C220254  16.289  13.145   4.482 -0.0081 -0.2944 -0.0496
 1288POPI    C320255  16.144  13.514   4.427  0.2166 -0.2189 -0.1494
 1288POPI   PO420256  15.857  13.182   4.986  0.1190  0.0786  0.2101
 1288POPI   GL120257  15.721  13.231   5.388  0.0165 -0.2004  0.0914
 1288POPI   GL220258  16.043  13.345   5.410 -0.1825  0.0450 -0.1217
 1288POPI   C1A20259  15.762  13.541   5.762  0.2788 -0.0074 -0.1700
 1288POPI   D2A20260  15.748  13.542   6.147 -0.3966  0.0512 -0.3130
 1288POPI   C3A20261  16.058  13.450   6.296  0.0320  0.0578 -0.0160
 1288POPI   C4A20262  16.487  13.444   6.295  0.1908  0.1023 -0.2720
 1288POPI   C1B20263  16.093  13.177   5.836  0.0135  0.0537 -0.1597
 1288POPI   C2B20264  15.806  13.048   6.136  0.2775 -0.1371  0.0738
 1288POPI   C3B20265  15.720  12.813   6.407  0.1327 -0.1624 -0.1333
 1288POPI   C4B20266  15.837  13.036   6.867 -0.1530 -0.1027 -0.3340
 1289POPI    C120267   8.450  11.949   5.030  0.1409  0.3662 -0.0570
 1289POPI    C220268   8.650  11.609   5.098 -0.1900  0.1600 -0.0878
 1289POPI    C320269   8.560  11.717   4.724  0.0196  0.3470 -0.0866
 1289POPI   PO420270   8.635  12.139   5.237  0.0132  0.1564 -0.2182
 1289POPI   GL120271   8.758  12.102   5.653 -0.0509  0.2135 -0.0153
 1289POPI   GL220272   8.869  12.388   5.585  0.1024  0.0311  0.1435
 1289POPI   C1A20273   8.943  12.201   6.115 -0.1333 -0.0507  0.1158
 1289POPI   D2A20274   9.120  12.248   6.531  0.1336 -0.2034 -0.2306
 1289POPI   C3A20275   9.028  12.490   6.870  0.2501 -0.2876 -0.0287
 1289POPI   C4A20276   8.612  12.656   7.060 -0.1637  0.2379 -0.3003
 1289POPI   C1B20277   9.073  12.627   5.840 -0.1825  0.0567 -0.1060
 1289POPI   C2B20278   8.983  12.718   6.204  0.1539  0.0410  0.2524
 1289POPI   C3B20279   8.657  12.648   6.458  0.4362  0.1719 -0.0989
 1289POPI   C4B20280   8.277  12.669   6.607 -0.0435  0.1976 -0.2370
 1290POPI    C120281   3.509  17.607   5.254  0.1126 -0.1527 -0.0345
 1290POPI    C220282   3.517  17.903   4.985  0.1699 -0.1588 -0.0393
 1290POPI    C320283   3.533  17.522   4.864 -0.0693 -0.1688 -0.0433
 1290POPI   PO420284   3.306  17.687   5.444 -0.2058  0.2023  0.1195
 1290POPI   GL120285   3.305  17.650   5.803  0.0813 -0.1220 -0.0071
 1290POPI   GL220286   3.312  17.994   6.037 -0.3198 -0.1273 -0.1086
 1290POPI   C1A20287   3.509  17.551   6.218 -0.2901 -0.0856  0.1033
 1290POPI   D2A20288   3.560  17.552   6.635  0.1408 -0.3430  0.2669
 1290POPI   C3A20289   3.594  17.938   6.814  0.0669  0.0225 -0.0478
 1290POPI   C4A20290   3.382  18.363   6.730 -0.0713  0.0986 -0.1726
 1290POPI   C1B20291   3.459  18.263   6.167 -0.2764  0.1257 -0.0960
 1290POPI   C2B20292   3.777  18.259   6.392 -0.1404 -0.0828  0.1237
 1290POPI   C3B20293   4.075  18.177   6.736  0.2303 -0.2448  0.0462
 1290POPI   C4B20294   4.469  17.945   7.003 -0.2868 -0.1424 -0.2973
 1291POPI    C120295  17.673   1.246   4.902 -0.1038 -0.1548  0.0365
 1291POPI    C220296  17.432   1.049   4.650  0.0771 -0.1084 -0.1764
 1291POPI    C320297  17.793   1.170   4.528  0.0801  0.1087  0.0394
 1291POPI   PO420298  17.537   1.302   5.101  0.2546 -0.1209 -0.2279
 1291POPI   GL120299  17.638   1.192   5.479  0.0175  0.0262  0.1578
 1291POPI   GL220300  17.824   0.886   5.528  0.3018 -0.0281  0.0932
 1291POPI   C1A20301  17.562   1.292   5.908 -0.0230  0.0441  0.2878
 1291POPI   D2A20302  17.362   1.149   6.272 -0.0317 -0.0567  0.0469
 1291POPI   C3A20303  17.583   1.046   6.666  0.0366 -0.0391  0.2006
 1291POPI   C4A20304  17.637   0.614   6.926 -0.1003  0.2510  0.0892
 1291POPI   C1B20305  17.595   0.753   5.917  0.2603 -0.1341 -0.3685
 1291POPI   C2B20306  17.651   0.665   6.383 -0.0358  0.0418  0.2101
 1291POPI   C3B20307  17.433   0.261   6.632 -0.0048 -0.0951 -0.0877
 1291POPI   C4B20308  17.242  -0.216   6.581  0.0154 -0.0289  0.0381
 1292POPI    C120309   2.452  14.019   4.720 -0.1201  0.3132 -0.0957
 1292POPI    C220310   2.228  13.689   4.698  0.0295  0.1936  0.1377
 1292POPI    C320311   2.531  13.742   4.443 -0.1213  0.2482 -0.0316
 1292POPI   PO420312   2.591  13.992   4.940  0.0013  0.2777 -0.0210
 1292POPI   GL120313   2.593  14.047   5.310  0.0352  0.1057  0.0806
 1292POPI   GL220314   2.663  14.294   5.393 -0.0864  0.1540 -0.0983
 1292POPI   C1A20315   2.726  13.653   5.596 -0.5059 -0.2157 -0.1478
 1292POPI   D2A20316   2.775  13.682   6.072 -0.0887 -0.1750 -0.2937
 1292POPI   C3A20317   2.722  13.829   6.498 -0.2590 -0.0866 -0.2195
 1292POPI   C4A20318   2.816  13.891   6.965  0.0038  0.1484 -0.0603
 1292POPI   C1B20319   2.791  14.126   5.823 -0.3033 -0.2255 -0.0281
 1292POPI   C2B20320   3.075  14.094   6.218 -0.1105 -0.1424 -0.3176
 1292POPI   C3B20321   3.140  14.155   6.695 -0.2085 -0.0224 -0.0647
 1292POPI   C4B20322   3.330  13.951   7.020  0.1657 -0.0416  0.0351
 1293POPI    C120323   4.731   2.124   4.677  0.0063  0.2113 -0.0870
 1293POPI    C220324   4.969   2.330   4.430  0.2497  0.0347 -0.0029
 1293POPI    C320325   4.746   2.029   4.289  0.0599  0.2116 -0.0850
 1293POPI   PO420326   4.705   2.288   4.852  0.2746 -0.2234  0.0092
 1293POPI   GL120327   4.579   2.529   5.271 -0.2046 -0.1824 -0.0495
 1293POPI   GL220328   4.354   2.220   5.424 -0.1328  0.4368 -0.2354
 1293POPI   C1A20329   4.864   2.402   5.668  0.1251  0.1507  0.0696
 1293POPI   D2A20330   4.929   2.410   6.201  0.4544  0.1463 -0.0871
 1293POPI   C3A20331   5.069   2.030   6.512 -0.1128  0.0841 -0.1359
 1293POPI   C4A20332   5.216   1.904   6.977 -0.1284 -0.1874  0.0421
 1293POPI   C1B20333   4.422   2.469   5.796  0.0526  0.1620 -0.0752
 1293POPI   C2B20334   4.403   2.308   6.319 -0.4122 -0.0324 -0.0563
 1293POPI   C3B20335   4.610   2.241   6.718 -0.1050 -0.3210  0.0646
 1293POPI   C4B20336   4.612   2.209   7.184  0.0127  0.1627 -0.1771
 1294POPI    C120337   3.306  18.584   5.170 -0.2070  0.1235  0.3362
 1294POPI    C220338   3.155  18.216   5.121  0.1171  0.0188  0.0885
 1294POPI    C320339   2.972  18.532   4.955 -0.0030 -0.0660  0.0580
 1294POPI   PO420340   3.297  18.602   5.423 -0.0078  0.0333  0.0435
 1294POPI   GL120341   3.079  18.375   5.706  0.0042  0.0957  0.0046
 1294POPI   GL220342   3.030  18.084   5.605 -0.1430 -0.2868  0.0637
 1294POPI   C1A20343   3.108  18.597   6.044 -0.0386 -0.0270 -0.4218
 1294POPI   D2A20344   3.339  18.806   6.294 -0.0865  0.2602 -0.2123
 1294POPI   C3A20345   3.350  18.898   6.752 -0.1032 -0.1265 -0.0753
 1294POPI   C4A20346   3.484  19.183   7.111  0.1671 -0.2787 -0.1048
 1294POPI   C1B20347   2.842  17.826   5.952 -0.0796 -0.0203 -0.1307
 1294POPI   C2B20348   2.634  17.636   6.357 -0.0382 -0.1199 -0.1626
 1294POPI   C3B20349   2.667  17.573   6.792 -0.3499 -0.2605 -0.1148
 1294POPI   C4B20350   2.449  17.842   7.098 -0.0528 -0.2205 -0.5034
 1295POPI    C120351   2.413   7.591   5.216 -0.1563 -0.0665 -0.0052
 1295POPI    C220352   2.700   7.829   5.361  0.0212 -0.3001  0.0329
 1295POPI    C320353   2.482   7.947   5.047  0.1189 -0.0959  0.0399
 1295POPI   PO420354   2.672   7.311   5.187  0.1093  0.0467  0.1600
 1295POPI   GL120355   2.713   7.361   5.599 -0.1329 -0.1070 -0.0003
 1295POPI   GL220356   3.050   7.404   5.536 -0.1701  0.1678 -0.1365
 1295POPI   C1A20357   2.603   7.275   6.005 -0.0912 -0.3436 -0.2093
 1295POPI   D2A20358   2.373   7.495   6.076  0.0218  0.1628 -0.1158
 1295POPI   C3A20359   2.322   7.477   6.513  0.0162 -0.0842 -0.0874
 1295POPI   C4A20360   2.387   7.268   6.959  0.3295 -0.1973 -0.1702
 1295POPI   C1B20361   2.947   7.640   5.940  0.1326  0.0882  0.3687
 1295POPI   C2B20362   2.814   7.635   6.321 -0.1257 -0.1322 -0.3062
 1295POPI   C3B20363   2.785   7.510   6.708 -0.3576 -0.1471 -0.1062
 1295POPI   C4B20364   3.033   7.306   6.982 -0.0219  0.1896 -0.0518
 1296POPI    C120365   0.269  11.231   4.791 -0.1633  0.0070  0.0199
 1296POPI    C220366   0.290  11.550   4.550  0.3397 -0.0751 -0.0571
 1296POPI    C320367   0.418  11.193   4.422  0.3395 -0.1822  0.2331
 1296POPI   PO420368   0.308  11.178   5.028  0.1232 -0.1321  0.3455
 1296POPI   GL120369   0.364  11.333   5.437  0.0588  0.0474  0.2557
 1296POPI   GL220370   0.232  11.658   5.485  0.1271  0.3351 -0.1287
 1296POPI   C1A20371   0.505  11.127   5.882 -0.1060  0.1133  0.1106
 1296POPI   D2A20372   0.806  10.823   5.787  0.3477  0.0786 -0.0337
 1296POPI   C3A20373   1.045  10.715   6.059 -0.1331 -0.1396  0.1842
 1296POPI   C4A20374   1.261  10.731   6.424 -0.2294  0.1708 -0.3483
 1296POPI   C1B20375   0.075  11.465   5.870  0.2240 -0.0976 -0.6282
 1296POPI   C2B20376   0.047  11.091   6.178 -0.0338  0.0172  0.0933
 1296POPI   C3B20377   0.378  10.788   6.177  0.0610  0.0942 -0.0327
 1296POPI   C4B20378   0.533  10.343   6.182  0.1335 -0.1627 -0.2311
 1297POPI    C120379  18.771  17.072   5.010 -0.0470  0.1094  0.1999
 1297POPI    C220380  18.660  17.149   4.634  0.1612  0.0678  0.1291
 1297POPI    C320381  18.996  16.943   4.706  0.2294  0.2494  0.3413
 1297POPI   PO420382  18.593  16.965   5.098 -0.2519 -0.1376  0.1891
 1297POPI   GL120383  18.319  16.980   5.404  0.1000 -0.2843  0.0090
 1297POPI   GL220384  18.288  16.644   5.630 -0.0821 -0.1564  0.1769
 1297POPI   C1A20385  18.469  17.020   5.831  0.1187  0.2394  0.1470
 1297POPI   D2A20386  18.681  17.082   6.143 -0.1107 -0.2636  0.0096
 1297POPI   C3A20387  19.135  17.078   6.204 -0.1225 -0.2754 -0.1144
 1297POPI   C4A20388  19.542  16.803   6.415 -0.4110 -0.0383 -0.1071
 1297POPI   C1B20389  18.444  16.495   5.986 -0.0265  0.2188 -0.1345
 1297POPI   C2B20390  18.527  16.514   6.367 -0.0320 -0.2245  0.0325
 1297POPI   C3B20391  18.363  16.654   6.795  0.0540 -0.2813  0.1008
 1297POPI   C4B20392  18.149  16.433   7.161 -0.0066  0.1898  0.0703
 1298DPPI    C120393  13.689  18.370   5.006  0.0814 -0.2116 -0.0360
 1298DPPI    C220394  13.789  18.411   4.621 -0.0648 -0.2105 -0.0744
 1298DPPI    C320395  13.644  18.063   4.754 -0.2113 -0.1472 -0.0656
 1298DPPI   PO420396  13.528  18.516   5.083 -0.2554  0.1485  0.1874
 1298DPPI   GL120397  13.470  18.560   5.460 -0.1378  0.0215 -0.0255
 1298DPPI   GL220398  13.370  18.254   5.572 -0.1237 -0.2011 -0.0757
 1298DPPI   C1A20399  13.280  18.677   5.908  0.2234  0.0404  0.0831
 1298DPPI   C2A20400  13.334  18.756   6.331  0.3048 -0.1090 -0.1420
 1298DPPI   C3A20401  13.623  18.727   6.652  0.4430  0.3036  0.0191
 1298DPPI   C4A20402  13.623  18.521   7.021  0.0621  0.0437  0.1385
 1298DPPI   C1B20403  13.474  18.246   6.096 -0.0103 -0.1545 -0.1419
 1298DPPI   C2B20404  13.395  18.276   6.559  0.1511 -0.1410  0.0200
 1298DPPI   C3B20405  13.570  18.008   6.916 -0.2825 -0.2944 -0.0200
 1298DPPI   C4B20406  13.564  18.052   7.411  0.1018  0.2032 -0.2564
 1299DPPI    C120407   7.259  18.365   4.712  0.1314  0.2441 -0.2340
 1299DPPI    C220408   7.180  18.739   4.830 -0.0303  0.2326 -0.3023
 1299DPPI    C320409   7.228  18.657   4.441 -0.0963  0.1643 -0.2963
 1299DPPI   PO420410   7.156  18.262   4.874 -0.0663 -0.0642  0.0481
 1299DPPI   GL120411   7.193  18.442   5.299 -0.3023  0.1161  0.1637
 1299DPPI   GL220412   7.201  18.777   5.323 -0.0198  0.2060 -0.3217
 1299DPPI   C1A20413   7.166  18.485   5.758 -0.0963 -0.1905  0.1132
 1299DPPI   C2A20414   7.274  18.597   6.199  0.0263  0.2479  0.1431
 1299DPPI   C3A20415   7.279  18.931   6.421 -0.1786 -0.1363  0.0324
 1299DPPI   C4A20416   7.286  18.946   6.778  0.1515 -0.3329 -0.1630
 1299DPPI   C1B20417   7.605  18.800   5.572 -0.2173 -0.0102  0.0660
 1299DPPI   C2B20418   7.747  18.686   5.953 -0.0486 -0.1245 -0.0922
 1299DPPI   C3B20419   7.729  18.557   6.481  0.0832 -0.1473  0.0870
 1299DPPI   C4B20420   7.571  18.542   6.940  0.2072 -0.3942  0.1621
 1300DPPI    C120421   9.955   0.631   5.191  0.0524  0.0519 -0.0179
 1300DPPI    C220422  10.179   0.733   4.875  0.1953 -0.0994  0.0333
 1300DPPI    C320423   9.822   0.906   4.932  0.2523  0.0668 -0.1062
 1300DPPI   PO420424  10.121   0.748   5.408  0.0320  0.0222  0.0918
 1300DPPI   GL120425  10.085   0.376   5.605  0.2588 -0.0869 -0.0132
 1300DPPI   GL220426  10.046   0.120   5.459 -0.1446  0.0047 -0.0437
 1300DPPI   C1A20427  10.066   0.398   6.061  0.1023  0.0617 -0.2183
 1300DPPI   C2A20428  10.335   0.266   6.388  0.1590  0.0493  0.0183
 1300DPPI   C3A20429  10.592   0.495   6.669  0.2024  0.2258 -0.2685
 1300DPPI   C4A20430  10.971   0.306   6.945 -0.0697 -0.0265  0.0503
 1300DPPI   C1B20431   9.773  -0.036   5.797 -0.0955  0.0338 -0.1425
 1300DPPI   C2B20432   9.595   0.075   6.236 -0.1941 -0.1378 -0.3508
 1300DPPI   C3B20433   9.618   0.155   6.704 -0.1844 -0.0418 -0.1683
 1300DPPI   C4B20434   9.770   0.236   7.080 -0.0660  0.1068 -0.0779
 1301DPPI    C120435   9.506   8.786   5.123  0.0972 -0.2497  0.0469
 1301DPPI    C220436   9.142   8.625   5.162 -0.2052  0.3730 -0.0688
 1301DPPI    C320437   9.279   8.878   5.439  0.1848  0.0762  0.0189
 1301DPPI   PO420438   9.695   8.608   5.040  0.1512  0.3675 -0.1384
 1301DPPI   GL120439   9.920   8.396   5.439 -0.0212  0.1254 -0.1714
 1301DPPI   GL220440   9.616   8.511   5.529 -0.0269 -0.1333 -0.1255
 1301DPPI   C1A20441  10.107   8.049   5.624  0.0607 -0.2215 -0.1342
 1301DPPI   C2A20442  10.355   7.599   5.584  0.1217  0.0098 -0.2385
 1301DPPI   C3A20443  10.440   7.413   5.901 -0.2700  0.0985 -0.0280
 1301DPPI   C4A20444  10.519   7.425   6.359  0.1599 -0.1012 -0.0289
 1301DPPI   C1B20445   9.978   8.732   5.789 -0.1399 -0.0193  0.5614
 1301DPPI   C2B20446   9.994   8.630   6.276 -0.0683 -0.0091  0.0321
 1301DPPI   C3B20447   9.753   8.394   6.559 -0.1981 -0.0936 -0.0874
 1301DPPI   C4B20448   9.771   7.924   6.710  0.0550  0.1061 -0.0242
 1302DPPI    C120449   9.308  18.618   5.033  0.1147 -0.0405  0.2279
 1302DPPI    C220450   8.961  18.433   5.101  0.1023 -0.0901  0.0371
 1302DPPI    C320451   9.279  18.222   4.981  0.1562 -0.0225  0.0606
 1302DPPI   PO420452   9.328  18.739   5.215  0.0285 -0.0835 -0.0836
 1302DPPI   GL120453   9.084  18.618   5.631  0.0427 -0.2378 -0.0296
 1302DPPI   GL220454   8.815  18.830   5.772 -0.0569  0.0408 -0.0271
 1302DPPI   C1A20455   9.049  18.536   6.179  0.0571  0.1387 -0.3239
 1302DPPI   C2A20456   9.048  18.602   6.576 -0.0671 -0.0191 -0.2168
 1302DPPI   C3A20457   9.026  18.526   7.060 -0.3315 -0.1358  0.2139
 1302DPPI   C4A20458   8.915  18.672   7.507  0.3006 -0.0995  0.3828
 1302DPPI   C1B20459   8.675  18.917   6.154  0.0402  0.0293  0.1839
 1302DPPI   C2B20460   8.643  18.879   6.539 -0.1231 -0.2452  0.3764
 1302DPPI   C3B20461   8.558  18.866   6.869 -0.0970  0.1291 -0.0997
 1302DPPI   C4B20462   8.621  19.065   7.328  0.0604 -0.3364 -0.1787
 1303DPPI    C120463  10.114   2.969   4.682  0.2483  0.1418 -0.1291
 1303DPPI    C220464   9.958   2.662   4.478  0.1168  0.1268 -0.0070
 1303DPPI    C320465  10.274   2.859   4.332  0.0436  0.0958 -0.2093
 1303DPPI   PO420466  10.252   2.852   4.941 -0.2754 -0.3005  0.0492
 1303DPPI   GL120467  10.399   2.982   5.356 -0.1058  0.1775 -0.3400
 1303DPPI   GL220468  10.120   3.140   5.359 -0.0339 -0.1518  0.0664
 1303DPPI   C1A20469  10.623   3.020   5.834 -0.5667 -0.1754 -0.0176
 1303DPPI   C2A20470  10.523   3.081   6.308  0.1846  0.0382  0.0117
 1303DPPI   C3A20471  10.364   3.014   6.687  0.0180 -0.0656  0.3157
 1303DPPI   C4A20472  10.202   2.907   7.008 -0.3201 -0.1143 -0.0599
 1303DPPI   C1B20473   9.999   2.994   5.812  0.0727  0.2999  0.1716
 1303DPPI   C2B20474   9.945   2.998   6.251  0.0424 -0.1237  0.3784
 1303DPPI   C3B20475   9.805   2.761   6.670  0.0067  0.2568 -0.1219
 1303DPPI   C4B20476   9.683   2.752   7.129  0.0775  0.0192  0.0875
 1304DPPI    C120477  17.390   5.524   4.309 -0.0575  0.1195  0.0281
 1304DPPI    C220478  17.588   5.283   4.058 -0.1287 -0.0646  0.1465
 1304DPPI    C320479  17.324   5.547   3.916 -0.2449 -0.2393  0.0339
 1304DPPI   PO420480  17.583   5.491   4.508 -0.1724 -0.0573 -0.0542
 1304DPPI   GL120481  17.743   5.596   5.008 -0.0639  0.0683  0.1725
 1304DPPI   GL220482  17.973   5.851   5.087 -0.0631 -0.1361  0.1452
 1304DPPI   C1A20483  17.442   5.657   5.270  0.0500  0.2954 -0.1778
 1304DPPI   C2A20484  17.217   5.766   5.562  0.4443  0.1086  0.1028
 1304DPPI   C3A20485  17.219   5.949   6.050 -0.0250  0.0232  0.2363
 1304DPPI   C4A20486  17.340   6.260   6.188  0.2626  0.0476 -0.2182
 1304DPPI   C1B20487  17.848   5.701   5.568 -0.0881 -0.1185 -0.0151
 1304DPPI   C2B20488  17.785   5.781   5.980 -0.4108 -0.0287 -0.1088
 1304DPPI   C3B20489  17.716   5.953   6.381  0.1106 -0.0715  0.0682
 1304DPPI   C4B20490  17.705   6.010   6.776 -0.2444  0.1580 -0.1648
 1305DPPI    C120491   6.345  15.802   4.754 -0.1697 -0.0681 -0.1195
 1305DPPI    C220492   6.100  16.058   4.568 -0.2545  0.0303  0.1240
 1305DPPI    C320493   6.022  15.666   4.561 -0.2258  0.0272 -0.0934
 1305DPPI   PO420494   6.423  15.912   5.004  0.0869 -0.2072 -0.1622
 1305DPPI   GL120495   6.293  16.191   5.368  0.0635  0.1213 -0.2892
 1305DPPI   GL220496   5.980  16.256   5.299 -0.1151 -0.1626 -0.1115
 1305DPPI   C1A20497   6.290  16.196   5.871 -0.1091  0.0260  0.1952
 1305DPPI   C2A20498   6.265  16.292   6.200 -0.1108  0.0281 -0.2540
 1305DPPI   C3A20499   6.106  16.503   6.597  0.3063 -0.3251  0.2383
 1305DPPI   C4A20500   5.990  16.751   6.946 -0.3021  0.3720  0.2028
 1305DPPI   C1B20501   5.759  16.202   5.655  0.0387 -0.0355 -0.1937
 1305DPPI   C2B20502   5.807  16.000   6.128 -0.0212  0.0453 -0.1211
 1305DPPI   C3B20503   5.894  16.056   6.524 -0.2025 -0.1600  0.4138
 1305DPPI   C4B20504   5.769  16.231   6.869  0.0823  0.4168 -0.0058
 1306DPPI    C120505   7.758  11.785   4.719 -0.2052  0.1493  0.1895
 1306DPPI    C220506   8.113  11.957   4.655 -0.0168 -0.3069 -0.0413
 1306DPPI    C320507   7.856  11.912   4.352 -0.0564 -0.4449  0.0125
 1306DPPI   PO420508   7.754  11.860   5.047 -0.1549  0.1641 -0.0340
 1306DPPI   GL120509   7.950  11.738   5.458 -0.4221 -0.1247 -0.2533
 1306DPPI   GL220510   8.295  11.808   5.478  0.1032  0.2203 -0.0449
 1306DPPI   C1A20511   7.906  11.406   5.950  0.3086 -0.0697  0.0610
 1306DPPI   C2A20512   7.887  11.366   6.394 -0.0281  0.3755  0.0738
 1306DPPI   C3A20513   7.774  11.282   6.734  0.0341  0.0837  0.0609
 1306DPPI   C4A20514   7.626  11.026   7.108  0.0910 -0.2860  0.4968
 1306DPPI   C1B20515   8.277  11.791   5.889  0.1822 -0.2675  0.0095
 1306DPPI   C2B20516   8.294  11.623   6.300 -0.1645  0.1342 -0.1023
 1306DPPI   C3B20517   8.143  11.759   6.673  0.0226 -0.2249  0.0333
 1306DPPI   C4B20518   8.053  11.522   7.069  0.2441  0.2534  0.1117
 1307DPPI    C120519  13.485   3.224   4.902  0.0890 -0.1688 -0.0064
 1307DPPI    C220520  13.378   3.345   4.536 -0.0094  0.0788  0.1026
 1307DPPI    C320521  13.386   2.955   4.623  0.1029  0.0137 -0.1895
 1307DPPI   PO420522  13.309   3.496   5.011  0.4492 -0.0314 -0.1845
 1307DPPI   GL120523  12.937   3.638   5.300 -0.0970  0.0600  0.1740
 1307DPPI   GL220524  12.972   3.956   5.353  0.0696 -0.0800  0.0808
 1307DPPI   C1A20525  12.971   3.647   5.733 -0.0910  0.0263 -0.0182
 1307DPPI   C2A20526  13.056   3.745   6.163  0.0647  0.0590 -0.0956
 1307DPPI   C3A20527  12.787   3.657   6.443  0.0338  0.0557 -0.0251
 1307DPPI   C4A20528  12.823   3.853   6.868 -0.0092 -0.3946  0.0144
 1307DPPI   C1B20529  12.604   3.948   5.635  0.0706 -0.0566 -0.3136
 1307DPPI   C2B20530  12.509   3.934   6.138  0.0697  0.0989 -0.2087
 1307DPPI   C3B20531  12.126   4.059   6.385 -0.0325  0.1106 -0.0517
 1307DPPI   C4B20532  11.970   4.459   6.618  0.1046  0.3261  0.3229
 1308PYPI    C120533   7.416   6.082   4.539 -0.0166  0.0818  0.0990
 1308PYPI    C220534   7.572   6.433   4.428 -0.1054  0.0646 -0.0841
 1308PYPI    C320535   7.212   6.323   4.292  0.0459 -0.2237 -0.2604
 1308PYPI   PO420536   7.475   6.110   4.792  0.4844  0.0638 -0.3539
 1308PYPI   GL120537   7.372   6.177   5.172  0.2598 -0.1722  0.1078
 1308PYPI   GL220538   7.098   5.996   5.194  0.2450 -0.0550  0.2751
 1308PYPI   C1A20539   7.292   6.289   5.584  0.1924  0.1129 -0.0634
 1308PYPI   C2A20540   7.196   6.247   6.011 -0.0245  0.2739  0.0177
 1308PYPI   D3A20541   7.000   6.408   6.334  0.1976 -0.0130  0.1949
 1308PYPI   C4A20542   7.200   6.505   6.704 -0.0378  0.1222  0.2717
 1308PYPI   C1B20543   6.969   5.919   5.595  0.0576 -0.1009 -0.1135
 1308PYPI   C2B20544   6.723   5.760   5.988  0.0336 -0.1161  0.2265
 1308PYPI   C3B20545   6.726   5.988   6.376 -0.0710 -0.2547 -0.2275
 1308PYPI   C4B20546   6.862   6.129   6.717 -0.3750  0.0312 -0.0991
 1309PYPI    C120547   9.183  10.972   4.474 -0.0151  0.0692 -0.1696
 1309PYPI    C220548   9.524  10.848   4.305  0.1910  0.2190  0.1275
 1309PYPI    C320549   9.325  11.159   4.150  0.1005  0.0313 -0.1411
 1309PYPI   PO420550   9.177  10.891   4.666 -0.0522  0.1417 -0.2333
 1309PYPI   GL120551   9.416  10.810   4.996 -0.0010 -0.0618  0.0364
 1309PYPI   GL220552   9.170  10.777   5.186 -0.1565  0.0469  0.1522
 1309PYPI   C1A20553   9.619  10.649   5.379 -0.0933 -0.0523 -0.1500
 1309PYPI   C2A20554   9.596  10.617   5.817  0.0778 -0.7171  0.2946
 1309PYPI   D3A20555   9.477  10.605   6.240 -0.0912 -0.0067  0.1079
 1309PYPI   C4A20556   9.695  10.384   6.495 -0.0585 -0.1140  0.0530
 1309PYPI   C1B20557   9.236  10.908   5.669 -0.1260 -0.0765  0.3485
 1309PYPI   C2B20558   9.077  10.883   6.076  0.2453 -0.0770 -0.3153
 1309PYPI   C3B20559   9.114  10.811   6.516 -0.5057 -0.0655  0.1692
 1309PYPI   C4B20560   9.008  10.794   6.925  0.2643  0.0584 -0.1488
 1310PYPI    C120561  13.142  16.981   5.039  0.0626 -0.2609  0.0913
 1310PYPI    C220562  12.942  16.641   5.104 -0.2439 -0.1136 -0.0572
 1310PYPI    C320563  13.036  16.749   4.731  0.2447 -0.2495  0.0192
 1310PYPI   PO420564  13.189  17.038   5.380 -0.0380  0.2643 -0.2877
 1310PYPI   GL120565  12.991  17.361   5.750  0.1197 -0.1130  0.1928
 1310PYPI   GL220566  13.299  17.302   5.783 -0.2207 -0.2175  0.0575
 1310PYPI   C1A20567  12.721  17.678   5.859  0.3568  0.2419  0.0074
 1310PYPI   C2A20568  12.640  17.723   6.275 -0.1934 -0.2799  0.0199
 1310PYPI   D3A20569  12.677  17.742   6.668 -0.0494 -0.2429 -0.1049
 1310PYPI   C4A20570  12.515  17.657   7.024  0.1817  0.2157 -0.1475
 1310PYPI   C1B20571  13.359  16.963   6.004  0.0457  0.1093  0.1259
 1310PYPI   C2B20572  13.341  17.004   6.477  0.0730  0.0696  0.2124
 1310PYPI   C3B20573  13.385  17.181   6.892  0.2846  0.1984 -0.0311
 1310PYPI   C4B20574  13.253  17.071   7.303  0.0137  0.0966 -0.1112
 1311PYPI    C120575   5.064  14.671   4.605  0.0281  0.2421 -0.1269
 1311PYPI    C220576   4.837  14.990   4.687 -0.2181  0.0313  0.0256
 1311PYPI    C320577   4.718  14.726   4.411 -0.1568 -0.0775  0.1024
 1311PYPI   PO420578   5.244  14.677   4.876  0.1608 -0.2147  0.0688
 1311PYPI   GL120579   5.178  14.983   5.167  0.3451 -0.1647 -0.3118
 1311PYPI   GL220580   4.944  15.145   5.313 -0.1302 -0.2387  0.0563
 1311PYPI   C1A20581   5.466  14.875   5.520  0.1860  0.3557  0.0390
 1311PYPI   C2A20582   5.682  14.775   5.860 -0.1758 -0.1818  0.1443
 1311PYPI   D3A20583   5.970  14.628   6.118 -0.1295  0.0551  0.2879
 1311PYPI   C4A20584   5.989  14.764   6.521 -0.1199 -0.2684  0.1186
 1311PYPI   C1B20585   5.001  14.870   5.639 -0.0126 -0.3210  0.3532
 1311PYPI   C2B20586   5.109  14.521   5.976  0.2446 -0.2263 -0.0587
 1311PYPI   C3B20587   5.031  14.569   6.302 -0.2350 -0.2224  0.1947
 1311PYPI   C4B20588   4.957  14.428   6.668 -0.1409  0.0843 -0.0450
 1312PYPI    C120589  14.302   4.065   5.190 -0.1696 -0.0032 -0.0650
 1312PYPI    C220590  13.944   4.088   5.012 -0.1438  0.1292 -0.1000
 1312PYPI    C320591  14.238   4.337   4.904 -0.1111  0.1742  0.0895
 1312PYPI   PO420592  14.290   3.912   5.321 -0.1478  0.2981  0.0675
 1312PYPI   GL120593  13.897   3.794   5.535  0.0374  0.3453  0.1246
 1312PYPI   GL220594  14.046   4.095   5.710  0.1037 -0.1508  0.1028
 1312PYPI   C1A20595  13.903   3.641   5.944  0.1954  0.2062 -0.0137
 1312PYPI   C2A20596  14.178   3.586   6.370  0.3126 -0.0873  0.1198
 1312PYPI   D3A20597  14.332   3.317   6.783  0.1308  0.0540  0.0454
 1312PYPI   C4A20598  14.269   2.880   6.730 -0.0938  0.0107  0.2367
 1312PYPI   C1B20599  13.972   4.048   6.194  0.2645  0.5049  0.1074
 1312PYPI   C2B20600  13.751   3.831   6.532  0.1090  0.0462 -0.0952
 1312PYPI   C3B20601  13.950   3.792   6.829  0.0290  0.1798 -0.2334
 1312PYPI   C4B20602  14.118   4.071   7.142 -0.2407  0.0167 -0.1951
 1313PYPI    C120603  15.757   8.869   4.564  0.1434  0.0212 -0.0476
 1313PYPI    C220604  15.965   8.924   4.227 -0.0033 -0.0985 -0.1583
 1313PYPI    C320605  15.869   8.554   4.345 -0.0259 -0.0520 -0.0297
 1313PYPI   PO420606  15.849   9.013   4.858 -0.0220 -0.0322 -0.0601
 1313PYPI   GL120607  15.785   8.998   5.186  0.1644  0.0819  0.1494
 1313PYPI   GL220608  15.762   9.293   5.418 -0.0955 -0.1921 -0.0697
 1313PYPI   C1A20609  16.025   8.874   5.499 -0.2315 -0.0830  0.4453
 1313PYPI   C2A20610  15.902   8.690   5.997  0.0136 -0.1950 -0.0097
 1313PYPI   D3A20611  16.087   8.644   6.410  0.1395 -0.3081 -0.1456
 1313PYPI   C4A20612  16.076   8.829   6.852  0.2005  0.0089 -0.0586
 1313PYPI   C1B20613  15.591   9.066   5.740  0.1720 -0.2426  0.0310
 1313PYPI   C2B20614  15.289   9.063   6.185  0.0887 -0.1017 -0.1102
 1313PYPI   C3B20615  14.944   9.100   6.356  0.1627  0.0384 -0.2796
 1313PYPI   C4B20616  14.797   9.086   6.679 -0.0422  0.0659 -0.1256
 1314ERGO   ROH20617  13.015  10.622   5.499 -0.0247 -0.1879 -0.0973
 1314ERGO    R120618  12.973  10.690   5.770  0.0777 -0.1559 -0.0900
 1314ERGO    R220619  12.779  10.570   5.926  0.0441 -0.0348 -0.0449
 1314ERGO    R320620  12.988  10.518   6.091  0.0489 -0.1545 -0.0864
 1314ERGO    R420621  12.751  10.483   6.259  0.0557  0.2198  0.0252
 1314ERGO    R520622  12.922  10.611   6.302  0.2180  0.0656 -0.1217
 1314ERGO    C120623  12.931  10.384   6.608  0.0670  0.2558  0.0270
 1314ERGO    C220624  13.072  10.322   6.866 -0.0242  0.1297 -0.1718
 1315ERGO   ROH20625   9.114   2.645   5.979  0.0907  0.2201  0.0060
 1315ERGO    R120626   9.251   2.655   6.226 -0.0323  0.2111  0.0757
 1315ERGO    R220627   9.137   2.757   6.457 -0.2104  0.0402  0.0662
 1315ERGO    R320628   9.208   2.515   6.559 -0.0974  0.0435 -0.0030
 1315ERGO    R420629   9.174   2.687   6.793 -0.3298 -0.0856  0.0543
 1315ERGO    R520630   9.349   2.568   6.744 -0.2259  0.0559  0.0900
 1315ERGO    C120631   9.262   2.419   7.085 -0.2932 -0.1558 -0.0176
 1315ERGO    C220632   9.249   2.509   7.311  0.0233 -0.2276 -0.0106
 1316ERGO   ROH20633  14.498  14.362   5.649 -0.1042  0.0293 -0.1310
 1316ERGO    R120634  14.483  14.269   5.916 -0.0875 -0.0884 -0.1703
 1316ERGO    R220635  14.415  14.433   6.128  0.1051 -0.1358 -0.0663
 1316ERGO    R320636  14.226  14.243   6.173 -0.0257 -0.0162 -0.1018
 1316ERGO    R420637  14.250  14.385   6.428  0.0843 -0.0969 -0.0717
 1316ERGO    R520638  14.268  14.170   6.398 -0.0670 -0.0999 -0.1231
 1316ERGO    C120639  13.977  14.178   6.645 -0.0507  0.0379 -0.1081
 1316ERGO    C220640  13.822  14.122   6.989  0.0344  0.2180  0.0405
 1317ERGO   ROH20641  13.420  17.786   5.752 -0.0502  0.1668 -0.0149
 1317ERGO    R120642  13.289  17.722   5.995  0.0351  0.1384  0.0235
 1317ERGO    R220643  13.405  17.565   6.190  0.0983  0.1061 -0.0434
 1317ERGO    R320644  13.348  17.778   6.350  0.1651  0.0841  0.0118
 1317ERGO    R420645  13.286  17.542   6.514  0.1943  0.0562 -0.0107
 1317ERGO    R520646  13.153  17.710   6.471  0.1942  0.0775  0.0585
 1317ERGO    C120647  13.164  17.729   6.852  0.3129  0.0065  0.0601
 1317ERGO    C220648  13.018  17.586   7.114 -0.0723 -0.4969 -0.1059
 1318ERGO   ROH20649  12.710   0.800   5.414  0.1497  0.0024 -0.0440
 1318ERGO    R120650  12.829   0.844   5.667  0.0216 -0.0313  0.0219
 1318ERGO    R220651  12.764   1.060   5.826  0.0111 -0.0043 -0.0287
 1318ERGO    R320652  12.716   0.867   6.012 -0.1643  0.0253 -0.0398
 1318ERGO    R420653  12.819   1.095   6.166  0.0179 -0.0536 -0.0237
 1318ERGO    R520654  12.895   0.891   6.170 -0.1493 -0.1245 -0.0259
 1318ERGO    C120655  12.805   0.935   6.538 -0.1427 -0.0545 -0.0312
 1318ERGO    C220656  12.893   1.060   6.940 -0.1474 -0.1856  0.0105
 1319ERGO   ROH20657  16.300   5.689   5.248 -0.1348 -0.3353 -0.0184
 1319ERGO    R120658  16.163   5.773   5.482  0.0108 -0.1051 -0.0117
 1319ERGO    R220659  15.950   5.633   5.587 -0.0643  0.1133  0.1403
 1319ERGO    R320660  16.100   5.638   5.814  0.0233  0.1172  0.0820
 1319ERGO    R420661  15.823   5.661   5.907  0.0717  0.2363  0.1839
 1319ERGO    R520662  15.988   5.795   5.956  0.1349  0.1893  0.0876
 1319ERGO    C120663  15.890   5.682   6.307  0.2330  0.3116  0.1545
 1319ERGO    C220664  15.845   5.629   6.768 -0.1367  0.2881  0.4136
 1320ERGO   ROH20665   8.675  13.438   5.327  0.0374  0.1966 -0.0500
 1320ERGO    R120666   8.557  13.490   5.579  0.0067  0.2332 -0.0693
 1320ERGO    R220667   8.676  13.416   5.817 -0.1414  0.0240 -0.0424
 1320ERGO    R320668   8.643  13.679   5.878  0.1150  0.0423  0.0169
 1320ERGO    R420669   8.672  13.546   6.138 -0.0360 -0.0182 -0.0252
 1320ERGO    R520670   8.510  13.678   6.077  0.1090  0.1478 -0.0001
 1320ERGO    C120671   8.640  13.868   6.381  0.2661 -0.0256  0.0405
 1320ERGO    C220672   8.793  14.033   6.643  0.2063  0.0695 -0.0670
 1321ERGO   ROH20673  17.298   4.909   5.357 -0.2513 -0.0358 -0.0470
 1321ERGO    R120674  17.343   4.899   5.636 -0.1961 -0.0687 -0.0571
 1321ERGO    R220675  17.460   4.682   5.761  0.1220  0.0460 -0.1482
 1321ERGO    R320676  17.631   4.871   5.857 -0.1188  0.2511 -0.1113
 1321ERGO    R420677  17.563   4.706   6.090  0.3320 -0.0844 -0.2020
 1321ERGO    R520678  17.546   4.923   6.074 -0.0472 -0.0910  0.0056
 1321ERGO    C120679  17.783   4.897   6.372  0.2281  0.0322 -0.1988
 1321ERGO    C220680  18.049   4.917   6.559  0.1793 -0.2412 -0.1698
 1322ERGO   ROH20681   8.723   3.878   5.552  0.0094 -0.0103  0.0636
 1322ERGO    R120682   8.610   3.771   5.788 -0.0692 -0.0028  0.0295
 1322ERGO    R220683   8.762   3.654   5.986 -0.1496 -0.1231  0.0190
 1322ERGO    R320684   8.635   3.834   6.146 -0.0730 -0.0930  0.0465
 1322ERGO    R420685   8.789   3.666   6.331  0.0152 -0.0665  0.0050
 1322ERGO    R520686   8.576   3.708   6.341  0.0174 -0.0615  0.0974
 1322ERGO    C120687   8.686   3.842   6.681  0.1830 -0.0052  0.0227
 1322ERGO    C220688   8.752   3.929   7.029 -0.1689 -0.0781 -0.1460
 1323ERGO   ROH20689   9.666  13.465   5.584 -0.5187 -0.2159  0.2219
 1323ERGO    R120690   9.639  13.543   5.854 -0.3765 -0.1136  0.2092
 1323ERGO    R220691   9.522  13.381   6.045 -0.2816 -0.0447  0.3378
 1323ERGO    R320692   9.756  13.422   6.177 -0.2081  0.0030  0.1915
 1323ERGO    R420693   9.552  13.415   6.388 -0.1093  0.3103  0.2907
 1323ERGO    R520694   9.699  13.573   6.354 -0.0626  0.2132  0.0578
 1323ERGO    C120695   9.789  13.473   6.711  0.0601  0.5617  0.1259
 1323ERGO    C220696  10.007  13.500   6.928 -0.0796 -0.0116  0.3735
 1324ERGO   ROH20697  18.627   0.545   5.374 -0.2033  0.1476  0.0115
 1324ERGO    R120698  18.526   0.618   5.628 -0.0297  0.0886  0.0989
 1324ERGO    R220699  18.529   0.447   5.844  0.0923  0.0285  0.0486
 1324ERGO    R320700  18.658   0.653   5.965  0.1942 -0.0201  0.0245
 1324ERGO    R420701  18.537   0.502   6.185  0.0392  0.1156  0.0363
 1324ERGO    R520702  18.514   0.715   6.146  0.1854  0.1216 -0.0287
 1324ERGO    C120703  18.663   0.728   6.497  0.1039  0.1208  0.0065
 1324ERGO    C220704  18.759   0.821   6.886 -0.2873 -0.2801  0.3296
 1325ERGO   ROH20705   4.131   2.767   5.447 -0.0175 -0.2855 -0.0511
 1325ERGO    R120706   3.931   2.702   5.637 -0.0023 -0.1550  0.0109
 1325ERGO    R220707   3.918   2.456   5.761 -0.0489 -0.1037  0.1124
 1325ERGO    R320708   3.920   2.606   5.988  0.0341 -0.0125  0.0514
 1325ERGO    R420709   3.943   2.328   6.081 -0.1389  0.0136  0.1666
 1325ERGO    R520710   3.796   2.476   6.146 -0.0506  0.1296  0.1011
 1325ERGO    C120711   3.960   2.395   6.481 -0.1135  0.1675  0.1410
 1325ERGO    C220712   4.103   2.229   6.731  0.1226 -0.0391 -0.0270
 1326ERGO   ROH20713   0.895  15.550   5.452 -0.0125  0.0110  0.0251
 1326ERGO    R120714   0.884  15.436   5.711  0.2230 -0.1971 -0.0522
 1326ERGO    R220715   1.110  15.386   5.862  0.3322  0.2655 -0.0509
 1326ERGO    R320716   0.979  15.535   6.048 -0.0822 -0.1762  0.0317
 1326ERGO    R420717   1.118  15.328   6.203  0.5508  0.1373 -0.0763
 1326ERGO    R520718   0.905  15.375   6.211  0.3950 -0.4742 -0.0225
 1326ERGO    C120719   1.000  15.433   6.576  0.2889 -0.3521 -0.0136
 1326ERGO    C220720   1.084  15.259   6.786  0.1289 -0.1782 -0.2414
 1327ERGO   ROH20721   7.367   7.167   5.286  0.0696 -0.0400  0.1824
 1327ERGO    R120722   7.241   7.296   5.504  0.1096  0.0256  0.1677
 1327ERGO    R220723   7.005   7.204   5.615  0.0015  0.1933  0.0871
 1327ERGO    R320724   7.150   7.210   5.846 -0.0559  0.0400  0.1276
 1327ERGO    R420725   6.879   7.289   5.926  0.0024  0.3206  0.0526
 1327ERGO    R520726   7.063   7.398   5.965  0.1061  0.1290  0.1053
 1327ERGO    C120727   6.941   7.344   6.323 -0.0511  0.2507  0.0706
 1327ERGO    C220728   6.776   7.338   6.656 -0.1500  0.0884  0.0278
 1328ERGO   ROH20729   7.509  16.239   5.426 -0.0784  0.1879 -0.1144
 1328ERGO    R120730   7.519  16.346   5.687  0.0300  0.0989 -0.0828
 1328ERGO    R220731   7.386  16.232   5.901  0.0026  0.1105 -0.1010
 1328ERGO    R320732   7.633  16.235   6.015  0.0227 -0.0682 -0.1346
 1328ERGO    R420733   7.446  16.245   6.241  0.0472  0.3469 -0.1152
 1328ERGO    R520734   7.611  16.383   6.201  0.2063  0.1315 -0.2611
 1328ERGO    C120735   7.713  16.255   6.546  0.0921  0.3167 -0.1549
 1328ERGO    C220736   7.736  16.203   6.905 -0.0177 -0.1544  0.1121
 1329ERGO   ROH20737   2.667   4.552   5.184  0.1771 -0.2016  0.1242
 1329ERGO    R120738   2.773   4.530   5.445  0.1691 -0.0304  0.1420
 1329ERGO    R220739   2.778   4.743   5.621 -0.0896  0.0125  0.0976
 1329ERGO    R320740   2.648   4.570   5.785  0.0832 -0.0993  0.1199
 1329ERGO    R420741   2.761   4.771   5.965 -0.1052  0.0399  0.0949
 1329ERGO    R520742   2.787   4.555   5.980  0.1078  0.0613  0.1186
 1329ERGO    C120743   2.629   4.625   6.320  0.0479 -0.0491  0.1143
 1329ERGO    C220744   2.671   4.809   6.644  0.1093  0.3275 -0.1514
 1330ERGO   ROH20745   3.904  12.708   5.622  0.0800 -0.0697  0.1896
 1330ERGO    R120746   4.008  12.691   5.885  0.0672 -0.2275  0.1857
 1330ERGO    R220747   3.937  12.868   6.085  0.2945 -0.1531  0.2067
 1330ERGO    R320748   3.874  12.640   6.219  0.0082 -0.0918  0.1827
 1330ERGO    R420749   3.983  12.818   6.424  0.4510 -0.3297  0.1610
 1330ERGO    R520750   4.049  12.615   6.381  0.0846 -0.4310  0.0547
 1330ERGO    C120751   3.951  12.575   6.747  0.2735 -0.3751  0.1119
 1330ERGO    C220752   3.966  12.707   7.034  0.0773  0.2063 -0.0326
 1331ERGO   ROH20753   1.634   5.165   5.412  0.1823  0.0654 -0.0588
 1331ERGO    R120754   1.554   5.084   5.671  0.1188  0.0635 -0.0800
 1331ERGO    R220755   1.729   4.972   5.853  0.1051  0.1987  0.0102
 1331ERGO    R320756   1.639   5.173   6.013 -0.0803  0.1716 -0.0551
 1331ERGO    R420757   1.804   5.006   6.189 -0.1269  0.2326  0.0616
 1331ERGO    R520758   1.598   5.067   6.224 -0.1805  0.1563 -0.0772
 1331ERGO    C120759   1.764   5.214   6.534 -0.4361  0.2269  0.0303
 1331ERGO    C220760   1.629   5.238   6.954  0.1046 -0.3317  0.2247
 1332ERGO   ROH20761  10.448  10.402   5.574  0.2538 -0.1024  0.0263
 1332ERGO    R120762  10.464  10.458   5.851  0.3569  0.1163 -0.0210
 1332ERGO    R220763  10.393  10.274   6.045  0.0120  0.4085  0.1468
 1332ERGO    R320764  10.643  10.325   6.138  0.1154  0.0313  0.0926
 1332ERGO    R420765  10.502  10.204   6.365 -0.1331  0.5519  0.2288
 1332ERGO    R520766  10.609  10.394   6.365  0.2381  0.3537  0.0174
 1332ERGO    C120767  10.800  10.211   6.640 -0.1207  0.2812  0.2256
 1332ERGO    C220768  10.907  10.148   6.940 -0.0959 -0.3933  0.3411
 1333ERGO   ROH20769   4.620  15.521   5.384  0.2166 -0.0018 -0.0691
 1333ERGO    R120770   4.538  15.420   5.635  0.0264 -0.0509 -0.1488
 1333ERGO    R220771   4.597  15.163   5.719  0.0656 -0.0291 -0.1075
 1333ERGO    R320772   4.701  15.292   5.934 -0.1932  0.0093 -0.0015
 1333ERGO    R420773   4.691  15.009   6.013  0.0938 -0.0350 -0.1195
 1333ERGO    R520774   4.606  15.178   6.123 -0.1590 -0.1750 -0.0945
 1333ERGO    C120775   4.844  15.040   6.387 -0.1327 -0.0024 -0.0270
 1333ERGO    C220776   5.049  14.952   6.614  0.2259  0.1883  0.1922
 1334ERGO   ROH20777   1.664   6.302   5.110 -0.1964  0.1332  0.1692
 1334ERGO    R120778   1.565   6.253   5.371  0.0509 -0.1553  0.2160
 1334ERGO    R220779   1.710   6.117   5.563  0.4953  0.1599  0.1271
 1334ERGO    R320780   1.661   6.339   5.711  0.0232  0.0334  0.1747
 1334ERGO    R420781   1.676   6.122   5.906  0.3614  0.0184  0.1166
 1334ERGO    R520782   1.513   6.265   5.883  0.1021 -0.2830  0.1029
 1334ERGO    C120783   1.610   6.334   6.246 -0.1598 -0.1827  0.1551
 1334ERGO    C220784   1.746   6.297   6.594  0.0022  0.0341 -0.1134
 1335ERGO   ROH20785   6.867   5.026   4.957 -0.0775 -0.0253  0.0548
 1335ERGO    R120786   6.969   4.873   5.172 -0.0675 -0.0182  0.0543
 1335ERGO    R220787   7.125   4.982   5.372 -0.0641 -0.0120  0.0433
 1335ERGO    R320788   6.937   4.872   5.535 -0.0532 -0.0125  0.0567
 1335ERGO    R420789   7.166   4.925   5.711  0.0561 -0.2299 -0.0059
 1335ERGO    R520790   7.063   4.734   5.686 -0.0533 -0.1672 -0.0766
 1335ERGO    C120791   7.014   4.788   6.060  0.1364 -0.3572 -0.0219
 1335ERGO    C220792   7.147   4.743   6.322  0.0118 -0.0584 -0.3524
 1336ERGO   ROH20793   3.765  16.798   5.731  0.0157  0.2530  0.1503
 1336ERGO    R120794   3.960  16.752   5.931  0.0950  0.0709  0.0331
 1336ERGO    R220795   3.932  16.844   6.190  0.3281  0.0822  0.0552
 1336ERGO    R320796   3.974  16.583   6.253  0.1373  0.0404  0.0155
 1336ERGO    R420797   3.990  16.726   6.509  0.3518  0.0072  0.0235
 1336ERGO    R520798   4.139  16.590   6.426  0.2103 -0.1101 -0.0458
 1336ERGO    C120799   4.063  16.411   6.755  0.1865 -0.0756 -0.0322
 1336ERGO    C220800   3.820  16.297   7.087 -0.2430  0.0915  0.1751
 1337ERGO   ROH20801   5.649   6.618   5.307  0.1869 -0.0374  0.0300
 1337ERGO    R120802   5.743   6.721   5.554  0.1024 -0.1279  0.1000
 1337ERGO    R220803   5.595   6.897   5.708  0.1032 -0.0863  0.0511
 1337ERGO    R320804   5.635   6.711   5.901 -0.0909 -0.1413  0.0415
 1337ERGO    R420805   5.523   6.941   6.043  0.0915 -0.0486  0.0438
 1337ERGO    R520806   5.708   6.837   6.091 -0.0055 -0.2192  0.0630
 1337ERGO    C120807   5.519   6.792   6.420 -0.0975 -0.0783  0.0306
 1337ERGO    C220808   5.484   7.021   6.632 -0.2071  0.1586  0.2293
 1338ERGO   ROH20809  16.824   1.441   5.388  0.0944  0.0758  0.0416
 1338ERGO    R120810  16.639   1.540   5.577  0.0522 -0.0303  0.0551
 1338ERGO    R220811  16.526   1.380   5.773  0.1862 -0.0869  0.0834
 1338ERGO    R320812  16.623   1.572   5.940  0.0767 -0.0044  0.0544
 1338ERGO    R420813  16.438   1.415   6.105  0.0024  0.0474  0.0227
 1338ERGO    R520814  16.435   1.631   6.076 -0.0046  0.0363 -0.0719
 1338ERGO    C120815  16.476   1.616   6.455 -0.2070  0.2030 -0.0399
 1338ERGO    C220816  16.586   1.636   6.779 -0.3589 -0.0025 -0.1645
 1339ERGO   ROH20817   9.094   9.832   5.922  0.1603  0.0207 -0.0825
 1339ERGO    R120818   9.242   9.693   6.118  0.1119  0.1450  0.0454
 1339ERGO    R220819   9.225   9.753   6.387 -0.1146  0.1799  0.0316
 1339ERGO    R320820   9.168   9.488   6.410  0.0318  0.1478  0.0247
 1339ERGO    R420821   9.314   9.553   6.655 -0.1490  0.2492  0.0940
 1339ERGO    R520822   9.361   9.393   6.514  0.0233  0.2683  0.1394
 1339ERGO    C120823   9.312   9.188   6.832 -0.0315  0.2596  0.1238
 1339ERGO    C220824   9.113   9.111   7.073 -0.1240  0.0675  0.2496
 1340ERGO   ROH20825  14.348   3.619   5.719  0.0505  0.0831  0.0719
 1340ERGO    R120826  14.375   3.439   5.936  0.0199  0.0666  0.0627
 1340ERGO    R220827  14.597   3.278   5.968  0.0186  0.0672  0.0851
 1340ERGO    R320828  14.605   3.394   6.214 -0.0222  0.0497  0.0944
 1340ERGO    R420829  14.731   3.131   6.251  0.0098  0.0657  0.0882
 1340ERGO    R520830  14.565   3.213   6.366 -0.0123  0.0339  0.0770
 1340ERGO    C120831  14.817   3.154   6.647 -0.0336  0.0485  0.0988
 1340ERGO    C220832  15.147   2.974   6.764  0.0409 -0.0544 -0.1711
 1341ERGO   ROH20833  10.527  16.031   5.780  0.1455 -0.0912  0.0967
 1341ERGO    R120834  10.493  16.180   6.019 -0.0571 -0.1841  0.1281
 1341ERGO    R220835  10.325  16.098   6.222  0.0465 -0.4539  0.1108
 1341ERGO    R320836  10.548  16.125   6.374  0.0127 -0.1859  0.1169
 1341ERGO    R420837  10.332  16.086   6.568  0.0639 -0.5313  0.1077
 1341ERGO    R520838  10.476  16.249   6.566 -0.1576 -0.3317  0.1485
 1341ERGO    C120839  10.546  16.104   6.911  0.0422 -0.3248  0.1116
 1341ERGO    C220840  10.465  16.220   7.211 -0.0444 -0.2018  0.0782
 1342ERGO   ROH20841  13.596   9.755   5.122 -0.1147  0.3090  0.1715
 1342ERGO    R120842  13.602   9.872   5.380 -0.0187  0.1812  0.2287
 1342ERGO    R220843  13.373   9.924   5.525  0.0279  0.2044  0.2982
 1342ERGO    R320844  13.500   9.776   5.716  0.0048  0.0579  0.2008
 1342ERGO    R420845  13.278   9.905   5.857 -0.0462 -0.0985  0.2624
 1342ERGO    R520846  13.488   9.912   5.913 -0.0612 -0.1151  0.3167
 1342ERGO    C120847  13.341   9.756   6.229 -0.1108 -0.4124  0.1501
 1342ERGO    C220848  13.292   9.698   6.629  0.1878 -0.0500 -0.2774
 1343ERGO   ROH20849  12.042   5.936   5.169  0.0282 -0.1991  0.0410
 1343ERGO    R120850  11.905   6.024   5.400 -0.0074 -0.0827 -0.0239
 1343ERGO    R220851  11.851   5.858   5.614  0.0382  0.0453  0.0915
 1343ERGO    R320852  11.977   6.053   5.756 -0.0256  0.1846 -0.0410
 1343ERGO    R420853  11.860   5.877   5.959  0.2111  0.1785  0.0815
 1343ERGO    R520854  11.833   6.093   5.942  0.0491  0.1499  0.0203
 1343ERGO    C120855  11.982   6.072   6.293  0.2520  0.3869 -0.0486
 1343ERGO    C220856  12.018   6.030   6.502 -0.2192 -0.0160  0.1948
 1344ERGO   ROH20857   0.770   9.689   5.508 -0.1018  0.1172 -0.1144
 1344ERGO    R120858   0.665   9.767   5.760 -0.0129  0.0441 -0.0544
 1344ERGO    R220859   0.665   9.598   5.979  0.0997 -0.0059 -0.0934
 1344ERGO    R320860   0.793   9.807   6.098  0.1160 -0.0147 -0.0948
 1344ERGO    R420861   0.724   9.626   6.319 -0.0891  0.0902 -0.0666
 1344ERGO    R520862   0.676   9.838   6.305  0.0052  0.1075 -0.1730
 1344ERGO    C120863   0.879   9.838   6.628 -0.1837  0.1378 -0.0524
 1344ERGO    C220864   0.849   9.733   6.887 -0.2468  0.1219  0.0692
 1345ERGO   ROH20865  15.667  15.464   5.451 -0.2188  0.1819 -0.1395
 1345ERGO    R120866  15.534  15.585   5.670 -0.1319  0.1155 -0.0498
 1345ERGO    R220867  15.290  15.495   5.765 -0.0637  0.0490  0.0588
 1345ERGO    R320868  15.424  15.483   6.001  0.0584  0.0350 -0.0092
 1345ERGO    R420869  15.140  15.476   6.075  0.0907  0.2086  0.1456
 1345ERGO    R520870  15.291  15.614   6.151  0.2093  0.1466  0.0313
 1345ERGO    C120871  15.178  15.454   6.478  0.2953  0.2883  0.1323
 1345ERGO    C220872  15.234  15.465   6.813 -0.1748  0.1026  0.1538
 1346ERGO   ROH20873   0.677   6.353   4.892  0.1513  0.0944  0.0311
 1346ERGO    R120874   0.663   6.376   5.174  0.2951 -0.0165  0.0480
 1346ERGO    R220875   0.424   6.411   5.308  0.3967  0.2868  0.1527
 1346ERGO    R320876   0.508   6.192   5.447  0.1159  0.0891  0.0196
 1346ERGO    R420877   0.349   6.346   5.639  0.4428  0.2686  0.1603
 1346ERGO    R520878   0.553   6.275   5.667  0.3506 -0.0712  0.0373
 1346ERGO    C120879   0.382   6.103   5.962  0.2060  0.0725  0.0396
 1346ERGO    C220880   0.392   6.109   6.370  0.2668 -0.3168  0.0641
 1347W        W20881  10.993   6.582  13.227  0.3215 -0.0050  0.0890
 1348W        W20882   2.889   1.325  11.264 -0.0868  0.1909  0.0533
 1349W        W20883  14.966   8.917   4.291  0.0089 -0.0606  0.0066
 1350W        W20884  10.945   0.368  12.539  0.1153 -0.0127  0.3195
 1351W        W20885   2.725   9.608   1.475 -0.1109 -0.0244 -0.0194
 1352W        W20886  17.891  10.965   1.405  0.1295  0.0767 -0.1973
 1353W        W20887   3.513  14.212  10.317  0.0202 -0.0622  0.0536
 1354W        W20888   9.912  17.490   4.051  0.0737 -0.0676  0.2824
 1355W        W20889   1.234   3.571   0.686  0.0490 -0.1626  0.3249
 1356W        W20890  14.315  15.541  13.023 -0.0109 -0.1061 -0.1415
 1357W        W20891   2.963  15.567  13.370 -0.2843  0.1820  0.1008
 1358W        W20892   0.668   7.192   3.335 -0.0312 -0.0327  0.0108
 1359W        W20893   7.742   6.121   0.495  0.3187  0.0270  0.3370
 1360W        W20894  12.163   5.146  10.587  0.5788  0.1426 -0.3357
 1361W        W20895  16.136  16.652  13.697 -0.1367 -0.1597 -0.2910
 1362W        W20896   5.643   9.489  11.722 -0.0871 -0.2285  0.1843
 1363W        W20897  14.566  18.894   0.765 -0.0574  0.1789  0.1723
 1364W        W20898  10.828  15.676   3.707 -0.0823  0.1016 -0.5133
 1365W        W20899  17.472  10.404   2.539  0.2447  0.1385 -0.0189
 1366W        W20900   0.993  14.921   3.730  0.0347  0.3319  0.0104
 1367W        W20901  13.339  13.180   0.246  0.0777  0.2452 -0.1974
 1368W        W20902  14.296   2.076  13.198 -0.0999 -0.0455 -0.2137
 1369W        W20903   0.499  17.810   4.246  0.1586  0.0811 -0.0586
 1370W        W20904  11.973  11.826   1.265 -0.0949 -0.3431  0.0517
 1371W        W20905  11.312  12.388  11.731  0.0474  0.1104  0.0264
 1372W        W20906  19.113   4.517   1.433 -0.0066  0.1420 -0.1543
 1373W        W20907   2.820   9.112   1.525  0.4844 -0.1182  0.1770
 1374W        W20908   7.021   2.816   4.312  0.2796  0.1361 -0.2520
 1375W        W20909   3.381  15.322   3.336 -0.0185 -0.0688  0.1176
 1376W        W20910  11.043   5.862   4.557  0.1393  0.0688 -0.0144
 1377W        W20911  11.239   7.462   3.311  0.4667  0.2404  0.1244
 1378W        W20912  11.444   8.042   0.927 -0.2257  0.1052  0.2461
 1379W        W20913   9.330   3.973  14.286 -0.0333 -0.0538  0.0165
 1380W        W20914   5.761   7.039  12.428 -0.1765 -0.1622  0.1818
 1381W        W20915   3.951   0.436  11.035 -0.1952  0.4764 -0.0648
 1382W        W20916   9.070   8.144  13.990  0.1010 -0.1684  0.0900
 1383W        W20917  17.027  13.351   4.310  0.2161 -0.0438  0.2412
 1384W        W20918  11.860   8.265   1.211  0.0706  0.0102 -0.0922
 1385W        W20919   1.560  18.803  13.080 -0.0396 -0.1696 -0.0149
 1386W        W20920   1.370   9.624  13.636 -0.0881  0.1635  0.2360
 1387W        W20921  11.028   7.114   3.585 -0.0905 -0.1985 -0.1458
 1388W        W20922   2.558   7.606  14.776 -0.1270  0.2692  0.1791
 1389W        W20923   9.362   7.206  11.494  0.1841  0.1051  0.0363
 1390W        W20924  11.099  12.852  11.650 -0.1033 -0.0086 -0.1165
 1391W        W20925   8.081   9.844   1.398  0.1655  0.0220 -0.1576
 1392W        W20926   4.012  10.220   1.558  0.2023  0.0365 -0.2435
 1393W        W20927  13.884   2.077   2.512  0.0704  0.1383 -0.0080
 1394W        W20928   5.477  16.029  14.406 -0.2144 -0.1881 -0.1518
 1395W        W20929   1.812   2.371  14.415  0.0389  0.1178 -0.3339
 1396W        W20930  16.688  10.093   2.860 -0.1277  0.0095  0.2761
 1397W        W20931   4.896   4.095   1.706 -0.1558 -0.0768  0.1406
 1398W        W20932   1.396   4.133   1.062 -0.1020  0.0195 -0.0135
 1399W        W20933   5.156  12.945  11.367  0.0251  0.1417  0.1623
 1400W        W20934   2.825   4.201  14.298 -0.2497  0.0638  0.1018
 1401W        W20935   7.490   3.923  14.454  0.0666  0.1691  0.2266
 1402W        W20936  14.454   7.376   3.658 -0.0600  0.3666 -0.1148
 1403W        W20937  14.545   5.000  11.170 -0.2124  0.0583  0.0523
 1404W        W20938   6.844   9.804  13.036 -0.2214  0.1875  0.1041
 1405W        W20939  17.563   7.692  13.900 -0.1420 -0.0003  0.2229
 1406W        W20940  18.245   8.828   0.724  0.2055 -0.2958 -0.2157
 1407W        W20941  12.393   9.671  14.088  0.0345 -0.4792 -0.5137
 1408W        W20942   9.415  13.770  11.608 -0.2302 -0.1735 -0.1642
 1409W        W20943   7.152  15.445  14.217 -0.1298  0.5206  0.0871
 1410W        W20944   1.620  10.514  13.972  0.5713  0.1739  0.1710
 1411W        W20945   8.718  17.503   0.958 -0.1185 -0.2311  0.1682
 1412W        W20946  10.951   5.958   1.899  0.0260  0.2306  0.0166
 1413W        W20947  15.917  14.989   1.314 -0.1568 -0.0429 -0.0201
 1414W        W20948  13.512   3.651   0.745 -0.3298 -0.0669 -0.0538
 1415W        W20949  13.210  16.231  11.019 -0.0596  0.0049 -0.2738
 1416W        W20950  14.812  17.967  12.969 -0.0278  0.1425  0.1033
 1417W        W20951  13.014  15.976  11.586  0.2008  0.0773  0.0833
 1418W        W20952   2.048  11.552  11.880 -0.1129 -0.1275  0.1115
 1419W        W20953  10.047   5.734   0.651 -0.1657  0.1522  0.1460
 1420W        W20954   3.664  13.773  12.891 -0.0544 -0.2187 -0.4101
 1421W        W20955   5.162   9.438  13.164 -0.0042 -0.2778  0.4371
 1422W        W20956   3.332   8.836   0.605  0.0605 -0.1502 -0.2661
 1423W        W20957  11.526  10.522   2.956  0.0438  0.1985  0.2798
 1424W        W20958   5.048  16.073  11.563 -0.0106  0.1514  0.1452
 1425W        W20959  11.147   3.349  13.311  0.0531 -0.2376 -0.0969
 1426W        W20960  11.481   9.374   4.009 -0.2028  0.0901  0.1165
 1427W        W20961   1.013   6.110   1.912  0.2925  0.2187 -0.2456
 1428W        W20962   8.346  14.653   2.798  0.0739  0.1333 -0.1096
 1429W        W20963  14.418  18.939   0.231 -0.0911  0.1437 -0.5060
 1430W        W20964   9.320  11.307  13.294 -0.3695  0.1366 -0.0860
 1431W        W20965  15.891  11.322   3.804  0.2775 -0.0736  0.0856
 1432W        W20966  10.311  12.216  14.380  0.0202  0.0999 -0.1790
 1433W        W20967  16.075   4.516  14.528  0.4686  0.0138  0.1102
 1434W        W20968  15.112   3.513  11.813 -0.1105 -0.1452 -0.2749
 1435W        W20969   1.993  14.195   4.599 -0.0981  0.1671 -0.1801
 1436W        W20970  14.122   4.958   1.430  0.0569 -0.0553 -0.1124
 1437W        W20971   1.965  11.065  14.311 -0.1070  0.0547  0.0169
 1438W        W20972   6.564  13.226   1.351 -0.0533 -0.1270 -0.1631
 1439W        W20973  14.362   4.601   1.152  0.1175 -0.1077 -0.0603
 1440W        W20974  10.683   1.942   1.690  0.3265 -0.1384  0.0200
 1441W        W20975   5.480   1.474   4.055  0.2233 -0.2068 -0.0935
 1442W        W20976  15.354   5.031  10.577 -0.1756  0.1239 -0.3942
 1443W        W20977  12.389  16.972   1.848 -0.1265 -0.1012 -0.1433
 1444W        W20978  11.224  14.611   5.083  0.1027 -0.1032 -0.2023
 1445W        W20979   6.661  18.771   2.723 -0.2289  0.1148 -0.1059
 1446W        W20980  13.076  18.292  13.682 -0.1216 -0.2202  0.5719
 1447W        W20981   2.843   4.166   1.290 -0.0305 -0.2944  0.0468
 1448W        W20982  15.081  11.472   0.878 -0.0284 -0.2609 -0.2014
 1449W        W20983   4.122   0.187   2.068 -0.0574  0.0822 -0.1745
 1450W        W20984   6.739   9.671   3.806 -0.1927 -0.2540  0.0229
 1451W        W20985   7.319  18.076  11.107 -0.0552  0.2577  0.0037
 1452W        W20986  15.560  19.084  14.324  0.1589 -0.2171  0.0007
 1453W        W20987   8.042   7.112  14.435  0.2832 -0.0778  0.0074
 1454W        W20988  14.771   9.002   3.751 -0.0186  0.0506 -0.0902
 1455W        W20989  17.886  16.394   3.902  0.0663  0.2082 -0.1195
 1456W        W20990   0.554   8.571  14.262  0.1698 -0.1280  0.1765
 1457W        W20991  12.017  18.739  11.176  0.4581 -0.0272 -0.3155
 1458W        W20992   1.707  14.073  13.837 -0.2318  0.1599  0.1600
 1459W        W20993  10.735   3.249  11.383 -0.2650 -0.2718 -0.5203
 1460W        W20994  16.222   3.631  13.001  0.2864 -0.1245 -0.0311
 1461W        W20995   0.499  13.876   0.067  0.1510 -0.2919  0.0971
 1462W        W20996   4.640   6.669   3.061  0.2734 -0.3406  0.0848
 1463W        W20997  14.291  18.248  11.703  0.0805  0.1791  0.0476
 1464W        W20998   3.411  18.760  11.278 -0.1984  0.0322 -0.2016
 1465W        W20999   0.808   7.964  11.830 -0.0481  0.0655 -0.0395
 1466W        W21000  11.682   4.412   0.052  0.0466  0.0211  0.3296
 1467W        W21001   8.493   5.758   3.771  0.1195  0.0946  0.0130
 1468W        W21002   1.994   8.568  13.630 -0.0655  0.1103  0.2876
 1469W        W21003  10.960   5.754  10.911  0.2383  0.2029  0.2968
 1470W        W21004  18.875   2.232   0.617  0.1075  0.0073  0.0062
 1471W        W21005  15.697  19.064   0.157 -0.2656  0.2633 -0.0553
 1472W        W21006  10.074   8.219  10.731 -0.2629  0.1261  0.2706
 1473W        W21007  11.671   5.973  13.631 -0.1035 -0.0337 -0.0138
 1474W        W21008  15.811  16.586  12.309  0.1305  0.2839  0.0088
 1475W        W21009   7.460  17.638   0.658  0.3490 -0.0246 -0.0601
 1476W        W21010   5.045  11.343  14.380 -0.2260 -0.2660 -0.0642
 1477W        W21011  13.564  10.789  11.674 -0.0898 -0.1107 -0.1183
 1478W        W21012  12.984  19.001   2.552 -0.3877  0.1178  0.0474
 1479W        W21013   9.812  11.248  14.119 -0.0053 -0.0127  0.0413
 1480W        W21014   0.443  17.774   0.621 -0.1061  0.1729  0.2907
 1481W        W21015  12.681  15.289  13.834  0.1690 -0.0405  0.2044
 1482W        W21016   5.131  15.787   3.084  0.0647 -0.1475 -0.3043
 1483W        W21017  18.556   8.530   0.498 -0.1720  0.0979 -0.2873
 1484W        W21018  15.876  15.517  12.853 -0.0656  0.1072  0.2824
 1485W        W21019  12.579   9.960  11.458  0.0242  0.3702  0.0515
 1486W        W21020  13.229   8.010   0.660 -0.0668  0.1580 -0.1250
 1487W        W21021  13.112   2.188  10.594  0.0536  0.0851  0.2728
 1488W        W21022   6.234  12.808  13.227  0.0909 -0.1853  0.0153
 1489W        W21023  17.613   5.176   1.524 -0.0370 -0.0399  0.2987
 1490W        W21024   8.365   4.512   0.234  0.1931 -0.0801  0.2205
 1491W        W21025  11.629  16.565   4.123 -0.0251 -0.0226  0.0226
 1492W        W21026  16.015  16.949   1.623 -0.1977  0.1298 -0.2668
 1493W        W21027   5.071   3.599  11.784  0.2686 -0.2311  0.3539
 1494W        W21028  13.817   1.289   0.643 -0.1189  0.0562  0.2207
 1495W        W21029  13.956  16.997  13.620 -0.0738  0.0294 -0.2933
 1496W        W21030   4.494   9.438  13.891 -0.0025  0.3336  0.2501
 1497W        W21031   7.246   7.810  14.839 -0.0094  0.0749  0.1162
 1498W        W21032   3.801  16.188  11.753 -0.2186  0.0771  0.0928
 1499W        W21033  15.782   4.945  12.110 -0.0512  0.3189  0.0923
 1500W        W21034   1.651  11.646   4.350 -0.1510 -0.0568 -0.2647
 1501W        W21035   4.169   6.058  10.590  0.2785  0.2424  0.1993
 1502W        W21036   1.403  11.148   4.129 -0.2373  0.1058 -0.2009
 1503W        W21037  13.692   9.060  12.552  0.0760  0.1763  0.4483
 1504W        W21038  10.675  15.424   2.956 -0.0450  0.3120  0.1278
 1505W        W21039  12.441   4.101   3.658  0.0869 -0.1332 -0.0346
 1506W        W21040   3.186   6.024  10.783  0.2163  0.0212  0.1162
 1507W        W21041   8.528   3.682   0.976  0.2461  0.2887 -0.0571
 1508W        W21042   0.892   2.898   2.967 -0.2495 -0.0261 -0.1246
 1509W        W21043  11.205  18.034  14.790 -0.0660  0.0210  0.1525
 1510W        W21044  16.689  12.275   1.243  0.0283 -0.0957  0.0857
 1511W        W21045   9.622   3.327  13.471 -0.1285  0.2317 -0.1688
 1512W        W21046   7.546   9.828   0.210  0.2736 -0.1941 -0.2645
 1513W        W21047   1.628  10.840   3.799  0.0473  0.0044 -0.0076
 1514W        W21048   1.944   8.293   4.236  0.1683 -0.0247 -0.0590
 1515W        W21049  17.161  15.229  13.040  0.2031 -0.0156  0.0178
 1516W        W21050  15.536   9.721   3.775 -0.3381  0.1739  0.2029
 1517W        W21051  18.322   8.975   2.779  0.0708  0.0078  0.1424
 1518W        W21052   6.066  10.498  14.356 -0.3727  0.2003  0.0391
 1519W        W21053   8.295   6.053  11.414 -0.2158  0.1848  0.0400
 1520W        W21054   1.435   2.738  14.549  0.1427 -0.1507  0.0346
 1521W        W21055  15.997  17.663  12.659  0.0389 -0.0420  0.1790
 1522W        W21056   8.022   4.678   2.290 -0.1276 -0.1460  0.1649
 1523W        W21057  15.877   8.391   2.761  0.1560  0.0294 -0.2442
 1524W        W21058  13.095   9.784  11.015  0.3246 -0.1027  0.0435
 1525W        W21059   2.979  18.953  11.475 -0.0323  0.1244  0.1309
 1526W        W21060  16.950  15.355  13.878 -0.1601  0.2698  0.0039
 1527W        W21061  11.606   8.578  12.918 -0.0037 -0.0383  0.2096
 1528W        W21062   5.025  10.426   2.329 -0.0381  0.2127  0.1681
 1529W        W21063  18.776   6.075   0.037  0.0524 -0.0151  0.1377
 1530W        W21064   3.638   1.029   2.317  0.0032 -0.0725 -0.0298
 1531W        W21065   2.275   3.558   0.813  0.2391  0.0130 -0.1707
 1532W        W21066  18.608   9.054  12.240 -0.3265 -0.2326 -0.0516
 1533W        W21067  16.683   6.676   1.139  0.0954  0.0853 -0.1798
 1534W        W21068   6.489  17.961   0.012 -0.0403 -0.2586 -0.0459
 1535W        W21069  15.857  12.091  12.773 -0.1562 -0.0954 -0.0265
 1536W        W21070   2.057  11.523   0.801 -0.2866 -0.1370 -0.1630
 1537W        W21071   6.725  18.164   3.417 -0.3011 -0.1364 -0.2164
 1538W        W21072   9.750  15.412   2.909 -0.0009 -0.0169  0.0046
 1539W        W21073  16.618  19.024  13.152 -0.1646  0.0707 -0.0928
 1540W        W21074  19.113  10.935  14.266  0.1878 -0.1261 -0.0223
 1541W        W21075   4.842  17.062   1.490 -0.1677 -0.0954  0.0207
 1542W        W21076   1.965  18.360   0.195  0.0945 -0.0897 -0.3465
 1543W        W21077   3.648   3.638  13.544 -0.2006  0.1011 -0.1170
 1544W        W21078  15.653  12.025  12.328  0.3658 -0.1686  0.0242
 1545W        W21079  11.460   5.465  14.656 -0.0001  0.0011 -0.0421
 1546W        W21080  11.988   8.600  11.340 -0.1879  0.0113  0.0957
 1547W        W21081   3.049  15.341  12.333  0.1239 -0.0544  0.2954
 1548W        W21082   1.228  14.188   2.561  0.1480 -0.1337 -0.1407
 1549W        W21083   2.025   3.262   3.612 -0.1170  0.0370  0.0550
 1550W        W21084   6.115   5.506  10.239  0.2405  0.2194  0.3926
 1551W        W21085   6.877   6.316   1.617  0.0083  0.1195 -0.0913
 1552W        W21086  18.429   3.775  11.824 -0.2419  0.1738  0.0591
 1553W        W21087  17.619  17.332  13.931 -0.0856  0.3929 -0.0182
 1554W        W21088   1.196   5.992  10.980 -0.2274 -0.1672 -0.0423
 1555W        W21089   2.888  13.541  12.547 -0.1719  0.1817  0.1760
 1556W        W21090   9.074   9.595   4.468 -0.1320  0.0873  0.0091
 1557W        W21091  12.616  17.256   1.004  0.0536  0.0418  0.0305
 1558W        W21092   1.868  16.681  11.821 -0.2207  0.1405  0.3101
 1559W        W21093  18.100  15.475  13.741 -0.1029 -0.3019 -0.2247
 1560W        W21094  10.843  18.289   4.308  0.0780  0.0186  0.0797
 1561W        W21095  14.653  10.312   1.413 -0.1317  0.0578  0.0279
 1562W        W21096   4.570  16.319  11.626  0.0286  0.2027  0.1703
 1563W        W21097   5.059   4.994  10.574 -0.0791 -0.1880  0.3716
 1564W        W21098   1.797   3.969   3.373  0.1560 -0.0893 -0.0371
 1565W        W21099   6.119   5.892  11.793  0.2535 -0.1478  0.1728
 1566W        W21100   5.933  18.477  10.190 -0.0360  0.0735 -0.0399
 1567W        W21101   5.821   0.228  14.381  0.2669  0.3116  0.0273
 1568W        W21102  18.762   4.941  11.167 -0.0459  0.0673  0.2630
 1569W        W21103  13.556  18.281   1.160 -0.4357  0.0366  0.4499
 1570W        W21104   2.963  14.556  14.085 -0.2183 -0.0977  0.0643
 1571W        W21105   4.302  14.858   3.049  0.0530  0.2241 -0.0871
 1572W        W21106   2.938   4.565  13.252 -0.0167 -0.0823 -0.1107
 1573W        W21107  14.313  14.379  11.445 -0.1493 -0.1294  0.3175
 1574W        W21108  12.777   1.462   2.493  0.3121 -0.2145  0.2797
 1575W        W21109   1.316   7.522   1.883  0.1893  0.2102  0.1782
 1576W        W21110   2.996  12.548  11.480  0.0859  0.1410  0.3411
 1577W        W21111  10.895  10.915   2.358  0.0632  0.1438  0.0290
 1578W        W21112  10.520  17.679   0.326 -0.1344  0.1293  0.2312
 1579W        W21113   4.918  14.849  13.725 -0.0402 -0.3562  0.2574
 1580W        W21114  11.983  10.459   0.299  0.0059 -0.0032  0.0434
 1581W        W21115   9.041   7.684   2.009  0.2691 -0.3576  0.1797
 1582W        W21116   2.415  18.841  12.718  0.1752 -0.1789  0.0450
 1583W        W21117  13.450  18.038  12.930 -0.0062 -0.2156 -0.2802
 1584W        W21118  11.674   6.049   3.778  0.1837  0.1595  0.2170
 1585W        W21119  13.090   9.100   4.145 -0.1704  0.2006 -0.0481
 1586W        W21120  16.124  11.758  12.276 -0.1199 -0.0807  0.0240
 1587W        W21121  14.844  13.278   3.420 -0.0874  0.0382 -0.1325
 1588W        W21122   1.246  12.939   3.861  0.1582 -0.0356  0.2455
 1589W        W21123   9.796   4.851   2.705 -0.0900 -0.1386 -0.0798
 1590W        W21124   0.900  12.315  11.919  0.1096 -0.0418  0.2308
 1591W        W21125  13.413  15.312   2.400  0.4959 -0.1241 -0.1452
 1592W        W21126   2.905   5.916   0.900  0.1171 -0.0225 -0.0394
 1593W        W21127  15.797   5.271   9.220  0.0895  0.0099 -0.2063
 1594W        W21128  17.113  12.098   1.427  0.0207 -0.3506  0.1273
 1595W        W21129   8.878   2.642   3.086  0.0054 -0.0670 -0.0769
 1596W        W21130  11.432   6.518  12.206  0.1934 -0.0908  0.0969
 1597W        W21131  18.760   3.040   0.164 -0.2795  0.1636  0.0014
 1598W        W21132   1.522  18.885   3.438  0.4554 -0.1408  0.3259
 1599W        W21133   5.037   4.632   2.136 -0.2402  0.0436  0.0898
 1600W        W21134  14.926  10.541   2.979  0.5641 -0.0137 -0.3566
 1601W        W21135   9.527   9.967   3.368 -0.1602 -0.4317 -0.1786
 1602W        W21136  10.308  16.567   0.812 -0.0278  0.0471 -0.0852
 1603W        W21137   8.800  11.930  12.798 -0.1248  0.4975 -0.0027
 1604W        W21138  18.204  13.382  12.797  0.2211  0.0982 -0.0357
 1605W        W21139   7.515   7.197   1.499 -0.3382 -0.1421 -0.3373
 1606W        W21140  13.231  14.966  11.818  0.0308 -0.3302  0.1571
 1607W        W21141  13.090   2.300   0.107  0.1021 -0.2674  0.1514
 1608W        W21142  18.433   2.027  11.156  0.0361 -0.1588 -0.1215
 1609W        W21143   8.735  19.045  12.466  0.1196  0.3959  0.0487
 1610W        W21144   3.150   0.507  14.605  0.1382 -0.0835  0.0976
 1611W        W21145  12.146   9.078  11.507 -0.0197  0.0076 -0.1055
 1612W        W21146   5.361   3.180  10.764  0.1087 -0.3285  0.2172
 1613W        W21147  11.384  13.317  12.961  0.1539 -0.2533 -0.0261
 1614W        W21148  10.583   4.774   2.614 -0.0874  0.0331  0.0243
 1615W        W21149  15.631  18.264   1.187 -0.2867 -0.1480  0.0001
 1616W        W21150  14.968  16.372   3.022  0.1869 -0.0331  0.2464
 1617W        W21151   2.319  13.566  14.639  0.2319  0.1885 -0.2217
 1618W        W21152   4.126   1.779  13.392 -0.2180  0.0732  0.1268
 1619W        W21153  14.672   4.842   1.556  0.0621  0.0816  0.0518
 1620W        W21154  13.849   3.841  13.718 -0.1265 -0.0558 -0.1202
 1621W        W21155  13.501   0.970  14.730  0.0427  0.1079 -0.1709
 1622W        W21156   5.402   9.912  12.299 -0.1304  0.1502  0.0886
 1623W        W21157   5.771  17.764   2.031 -0.0437  0.2781  0.1374
 1624W        W21158  15.924  16.751   4.049 -0.0742  0.0923  0.0208
 1625W        W21159   2.567   1.566  11.494  0.0153 -0.3298  0.1398
 1626W        W21160   7.871   5.885  12.534 -0.3629 -0.0726 -0.0617
 1627W        W21161  12.475   2.840  14.032 -0.2009  0.1068 -0.0305
 1628W        W21162   0.967   8.436  14.003  0.1020  0.0221  0.2522
 1629W        W21163  15.113   4.282   3.911 -0.2942 -0.0680  0.3138
 1630W        W21164  10.946  18.603  12.721 -0.0098 -0.1939 -0.3495
 1631W        W21165  17.840   2.977   1.204 -0.0665  0.0119  0.2220
 1632W        W21166   0.718  15.310   3.645  0.2183  0.1087 -0.0013
 1633W        W21167  13.732  18.635  12.337  0.0077  0.1272 -0.2138
 1634W        W21168  18.803   2.563   0.251  0.2809  0.1031 -0.2836
 1635W        W21169   7.154   2.543   1.165  0.1352  0.0962  0.3057
 1636W        W21170  16.544   0.133  14.019 -0.1362 -0.0825  0.2647
 1637W        W21171   5.074  13.091   1.871  0.1952  0.1938  0.0932
 1638W        W21172   8.314  12.636   0.160 -0.0300 -0.0807 -0.4042
 1639W        W21173   0.010  11.256  13.497  0.3069  0.0061  0.1009
 1640W        W21174   8.238   4.986  12.421 -0.1806  0.2190  0.3888
 1641W        W21175   4.571  18.193  10.873  0.1559  0.0673 -0.3105
 1642W        W21176   8.771  15.450  13.717  0.0484 -0.3074  0.3120
 1643W        W21177  12.030  11.469  13.137  0.0552 -0.1596 -0.2052
 1644W        W21178  16.556  16.423  11.598  0.0027  0.1969 -0.0244
 1645W        W21179   3.816  11.623   1.617 -0.1232 -0.3454  0.0176
 1646W        W21180  12.366   9.209   2.061  0.4217 -0.1713 -0.1241
 1647W        W21181  11.182  14.826  13.212 -0.2865 -0.1278 -0.3243
 1648W        W21182  11.592  18.382   2.734 -0.0968  0.1275  0.1843
 1649W        W21183   1.852   9.987   3.420  0.1388 -0.0614  0.1782
 1650W        W21184  10.298  17.306   1.024 -0.2443 -0.0100 -0.2067
 1651W        W21185  14.109   0.020  13.665 -0.0372  0.1047 -0.0319
 1652W        W21186   7.352  14.690   1.686 -0.1824  0.0190  0.0847
 1653W        W21187   4.906   6.327  14.519  0.0016  0.0047 -0.4263
 1654W        W21188  16.970  13.219  13.262  0.1069  0.0824  0.2677
 1655W        W21189  14.504   3.293  14.328 -0.1003 -0.2793 -0.0969
 1656W        W21190   3.774   7.437   0.131  0.0832  0.1447  0.0938
 1657W        W21191   3.601   0.533   0.718  0.2397 -0.0744  0.0676
 1658W        W21192   1.840  17.097   2.907 -0.1020  0.2862  0.1121
 1659W        W21193   7.197   9.095   2.820 -0.1117 -0.1381  0.2367
 1660W        W21194   9.408   9.923   2.283 -0.0169  0.1103  0.1943
 1661W        W21195   1.907  10.307   1.019 -0.2245 -0.0337  0.0930
 1662W        W21196  16.124   8.622  13.110 -0.1643  0.3590 -0.1803
 1663W        W21197   2.028   8.931  13.276  0.0822  0.3412 -0.1560
 1664W        W21198   6.906   3.695   1.570 -0.1342  0.0783 -0.0119
 1665W        W21199   8.013  10.058  12.752  0.0980 -0.2478 -0.0798
 1666W        W21200   4.481   6.263   1.556 -0.0817  0.0447  0.3234
 1667W        W21201  12.434  10.789   0.496  0.0402  0.1179  0.3123
 1668W        W21202   8.826   7.340  13.989 -0.2526 -0.0291  0.0651
 1669W        W21203  15.277   4.441  11.267 -0.1577  0.0889 -0.1723
 1670W        W21204   7.592  14.968   3.056  0.0035 -0.1004  0.2511
 1671W        W21205   9.551  17.992  11.346  0.0839  0.2174 -0.0217
 1672W        W21206   6.929  16.191   3.571  0.1543 -0.1677  0.2342
 1673W        W21207   3.731   6.538   0.623  0.4793 -0.0400 -0.0937
 1674W        W21208   4.456  15.788  12.799  0.0447  0.2183 -0.0406
 1675W        W21209   8.580   6.725  13.242  0.1456 -0.3237 -0.1478
 1676W        W21210   0.579   2.359   1.745  0.1719  0.2394 -0.0507
 1677W        W21211   2.912  17.503   2.451 -0.3246  0.0542 -0.1641
 1678W        W21212   7.158  12.255   2.073 -0.4772 -0.1508 -0.4101
 1679W        W21213   2.495  11.209   1.954 -0.0827  0.1321 -0.1006
 1680W        W21214  11.039  14.389   3.124  0.0668 -0.0975  0.2056
 1681W        W21215   1.687  16.142  10.825  0.1438 -0.0709 -0.0253
 1682W        W21216   2.683  13.205   0.009  0.0811 -0.2009 -0.0768
 1683W        W21217  12.734   6.348  13.212  0.2136  0.1236 -0.1225
 1684W        W21218  16.538   1.932  13.906  0.1368  0.3173 -0.0599
 1685W        W21219  15.439  14.504  10.748  0.0827 -0.3555  0.1774
 1686W        W21220  14.593  10.379   2.385 -0.1166  0.0452  0.1006
 1687W        W21221  18.435  18.286   3.100  0.0563 -0.0713 -0.2565
 1688W        W21222  13.409   5.180   3.947 -0.1294 -0.1120  0.0332
 1689W        W21223   0.486  12.069  13.737 -0.1880  0.0685  0.0995
 1690W        W21224   7.015  10.701   1.065 -0.0953  0.2059 -0.1433
 1691W        W21225  15.535  16.847   2.438  0.0109 -0.0883 -0.2380
 1692W        W21226  15.339   7.165  12.562  0.1733  0.1028 -0.1097
 1693W        W21227   7.242   3.274  14.414 -0.0788  0.1741 -0.1931
 1694W        W21228   1.897   4.236  13.786  0.0812  0.2294 -0.0311
 1695W        W21229  18.160   6.560  12.746  0.3134 -0.1751  0.0227
 1696W        W21230  18.287   3.274  12.030  0.0015 -0.1356  0.0523
 1697W        W21231   8.198  16.486  14.320  0.1908 -0.3019  0.0473
 1698W        W21232   0.896   5.310  13.398 -0.0966  0.3822  0.0200
 1699W        W21233  14.104   0.690   2.686  0.0462  0.0218 -0.3551
 1700W        W21234  15.828   6.902  13.895  0.0984  0.0793  0.2173
 1701W        W21235   5.214   9.153   3.620 -0.1599 -0.1501 -0.4128
 1702W        W21236   7.510  16.570  11.796  0.1935  0.1651 -0.1902
 1703W        W21237   0.171   4.306   2.414 -0.3700  0.1366  0.0547
 1704W        W21238   3.417   4.751   2.403  0.1165  0.1931  0.0557
 1705W        W21239   8.988  12.943  12.449  0.1118 -0.2609  0.0736
 1706W        W21240   9.849   8.075   2.839 -0.0819  0.0966  0.2421
 1707W        W21241   9.032  13.642   3.646 -0.4221  0.1834 -0.0122
 1708W        W21242   9.282  18.457  11.293 -0.0085 -0.0412 -0.0484
 1709W        W21243   5.696   4.427   2.899 -0.2599 -0.2348 -0.3956
 1710W        W21244   5.670   4.318  12.965  0.4553 -0.1047  0.1299
 1711W        W21245   2.959   3.762   1.525 -0.0209 -0.0988 -0.0829
 1712W        W21246   3.768   4.500  13.356 -0.1087  0.1625  0.1601
 1713W        W21247   8.209  16.326   0.598 -0.3621  0.0023 -0.2560
 1714W        W21248   6.420  10.592   3.682  0.2701  0.0991  0.1896
 1715W        W21249   1.496  16.827   1.330  0.3833 -0.0542 -0.0623
 1716W        W21250   7.046  17.299  11.260  0.1674  0.0970  0.1214
 1717W        W21251   7.264  17.412   1.741 -0.0131  0.1644  0.0776
 1718W        W21252   7.800   2.999  11.641 -0.3370 -0.1213 -0.0017
 1719W        W21253   1.439   7.640  13.524  0.1696 -0.1870 -0.3853
 1720W        W21254  16.050   1.222  13.568  0.2917 -0.2928 -0.3174
 1721W        W21255   2.445  14.418   1.033 -0.0464  0.0496 -0.2320
 1722W        W21256  10.251  14.987  13.285 -0.1063 -0.1853  0.3518
 1723W        W21257  17.360  11.217   2.178 -0.0478 -0.1219  0.3124
 1724W        W21258   9.731  10.417   2.182 -0.1953 -0.1858  0.2011
 1725W        W21259  13.511   0.719   1.372 -0.0524 -0.0209  0.0334
 1726W        W21260  11.027  19.120  11.569 -0.1225 -0.0435 -0.2020
 1727W        W21261  17.814   2.913  14.360 -0.1529 -0.0414 -0.0688
 1728W        W21262  13.890  13.993   2.701  0.0804 -0.1215 -0.3548
 1729W        W21263   2.943   4.478  12.769  0.0454  0.0908 -0.0059
 1730W        W21264   7.064   6.085  10.619  0.3227 -0.2715  0.2131
 1731W        W21265   2.780  16.719  14.314  0.0318  0.2227  0.2633
 1732W        W21266  12.504   6.451  11.305 -0.2517 -0.2288  0.3493
 1733W        W21267   2.625   0.237  11.430 -0.1110 -0.2687 -0.0094
 1734W        W21268   9.652   3.711   3.655  0.0537  0.1050  0.2616
 1735W        W21269   2.021  19.070  12.982  0.1741  0.1261 -0.0330
 1736W        W21270   3.101   5.443  10.745 -0.3033  0.0340  0.2476
 1737W        W21271  16.653  15.682   2.961 -0.0203  0.4958 -0.0561
 1738W        W21272  15.934  16.951   3.144  0.0100 -0.1391  0.0919
 1739W        W21273  15.593   6.675   4.179 -0.0349 -0.0927  0.1036
 1740W        W21274  18.652  11.500   4.233  0.1254  0.2465 -0.1322
 1741W        W21275  18.222   8.314  14.540  0.1915 -0.3059 -0.0401
 1742W        W21276   3.171  11.581   3.072 -0.0501 -0.1433 -0.3825
 1743W        W21277  14.131  17.461   0.927  0.0143  0.2222 -0.1205
 1744W        W21278  13.476  10.170   2.395  0.2052 -0.0145 -0.0742
 1745W        W21279  11.616   9.756   4.272  0.0168 -0.1727 -0.0366
 1746W        W21280   1.232  10.113   2.139 -0.0771 -0.1517 -0.0668
 1747W        W21281   4.822  13.695  13.396  0.0059  0.0738 -0.0049
 1748W        W21282   5.496   9.764   1.683  0.0907  0.0187 -0.2099
 1749W        W21283   9.808   9.932  14.555 -0.0626 -0.0474  0.1848
 1750W        W21284   7.153   9.408  11.733 -0.0118  0.0457  0.3472
 1751W        W21285   0.479   0.557   3.441 -0.1170  0.0426  0.1797
 1752W        W21286   2.314  13.437  11.692 -0.0358 -0.1557  0.0085
 1753W        W21287   5.775   8.397  11.537 -0.2097  0.0945  0.1051
 1754W        W21288  14.897   5.833  12.212 -0.1088  0.2249  0.0756
 1755W        W21289  18.371  18.398   4.665  0.1287 -0.0267 -0.1866
 1756W        W21290   0.071  18.577  12.946 -0.0787  0.1485 -0.2339
 1757W        W21291  13.225  17.119   1.609  0.1048  0.0880  0.1274
 1758W        W21292  10.714  11.291   4.340 -0.1324  0.0224 -0.0572
 1759W        W21293  14.821   9.681  10.733  0.2830 -0.1178  0.0724
 1760W        W21294  19.009  14.974  13.546 -0.1596 -0.0510 -0.2268
 1761W        W21295   6.369   7.161  11.844 -0.4314 -0.2397  0.1202
 1762W        W21296   5.824  16.752   0.675 -0.1746 -0.1090 -0.0277
 1763W        W21297   1.246   1.766   1.812 -0.1197  0.0130 -0.0134
 1764W        W21298  15.242   9.240  13.424  0.0200  0.1455 -0.0187
 1765W        W21299   7.645   3.532  11.599  0.1030 -0.1492 -0.2597
 1766W        W21300  11.060   3.592   5.090  0.1294 -0.0586 -0.1903
 1767W        W21301   3.150   9.589  13.577 -0.0139  0.0816  0.0511
 1768W        W21302   5.328   3.647   3.038  0.0162  0.0116  0.0288
 1769W        W21303  13.486   4.928   3.459 -0.1120  0.1237 -0.1252
 1770W        W21304  15.151   3.265  10.836  0.0985 -0.3381  0.1621
 1771W        W21305   3.376   9.849   2.379  0.1516 -0.0838  0.2047
 1772W        W21306   4.754  13.888   3.232 -0.2590 -0.0938  0.3156
 1773W        W21307  16.541  11.879  13.793  0.1599  0.3144 -0.2346
 1774W        W21308  12.936  15.466  13.341 -0.3379  0.0157  0.2938
 1775W        W21309  11.177   8.117  11.711  0.1379  0.0768 -0.0480
 1776W        W21310  13.261   5.919  10.920 -0.0338 -0.1525 -0.2354
 1777W        W21311  15.885  11.951  11.863  0.2994  0.0452  0.4315
 1778W        W21312  16.488  14.026  14.794  0.1418  0.0410 -0.2252
 1779W        W21313   5.691  11.763  13.627 -0.0209 -0.0320 -0.1609
 1780W        W21314  11.598  10.617  10.335 -0.2289  0.1914  0.1635
 1781W        W21315  19.071   4.280  11.361 -0.0329  0.0585  0.1144
 1782W        W21316   0.282   8.373   3.681  0.3741  0.0843  0.0362
 1783W        W21317  16.725   5.796   2.010  0.3175 -0.0895  0.0799
 1784W        W21318  14.852   7.130   1.218  0.1625  0.0754  0.1765
 1785W        W21319   0.721   5.836  11.161  0.1227 -0.0971 -0.1705
 1786W        W21320   8.278   8.072  11.328 -0.0603  0.1303  0.1413
 1787W        W21321   1.387   7.055   1.607 -0.0973  0.0264 -0.4272
 1788W        W21322   5.677   1.102  11.437  0.0746  0.2734 -0.1679
 1789W        W21323  17.111  15.395  10.940 -0.2133 -0.3982  0.0189
 1790W        W21324   9.862   3.473  11.258  0.2171  0.0791  0.1750
 1791W        W21325   6.947   2.504   0.676  0.1868 -0.1130  0.1677
 1792W        W21326  16.913  14.768  10.432 -0.1724  0.0983 -0.0356
 1793W        W21327   0.300   2.539  10.638 -0.1845  0.0918  0.0092
 1794W        W21328  18.164  15.796   1.655  0.0633  0.1231 -0.0068
 1795W        W21329  15.671   0.278  12.032  0.3405 -0.0066 -0.0363
 1796W        W21330   1.032  15.505  14.039 -0.2097  0.0968 -0.0403
 1797W        W21331  11.270  12.701   4.343 -0.1203  0.2113  0.2996
 1798W        W21332   8.091   1.765   1.974 -0.0137 -0.0232  0.0120
 1799W        W21333   8.791  16.853  11.577 -0.1829 -0.0923  0.1797
 1800W        W21334  17.787   9.027  11.426 -0.0133  0.3890  0.1717
 1801W        W21335   2.147  17.167   2.494  0.3491 -0.0742  0.3355
 1802W        W21336  14.061  18.532   1.980 -0.1423 -0.2041  0.2952
 1803W        W21337   6.640   9.663   4.681 -0.1073 -0.0191 -0.2996
 1804W        W21338  15.697  16.687  14.203 -0.2470 -0.1066 -0.0597
 1805W        W21339  14.010  11.758  14.221 -0.2472  0.2649  0.0064
 1806W        W21340  15.056   9.976  12.256  0.0878  0.0066  0.0215
 1807W        W21341  15.384   0.860  11.309  0.1996 -0.2503  0.1775
 1808W        W21342   4.713  10.050   2.100 -0.1926 -0.0814  0.0192
 1809W        W21343  12.324  11.460  14.205 -0.1934  0.1659  0.2331
 1810W        W21344   9.061   2.247   0.065  0.1105 -0.0209 -0.1216
 1811W        W21345  17.692  16.511   1.849  0.1492  0.3601  0.2077
 1812W        W21346   4.080  14.028   0.789 -0.1893 -0.2205  0.1213
 1813W        W21347  18.358   7.067   3.843 -0.1471 -0.1248 -0.1026
 1814W        W21348   4.283  11.544  13.841  0.0733 -0.1876  0.1012
 1815W        W21349  12.995  15.265  12.753 -0.0462 -0.0754  0.2387
 1816W        W21350   6.580  11.905  13.112 -0.3586 -0.1894 -0.0462
 1817W        W21351   9.752   7.486  12.960  0.2205 -0.2228 -0.2117
 1818W        W21352   3.840   4.237  14.261  0.0424 -0.0200  0.0333
 1819W        W21353   6.389   9.775   2.562 -0.1791 -0.1793  0.1745
 1820W        W21354  16.734   4.262   3.382 -0.3067  0.0959 -0.1138
 1821W        W21355   3.878  17.182   1.724 -0.1176 -0.0298 -0.1813
 1822W        W21356   6.880   4.940   1.493  0.2919  0.2736 -0.2955
 1823W        W21357   6.168  15.311  14.814  0.2372 -0.1294 -0.1098
 1824W        W21358  14.885   1.842   2.308 -0.1125  0.0449 -0.0087
 1825W        W21359  11.390  15.672  12.792  0.0447  0.0324  0.0806
 1826W        W21360   9.145  17.111  14.178  0.1047 -0.0795 -0.2277
 1827W        W21361  14.251   9.465  13.376 -0.0422  0.0265  0.2929
 1828W        W21362   4.397   8.800  12.369  0.0201  0.0213  0.1128
 1829W        W21363  18.248   7.906   4.203 -0.1822 -0.1701  0.0172
 1830W        W21364  15.385  17.729   2.832 -0.1445  0.0275 -0.1698
 1831W        W21365   5.142  15.118  12.818 -0.0264  0.3534 -0.2639
 1832W        W21366  10.135   1.063  11.308  0.2113  0.0823 -0.0033
 1833W        W21367   3.305  16.213   3.798  0.3479  0.2640 -0.1240
 1834W        W21368   1.928   6.146  14.033 -0.1753 -0.1181  0.0740
 1835W        W21369   8.698  17.121  14.425 -0.0604 -0.1070 -0.0509
 1836W        W21370  11.522   3.969   3.309  0.0808  0.2756 -0.0210
 1837W        W21371   0.265   2.543  11.851  0.0525  0.0316  0.1261
 1838W        W21372   0.566  13.095  12.444  0.1995  0.1048  0.0682
 1839W        W21373   7.465   9.928   1.963  0.1041 -0.0672 -0.0572
 1840W        W21374   3.425  11.438  12.819 -0.2629 -0.1674  0.0682
 1841W        W21375  10.369   7.800  11.809  0.2626 -0.3510 -0.0717
 1842W        W21376   6.084   0.698   2.008  0.1911  0.0049 -0.0603
 1843W        W21377  13.927  17.605   1.704 -0.1020  0.1245 -0.1725
 1844W        W21378  16.398   4.253   0.024  0.0339 -0.0253 -0.0366
 1845W        W21379   6.794   1.858  12.670  0.0707 -0.2933 -0.1079
 1846W        W21380   2.002  13.302  13.772 -0.0492 -0.1799  0.0829
 1847W        W21381   9.501  16.328   2.784 -0.3554  0.3002 -0.2289
 1848W        W21382   4.125  17.604   1.659 -0.1964 -0.4050  0.2471
 1849W        W21383   0.552   4.681   2.480  0.0483  0.0270  0.1618
 1850W        W21384  12.952  11.365  13.375  0.0852 -0.0616 -0.4731
 1851W        W21385  17.999  16.444  14.083 -0.0199  0.1243  0.0278
 1852W        W21386   7.307   3.784   0.883 -0.1543  0.2232  0.0838
 1853W        W21387   5.708   9.593   1.070  0.0513  0.2782  0.0194
 1854W        W21388  16.415   5.014  13.482 -0.0566  0.1271  0.0630
 1855W        W21389  14.032  14.812   4.276 -0.0646  0.2763  0.1249
 1856W        W21390   1.748   4.910  12.265 -0.0659  0.3129 -0.0786
 1857W        W21391   0.544   0.205  11.261  0.0991  0.1582  0.0974
 1858W        W21392  11.561   5.609  12.582  0.0851 -0.1551 -0.1380
 1859W        W21393   9.188   7.002  12.170 -0.2520 -0.0458  0.0502
 1860W        W21394   8.256   0.362   0.011  0.0973 -0.0168  0.3041
 1861W        W21395   7.870  16.310   2.568  0.1805  0.3480  0.2288
 1862W        W21396  16.160   6.144  10.835 -0.2595  0.0175 -0.1180
 1863W        W21397   2.953   0.358   1.852  0.0730  0.0666 -0.3190
 1864W        W21398  14.653   4.826  10.696 -0.1482  0.0798 -0.0844
 1865W        W21399  13.853  14.031   1.829 -0.3595  0.3783  0.3632
 1866W        W21400  15.883  10.195  12.619  0.1336  0.1951 -0.0865
 1867W        W21401  16.394  18.966   4.067  0.1793  0.2977 -0.2294
 1868W        W21402   3.328  18.452  11.733  0.0664  0.1031 -0.1081
 1869W        W21403   2.050  13.168   3.488  0.1306  0.0912  0.0034
 1870W        W21404  19.052   7.386  13.603 -0.0551 -0.0060  0.1430
 1871W        W21405  13.952   3.468   2.005 -0.1089  0.1898 -0.1355
 1872W        W21406  15.680  18.760  10.782  0.2187 -0.1046  0.5909
 1873W        W21407  14.359  13.688  14.693  0.2507 -0.2410 -0.1866
 1874W        W21408   6.827  17.428   2.743 -0.0869 -0.0327 -0.2735
 1875W        W21409  16.556   2.354  11.029 -0.0907  0.0697 -0.2066
 1876W        W21410  13.687   6.336  14.399  0.0520  0.2153  0.2397
 1877W        W21411   5.555   2.646   0.687  0.0072 -0.2270  0.1975
 1878W        W21412  11.078  13.745  11.728 -0.0396  0.0279 -0.0593
 1879W        W21413   3.418   2.906  12.447 -0.0468  0.1251 -0.1047
 1880W        W21414   8.259   1.843  13.147  0.2314 -0.2566  0.1331
 1881W        W21415  12.892   5.781  12.077 -0.1504 -0.0399 -0.0767
 1882W        W21416   5.944  11.081  12.675  0.2920 -0.0693 -0.3454
 1883W        W21417  15.247   3.613   1.109  0.3698 -0.2097  0.0908
 1884W        W21418   9.818   6.259   0.501  0.2699  0.0139 -0.0724
 1885W        W21419  17.764   6.974   5.175 -0.0091 -0.2226 -0.0933
 1886W        W21420  10.143  15.545  13.215  0.0516  0.0291  0.2569
 1887W        W21421   3.692  10.733   2.274  0.2950  0.1123 -0.0580
 1888W        W21422  18.258   9.004  11.305 -0.1648 -0.0116 -0.1048
 1889W        W21423  16.471   2.581   2.148 -0.2319 -0.3036 -0.2669
 1890W        W21424   3.412  11.007  13.704  0.0135  0.0335  0.0085
 1891W        W21425  12.231   7.244   4.524 -0.0390 -0.1148  0.0040
 1892W        W21426   7.240   7.100  12.989  0.4118  0.1359  0.1898
 1893W        W21427   2.382   0.157   3.873 -0.1724  0.0155  0.3023
 1894W        W21428   1.414  11.179  11.282 -0.1000 -0.1557 -0.0106
 1895W        W21429   0.400   4.912  14.699  0.0722  0.1012 -0.2857
 1896W        W21430  10.470   0.122   5.762  0.1739 -0.3812  0.1776
 1897W        W21431  16.697  17.400  10.770 -0.1320 -0.0433 -0.1877
 1898W        W21432  13.941   6.538  12.862 -0.1204 -0.2076 -0.1048
 1899W        W21433  18.483   0.988   1.818  0.2820  0.1464 -0.1385
 1900W        W21434   5.318  11.942   0.408  0.1030  0.0333  0.2107
 1901W        W21435  10.763  11.599  12.203  0.0571 -0.1531 -0.4817
 1902W        W21436   1.404   6.450   1.806  0.2013  0.1324  0.1559
 1903W        W21437   2.642  12.159  11.872 -0.1292 -0.2751  0.1093
 1904W        W21438   8.637   9.757  12.160 -0.0823  0.2502  0.2030
 1905W        W21439   5.643  12.682   0.400 -0.0421  0.0082  0.1056
 1906W        W21440   4.859   3.639  12.296 -0.4670 -0.0373  0.2762
 1907W        W21441   2.219   4.743  12.274  0.1930  0.1702  0.0451
 1908W        W21442   2.711  15.728   0.142  0.2424  0.0348  0.1963
 1909W        W21443   8.670   2.708   2.207  0.1479 -0.3565  0.1526
 1910W        W21444   2.748  17.363  13.206 -0.0078  0.1228  0.1104
 1911W        W21445  15.689   7.112   0.021 -0.2419  0.1235 -0.0601
 1912W        W21446   3.746   3.939   9.733  0.1905  0.1220 -0.0709
 1913W        W21447   0.315  17.322   1.384 -0.0178 -0.3021 -0.2654
 1914W        W21448   6.277  17.433   2.861  0.1904  0.0554  0.0986
 1915W        W21449  11.663   6.662   4.518 -0.0424 -0.0755  0.2452
 1916W        W21450   8.254   6.866   0.652  0.2772 -0.0700 -0.2964
 1917W        W21451   4.919   8.440   3.028  0.0435  0.2078 -0.0996
 1918W        W21452  11.344  12.349   3.492  0.0959  0.0583 -0.1299
 1919W        W21453   3.967  13.180   5.684 -0.1832  0.0587 -0.1046
 1920W        W21454   3.815   1.361  13.396 -0.0274  0.3360  0.0998
 1921W        W21455  15.306   1.968   2.820 -0.0304  0.4170  0.0361
 1922W        W21456   5.846   5.875   0.316 -0.2507  0.3099  0.2782
 1923W        W21457  17.593   9.057   3.029  0.0738 -0.3820 -0.1997
 1924W        W21458   6.871  10.661  10.274 -0.2770  0.2749 -0.4046
 1925W        W21459  13.627   1.776  10.761 -0.0632  0.0102 -0.0159
 1926W        W21460  12.079   8.872  14.620 -0.0154  0.3672 -0.1228
 1927W        W21461  15.499   3.267  13.831 -0.0443 -0.0954  0.0527
 1928W        W21462  15.510   6.878   0.489  0.1181 -0.0721  0.0821
 1929W        W21463   4.425   1.209  14.622  0.1918  0.2310  0.1061
 1930W        W21464  18.483   8.819  13.151 -0.1664  0.0070 -0.3456
 1931W        W21465   5.576  17.338  14.370  0.1452  0.1035  0.1734
 1932W        W21466  16.955  11.210   3.131 -0.1451  0.4800  0.1472
 1933W        W21467   0.070   7.883   0.640  0.0693 -0.0254 -0.1993
 1934W        W21468  15.276  14.371  12.857  0.0747 -0.1169  0.2805
 1935W        W21469   5.320   8.098  11.379  0.3694  0.0608 -0.0047
 1936W        W21470  10.443  14.489  11.349 -0.0552  0.0646  0.1946
 1937W        W21471   3.769   4.916  13.684  0.2120  0.1557 -0.0092
 1938W        W21472  16.445  14.272   2.020 -0.1368  0.1150  0.1809
 1939W        W21473   5.088   2.556  12.541  0.0071 -0.1686  0.0986
 1940W        W21474   2.541   3.921  12.837  0.0628  0.1964 -0.0863
 1941W        W21475  17.904   1.003   3.560  0.2878 -0.1438 -0.3391
 1942W        W21476   9.263  13.014  12.024 -0.0866  0.1627  0.2529
 1943W        W21477   0.006   4.468  13.988  0.2594  0.1080 -0.1364
 1944W        W21478  15.910   4.625   0.964 -0.0030 -0.0206 -0.5086
 1945W        W21479   1.682  18.015   4.059  0.0100 -0.3196 -0.1573
 1946W        W21480  12.312   3.112   0.089  0.0911  0.2235  0.2825
 1947W        W21481   8.148  12.326  11.800  0.1964 -0.2759  0.2193
 1948W        W21482   0.559   5.123   0.942 -0.1747  0.2447 -0.1934
 1949W        W21483   3.250  18.235  14.608 -0.1533  0.0433 -0.1160
 1950W        W21484   1.448  15.672   0.503 -0.1925 -0.1705 -0.0394
 1951W        W21485   4.327   2.842  11.294 -0.0185  0.1495 -0.1410
 1952W        W21486   7.936   4.771   0.244 -0.0904  0.3020 -0.1010
 1953W        W21487   0.969   6.215   0.660 -0.3487 -0.1565  0.0557
 1954W        W21488  10.748  11.194   2.804 -0.0782  0.1179 -0.2239
 1955W        W21489  13.940   9.597   3.572 -0.0498  0.1819  0.0449
 1956W        W21490   9.519  11.629  14.294  0.1208  0.0391  0.1366
 1957W        W21491   7.300   3.343   3.761  0.2174  0.3277  0.3287
 1958W        W21492   0.454   0.669   1.027  0.0368  0.1001  0.2949
 1959W        W21493   3.672  13.167   4.354  0.0547  0.1333  0.0322
 1960W        W21494   1.921  18.871   0.992  0.1075  0.0563  0.0416
 1961W        W21495  18.165  10.555  11.932  0.3304  0.0795  0.0394
 1962W        W21496  10.388   1.414   4.559  0.0230 -0.1419 -0.3035
 1963W        W21497   4.974   9.388  13.685 -0.0160 -0.2068  0.1350
 1964W        W21498  13.638   4.064  10.884 -0.3154 -0.0663  0.4342
 1965W        W21499  11.560   2.561   2.611  0.0063  0.3103 -0.1564
 1966W        W21500   4.802   4.739  13.294  0.0302  0.3714  0.0478
 1967W        W21501  10.111   2.151  13.948 -0.0357  0.2351 -0.1425
 1968W        W21502   1.761   8.342   3.111 -0.1507  0.2674 -0.0831
 1969W        W21503   7.772   2.311  10.364 -0.1800  0.0288  0.2584
 1970W        W21504  17.109   8.714  13.332  0.4281  0.0533 -0.1736
 1971W        W21505   3.048   0.333   2.742  0.2395 -0.0394  0.0091
 1972W        W21506  15.421  11.065  13.507 -0.1273  0.2552 -0.1264
 1973W        W21507   6.069   0.029   2.060  0.0360  0.1630  0.0332
 1974W        W21508  13.406   0.779  11.699  0.4177  0.2730  0.1223
 1975W        W21509   1.047   0.238  11.433 -0.1474  0.1943  0.2419
 1976W        W21510   0.094   0.932   3.143  0.1108 -0.2063  0.1174
 1977W        W21511   8.645   9.472  12.571  0.2152 -0.2036  0.3575
 1978W        W21512   7.665  10.163   1.551  0.1999 -0.0020 -0.4549
 1979W        W21513   8.093  17.700   1.159  0.1641 -0.1583 -0.0774
 1980W        W21514   4.917  16.396  11.084  0.1163  0.1568 -0.4034
 1981W        W21515   0.300  14.271   4.062  0.0791 -0.1461  0.3477
 1982W        W21516   7.236   3.272   1.758 -0.3313  0.0079  0.0589
 1983W        W21517  17.910   4.977  13.700  0.0759 -0.0227 -0.2642
 1984W        W21518  17.245   4.244   2.317 -0.0328 -0.0590 -0.1516
 1985W        W21519   0.178   4.959   0.684 -0.0873 -0.0742 -0.3052
 1986W        W21520  16.642   2.339  11.883  0.2194  0.1979  0.0913
 1987W        W21521  13.411   2.728   3.042 -0.0131  0.0444  0.1634
 1988W        W21522  15.083   6.619  10.833 -0.0046 -0.0930  0.0771
 1989W        W21523  14.807  16.256  11.693 -0.0869 -0.1790  0.0814
 1990W        W21524   3.266   5.266  13.428 -0.3380 -0.4601  0.2206
 1991W        W21525   0.703  11.363  12.429 -0.0883  0.3507 -0.1730
 1992W        W21526   7.725  16.218   3.574  0.4457 -0.2521  0.0451
 1993W        W21527  13.327   9.696   4.676  0.3468 -0.2534 -0.3321
 1994W        W21528  11.571  13.578  12.545  0.0261 -0.1842  0.0479
 1995W        W21529   9.629  18.287  11.779  0.0322 -0.0626 -0.0102
 1996W        W21530  18.669   8.062   1.535 -0.0243 -0.3305 -0.4255
 1997W        W21531   6.622  14.047   1.957  0.2175 -0.1505 -0.1758
 1998W        W21532  17.535   3.749  11.547  0.3657 -0.0582 -0.1384
 1999W        W21533   8.494   7.171  12.619 -0.3485 -0.0276  0.2459
 2000W        W21534  16.159  11.551   1.288 -0.2508  0.0428 -0.0305
 2001W        W21535  12.752   1.454   0.408 -0.1370 -0.0505 -0.1532
 2002W        W21536   7.677  11.284   0.103  0.1900 -0.1909  0.3783
 2003W        W21537   6.904   1.476   0.185  0.1459 -0.1949  0.0888
 2004W        W21538   0.967   2.808  14.407 -0.2818  0.1668  0.1593
 2005W        W21539   3.784  16.647   3.339 -0.0094 -0.3724  0.0943
 2006W        W21540   8.167   0.495   0.517  0.0272 -0.1220 -0.3799
 2007W        W21541  13.511   2.507  14.289  0.2789  0.3549  0.2104
 2008W        W21542  18.435  17.560   2.798  0.0687 -0.1465  0.0096
 2009W        W21543  11.518   8.569  14.099  0.1431 -0.2738 -0.0326
 2010W        W21544   9.808   4.440  12.603  0.0261  0.0496 -0.1923
 2011W        W21545   7.245   8.428   2.108  0.3718 -0.0589  0.1012
 2012W        W21546   5.128   1.544  12.788  0.1394 -0.0755  0.1339
 2013W        W21547  15.285  16.640  11.067  0.1620 -0.0228 -0.0184
 2014W        W21548   1.166  13.443   0.837 -0.2435 -0.0399 -0.0218
 2015W        W21549  18.272   7.411   1.702 -0.0939  0.2441 -0.1331
 2016W        W21550  12.895   9.947   1.618  0.0886 -0.0067 -0.0003
 2017W        W21551   0.412  15.414  12.227  0.0008 -0.0788  0.2180
 2018W        W21552  19.081  17.713  11.689  0.1277 -0.1442 -0.1987
 2019W        W21553   8.713   3.459   2.575  0.1063  0.0492  0.1166
 2020W        W21554  17.799   1.731   5.134  0.4244  0.0663 -0.5737
 2021W        W21555   6.931   8.776   0.927 -0.0754 -0.1094 -0.0364
 2022W        W21556   1.480  17.196   5.197  0.1146 -0.1628  0.0126
 2023W        W21557   7.448   2.262   3.242 -0.1646  0.2508 -0.2386
 2024W        W21558  12.748  12.925   4.347  0.0918  0.2026  0.2240
 2025W        W21559  13.603  16.688  14.792 -0.2143 -0.3164  0.4431
 2026W        W21560  15.188  10.269   2.732 -0.3115 -0.2644 -0.1252
 2027W        W21561   9.029   3.582   3.103  0.3045 -0.1230 -0.1791
 2028W        W21562   2.033  13.159  12.205 -0.0605 -0.2259  0.1122
 2029W        W21563   8.473   0.399   1.995 -0.1158  0.2971  0.2304
 2030W        W21564  15.207   5.183   0.088  0.1447 -0.0913  0.1730
 2031W        W21565   6.227   5.850  14.791 -0.0185 -0.2117  0.2455
 2032W        W21566   2.403  18.395  12.867 -0.1365  0.1845  0.0811
 2033W        W21567   8.236  18.648  14.499 -0.3753 -0.1507 -0.2727
 2034W        W21568  18.914   9.976   3.213  0.1393 -0.4443  0.1951
 2035W        W21569  16.388   4.336  12.345 -0.0307  0.1333  0.1841
 2036W        W21570  17.349  14.105  11.752 -0.1117  0.2532  0.1512
 2037W        W21571  11.175  15.984  14.736 -0.5028 -0.1457  0.2408
 2038W        W21572   8.090  14.601   3.893 -0.3992  0.1044  0.0480
 2039W        W21573  17.923   3.954   2.662  0.0895  0.0208  0.1981
 2040W        W21574   7.883  16.141  14.605  0.1093 -0.4134 -0.2086
 2041W        W21575   4.026   4.363  11.388  0.0050  0.1042 -0.2901
 2042W        W21576   5.110   2.894  11.431  0.0911  0.0222  0.0494
 2043W        W21577   8.965  14.882   1.422 -0.2082  0.0122  0.0440
 2044W        W21578  13.208  15.122  13.683 -0.2591 -0.2327  0.1344
 2045W        W21579  15.718   3.218   2.106  0.2911  0.0641 -0.1009
 2046W        W21580   1.050  18.292  14.432 -0.0149  0.0332 -0.0580
 2047W        W21581   3.416   1.862   3.699 -0.0208  0.1294 -0.2177
 2048W        W21582  15.954  10.899  13.304  0.1700  0.1799 -0.3119
 2049W        W21583  15.463  10.213   3.996  0.0454 -0.0585 -0.3495
 2050W        W21584  11.994  17.686   9.666 -0.1636  0.0196 -0.0207
 2051W        W21585   7.898   6.403   0.909 -0.3249 -0.1306 -0.1156
 2052W        W21586   1.681  18.333   0.987  0.0407 -0.0377 -0.2421
 2053W        W21587  16.115  11.738   3.612  0.5024 -0.0392  0.0016
 2054W        W21588   5.805   5.559  13.989  0.1602 -0.0172 -0.0347
 2055W        W21589   5.917   6.494  12.415 -0.1162 -0.0563  0.3724
 2056W        W21590   9.929   4.058   2.154  0.0284 -0.0053  0.0706
 2057W        W21591   7.864   1.882  13.675 -0.0418 -0.0049 -0.2545
 2058W        W21592  15.647   2.702   2.246  0.2313 -0.0143 -0.3250
 2059W        W21593   2.082  14.601   2.010  0.2084 -0.0120 -0.1932
 2060W        W21594   5.766   3.368  10.984 -0.2558 -0.0796  0.0370
 2061W        W21595   4.743  16.852  14.498  0.0238  0.0342 -0.1039
 2062W        W21596  12.950   4.742   0.183  0.0020  0.2076 -0.2815
 2063W        W21597   5.794  17.895  12.647 -0.0238  0.0224  0.0130
 2064W        W21598   1.341   1.674  12.174 -0.1841 -0.0312 -0.2397
 2065W        W21599   8.949  16.219  14.739  0.3515  0.0429 -0.1871
 2066W        W21600  10.237  10.816  11.005  0.0521  0.2554  0.0867
 2067W        W21601   6.188  10.926  13.733  0.4072 -0.0307 -0.3200
 2068W        W21602  10.035   9.177   1.694 -0.0309  0.0130  0.0692
 2069W        W21603   1.287   0.983   3.917 -0.0578  0.1399 -0.3310
 2070W        W21604   8.542  13.267  10.759  0.1151 -0.0061  0.2895
 2071W        W21605  10.975  11.585  10.143 -0.2130  0.3989  0.0322
 2072W        W21606  10.588   7.640  12.530  0.1829 -0.0064 -0.0210
 2073W        W21607  14.273   1.159  14.286  0.1421 -0.1017  0.1839
 2074W        W21608   7.851  14.410   0.147  0.0532 -0.0789  0.0743
 2075W        W21609   5.985   5.150   2.710  0.0554 -0.3968 -0.0744
 2076W        W21610  17.276   4.340  13.169  0.2360  0.2082  0.1749
 2077W        W21611  17.057  10.847  11.558 -0.2435  0.0149  0.0858
 2078W        W21612  17.494   4.500   4.139  0.1204 -0.1161 -0.0577
 2079W        W21613   1.396   2.623   2.417 -0.1266  0.2132 -0.1164
 2080W        W21614   8.699  16.731   0.220 -0.1492 -0.0621 -0.1138
 2081W        W21615   3.321   9.830   3.079  0.1120  0.1076 -0.2028
 2082W        W21616  14.533   4.996   4.624  0.1379  0.1420  0.1065
 2083W        W21617  13.262   5.796  10.104 -0.0978  0.0905  0.2015
 2084W        W21618   3.680   8.983   0.240 -0.1610 -0.1402  0.4995
 2085W        W21619   8.189   3.810  13.090 -0.0788  0.1324  0.1902
 2086W        W21620   3.421   1.540   3.168 -0.0735 -0.0193  0.0274
 2087W        W21621  16.516   6.760  14.359  0.1767  0.1555 -0.2197
 2088W        W21622   3.542   2.709   1.203 -0.0129  0.3015 -0.2090
 2089W        W21623   7.024   2.732  11.319 -0.2058  0.2623  0.0805
 2090W        W21624   8.644  17.254  13.396 -0.3176  0.2222  0.1087
 2091W        W21625  16.636  11.816  13.103  0.1188  0.0979 -0.2830
 2092W        W21626   5.558   4.907   2.877  0.0097 -0.2265  0.0089
 2093W        W21627   0.310  17.735   2.828  0.1692 -0.1934 -0.1342
 2094W        W21628  10.086  10.404   1.283  0.0791 -0.1948  0.0022
 2095W        W21629   4.392   0.189   1.660  0.0584 -0.0597 -0.1629
 2096W        W21630   8.177  15.262  13.206  0.0796 -0.2391  0.0243
 2097W        W21631  13.387  10.551  11.271  0.3845  0.2418 -0.2953
 2098W        W21632   5.548   3.786   2.289 -0.1955 -0.1770  0.2813
 2099W        W21633   6.702   1.746  11.955  0.0552 -0.0433  0.1311
 2100W        W21634   0.936   5.006   2.723 -0.2283  0.1498  0.1833
 2101W        W21635   3.781  12.169  14.143 -0.2410 -0.0630 -0.0193
 2102W        W21636  12.672   2.018   1.738  0.1399 -0.3945 -0.3626
 2103W        W21637   7.871   1.088   1.674  0.0100 -0.0641  0.3167
 2104W        W21638   7.354   0.691   2.529 -0.2254 -0.0637 -0.3877
 2105W        W21639  17.893   6.925   0.196  0.0846 -0.1812 -0.0392
 2106W        W21640  15.345   9.738  12.837  0.0697 -0.0632  0.0086
 2107W        W21641   3.647   5.684   0.472 -0.0997  0.3698 -0.2652
 2108W        W21642   8.656  14.767   3.170 -0.2378  0.3085  0.1156
 2109W        W21643   0.018   3.517   1.384  0.1763 -0.1207 -0.1449
 2110W        W21644   1.876  12.064  12.933 -0.0973 -0.1760 -0.0923
 2111W        W21645   4.812  11.695  12.252 -0.0121 -0.0257  0.2539
 2112W        W21646   0.127   2.710   1.905  0.1520  0.1130 -0.3268
 2113W        W21647  16.135   7.754   3.585 -0.1485 -0.1145  0.3650
 2114W        W21648   0.266   9.196  12.986 -0.1431 -0.3076  0.2189
 2115W        W21649  16.264   5.580   2.141  0.1365 -0.0762  0.0899
 2116W        W21650  17.877  13.704  12.514  0.0553 -0.2214  0.2273
 2117W        W21651  11.411  16.882  14.689 -0.1831 -0.3392  0.3605
 2118W        W21652   0.602  14.016  12.902  0.0026  0.0944  0.1685
 2119W        W21653  10.783  14.292   4.201  0.2701 -0.0611 -0.1326
 2120W        W21654  12.571  11.989  10.811  0.0130  0.1009 -0.2917
 2121W        W21655  12.077   3.823   0.604  0.2091 -0.0029  0.1175
 2122W        W21656   4.552   1.828   5.050  0.1605 -0.1677 -0.1324
 2123W        W21657  15.107   9.373   3.890 -0.3397  0.0334 -0.1518
 2124W        W21658  10.578   6.502   2.064 -0.2096  0.0099 -0.2587
 2125W        W21659   7.261  17.355   4.141  0.0217 -0.2067 -0.2101
 2126W        W21660   2.185   7.301  14.581 -0.1894  0.0548  0.1416
 2127W        W21661   2.502  13.027   2.406  0.0127 -0.0554 -0.4798
 2128W        W21662  13.076  14.733  12.304  0.0968  0.1672  0.4067
 2129W        W21663   4.969  14.617   0.955  0.1304  0.0957  0.1032
 2130W        W21664  12.805   1.961  11.317 -0.1875 -0.0387 -0.1283
 2131W        W21665  17.869   3.539   3.453  0.2243 -0.0882 -0.3546
 2132W        W21666   7.647   5.569   1.725 -0.1990  0.3651  0.0910
 2133W        W21667   4.914  10.142  12.204  0.1781 -0.1771 -0.2751
 2134W        W21668  13.002   1.819  13.181  0.1081 -0.3104 -0.1619
 2135W        W21669  15.111   4.185   3.321 -0.3618 -0.1598  0.0166
 2136W        W21670  17.720  18.920  14.246  0.1815 -0.0698 -0.2490
 2137W        W21671   8.921   6.209  14.246 -0.1086  0.0017 -0.2212
 2138W        W21672  18.737  13.643  12.949 -0.1068  0.0485  0.1790
 2139W        W21673   8.810  13.196  13.296 -0.0795 -0.1833 -0.1315
 2140W        W21674   5.053   2.098  14.482 -0.1723 -0.0419  0.1593
 2141W        W21675   8.606  13.566   3.519 -0.0880 -0.0490  0.2491
 2142W        W21676  18.988   8.773  11.461 -0.3730  0.0028 -0.0966
 2143W        W21677   6.414   0.372  13.867 -0.1531  0.1157 -0.0433
 2144W        W21678   7.079   8.481  14.720 -0.1091  0.1311 -0.2713
 2145W        W21679   8.987  14.697  13.968 -0.0344  0.0751  0.3595
 2146W        W21680  14.446  13.663  10.401  0.0115 -0.1790 -0.2904
 2147W        W21681  11.294  17.828   3.448  0.0681  0.2748 -0.1878
 2148W        W21682   0.417   1.321   3.366 -0.0156  0.1432  0.0600
 2149W        W21683  17.157  18.136   0.433 -0.0563 -0.4603 -0.1181
 2150W        W21684   8.993   6.370   1.793  0.1202 -0.2682 -0.1108
 2151W        W21685   9.410   2.900  13.301 -0.2348  0.1849  0.0195
 2152W        W21686   4.756   8.770  11.344 -0.1842 -0.1558  0.1148
 2153W        W21687   4.193   7.604  11.791  0.3069 -0.0905 -0.2091
 2154W        W21688  17.975   7.578  13.141 -0.1808 -0.3162  0.0076
 2155W        W21689   9.491  12.895  12.593 -0.1380 -0.0740  0.1758
 2156W        W21690  10.390   6.142   0.833  0.0292 -0.1242 -0.1504
 2157W        W21691   0.539   0.294  11.824  0.0204 -0.1417  0.3030
 2158W        W21692  14.021   6.251  13.994 -0.0248 -0.1240 -0.2295
 2159W        W21693  12.926  12.973  13.385 -0.1719 -0.0319  0.5282
 2160W        W21694   4.099  11.518  14.650  0.0716  0.4605 -0.0940
 2161W        W21695  10.176   9.670   1.557 -0.1818  0.0923 -0.0789
 2162W        W21696   4.746  14.819   3.358  0.1538 -0.0694  0.0353
 2163W        W21697  14.910  14.069  12.353  0.0806 -0.1654 -0.1418
 2164W        W21698   0.111  16.621   1.891 -0.1532  0.0442 -0.0953
 2165W        W21699   1.986   1.717  10.263  0.1712 -0.3321 -0.0311
 2166W        W21700   8.107   6.408   1.425  0.1581 -0.0729 -0.0339
 2167W        W21701  14.361   2.625   3.273  0.2673 -0.0278  0.1718
 2168W        W21702  16.641   8.395   1.503  0.1528  0.2032 -0.1084
 2169W        W21703   2.975   5.249   0.452  0.0133 -0.0688 -0.2467
 2170W        W21704  15.953   0.722  13.411 -0.0948 -0.1110 -0.1272
 2171W        W21705  11.898  12.003  14.049 -0.0733 -0.0587  0.0777
 2172W        W21706  10.850  18.438   1.237  0.0154  0.2602  0.0024
 2173W        W21707   4.452  16.277   3.113  0.0521 -0.4341  0.1406
 2174W        W21708   6.069  10.597  11.357  0.1377 -0.1457  0.0143
 2175W        W21709  10.297   6.790   4.440 -0.2407  0.0262 -0.1393
 2176W        W21710  13.339   3.226   3.026  0.0444  0.1654 -0.1052
 2177W        W21711   5.308  11.654   2.663  0.0239 -0.2145 -0.0401
 2178W        W21712   8.992   9.266  12.931  0.1284 -0.1525  0.2169
 2179W        W21713  10.853   7.656   0.617  0.1854  0.3959  0.0145
 2180W        W21714  11.053   7.702  10.981  0.0589  0.0374 -0.0976
 2181W        W21715   1.493   7.570   1.420 -0.1475 -0.5576  0.1836
 2182W        W21716  12.331  18.307   4.427 -0.1498 -0.0443  0.2815
 2183W        W21717   0.055   8.961   3.556 -0.0429  0.0982  0.4230
 2184W        W21718  19.108  16.078  12.647  0.0455  0.2926  0.4602
 2185W        W21719  18.870  11.874   1.441 -0.0858 -0.4147 -0.0497
 2186W        W21720   6.945   8.625  13.862 -0.0061  0.0634 -0.0727
 2187W        W21721   2.828  15.852  12.513  0.4339  0.2331 -0.0532
 2188W        W21722  18.308  13.902  12.924 -0.1012 -0.1393  0.1928
 2189W        W21723  16.734  11.691   1.335 -0.2020  0.2197 -0.1063
 2190W        W21724   0.619   0.346  13.733  0.1946  0.0763  0.0293
 2191W        W21725  11.120   4.793  13.424 -0.1634 -0.2732  0.0243
 2192W        W21726  12.393   5.089   2.459 -0.1150 -0.1845 -0.0142
 2193W        W21727   9.743  13.066   2.394  0.1105  0.0869 -0.0517
 2194W        W21728   4.948  13.076  12.887 -0.2752 -0.2938  0.1789
 2195W        W21729   9.965  11.729  11.909  0.0537 -0.1617 -0.0976
 2196W        W21730  17.760  10.542  10.737  0.0160 -0.0078 -0.1770
 2197W        W21731   6.229   3.622  12.617 -0.1264  0.0329 -0.2152
 2198W        W21732   8.606   9.979   1.293 -0.1422  0.1350 -0.2239
 2199W        W21733   9.251  12.001  12.590 -0.1647  0.0866  0.4046
 2200W        W21734  16.452  15.496   0.163  0.1166 -0.0421 -0.2435
 2201W        W21735   2.996   9.844  11.045  0.0093  0.2088  0.3282
 2202W        W21736  15.528  10.039  11.905  0.0243  0.0726  0.0202
 2203W        W21737   5.282  14.641  12.436  0.0096 -0.1379  0.1434
 2204W        W21738   4.512  18.449  11.673  0.5835 -0.0206  0.1112
 2205W        W21739  17.434   8.734  11.267 -0.1558 -0.0033  0.0789
 2206W        W21740  17.674  10.066   4.159 -0.2312 -0.0543 -0.1182
 2207W        W21741   2.277  16.201  12.587 -0.0211 -0.1337  0.2091
 2208W        W21742   2.875   4.086   2.628 -0.1124  0.0130 -0.0153
 2209W        W21743  14.695   8.709  11.735 -0.0775 -0.1870  0.2506
 2210W        W21744  15.798  15.807  13.536 -0.0564  0.1515 -0.1077
 2211W        W21745  10.724  16.763   2.870  0.0486 -0.1698 -0.4019
 2212W        W21746   9.138  13.999   0.621  0.3631 -0.0186 -0.0655
 2213W        W21747   6.937  11.871  11.317 -0.2496  0.1372  0.0276
 2214W        W21748   9.447  10.159   0.762 -0.0082 -0.0577  0.2663
 2215W        W21749  16.125  18.211  12.843 -0.0932  0.0033 -0.0067
 2216W        W21750  18.758  17.860   1.900  0.0997  0.1734 -0.3093
 2217W        W21751   9.165  18.251  12.597 -0.3854 -0.0733 -0.0575
 2218W        W21752   3.164   3.166  11.636  0.0471  0.2420 -0.1968
 2219W        W21753   6.713   7.726  12.312  0.0057 -0.4313  0.0047
 2220W        W21754   9.022   1.115  13.337 -0.0683 -0.0867  0.0358
 2221W        W21755   6.155   3.546   0.654  0.1012 -0.0595  0.1578
 2222W        W21756   1.630  16.300  12.358 -0.2192 -0.0587  0.0473
 2223W        W21757  10.386   9.681  11.274 -0.3527  0.0299  0.0014
 2224W        W21758   1.530   5.825  12.357  0.1035 -0.0146 -0.2640
 2225W        W21759   1.192  13.658  10.936 -0.0936 -0.3490  0.0690
 2226W        W21760   1.508  16.154   2.608  0.0074  0.1382 -0.0908
 2227W        W21761   9.590   5.088  14.212  0.0669  0.0334 -0.0672
 2228W        W21762  14.636  15.979  12.415  0.1540 -0.1978 -0.1143
 2229W        W21763  18.581  18.278   1.540 -0.3446 -0.2821 -0.3145
 2230W        W21764   1.805   6.690  13.230 -0.0363 -0.1600 -0.0785
 2231W        W21765   1.998   4.038   2.845  0.2796 -0.1219 -0.2165
 2232W        W21766  13.792  11.531   4.719  0.1725 -0.0192 -0.1161
 2233W        W21767  10.154  13.233   2.612  0.1014 -0.0663 -0.0583
 2234W        W21768   8.671  13.637   0.377  0.1129 -0.1997  0.3626
 2235W        W21769  12.261   6.513   2.864 -0.1251 -0.1515 -0.1646
 2236W        W21770   3.391   9.929   3.765 -0.0633 -0.4582 -0.0057
 2237W        W21771  13.906  15.479   0.167  0.4410  0.0531 -0.1172
 2238W        W21772   6.202   5.473  11.554 -0.0381  0.0258 -0.0926
 2239W        W21773   1.751   5.439  11.472 -0.2685  0.0578  0.0059
 2240W        W21774   2.733  17.577   1.929  0.2534  0.0827 -0.2521
 2241W        W21775   1.771   5.873  12.838  0.0426  0.0495 -0.2938
 2242W        W21776   1.381  11.705   3.211 -0.3224 -0.1112 -0.2800
 2243W        W21777   2.652   2.366   2.008 -0.0059  0.1130  0.1250
 2244W        W21778  15.706   1.473   3.920 -0.1817 -0.1279  0.0700
 2245W        W21779   9.994  18.538   3.812  0.1124  0.0433  0.1359
 2246W        W21780   0.032  14.639  13.936  0.1074 -0.1026 -0.1556
 2247W        W21781  18.715  14.737   1.595 -0.2313 -0.0057 -0.0468
 2248W        W21782   5.689   2.471   3.825  0.1428  0.2286 -0.0329
 2249W        W21783   6.091   4.732  10.485  0.1461  0.1329  0.0017
 2250W        W21784  15.997  10.930  10.352 -0.0314 -0.0457  0.1860
 2251W        W21785  10.032   8.151  13.261  0.0242  0.0689  0.0447
 2252W        W21786  14.456   3.156   2.039  0.3643 -0.2438 -0.1792
 2253W        W21787  16.972   5.603  12.363 -0.1016 -0.1897 -0.1189
 2254W        W21788   6.558   5.856  12.103  0.1312  0.0866 -0.0891
 2255W        W21789   1.598  14.052   4.299 -0.0023 -0.0267 -0.3464
 2256W        W21790  15.163  15.001  12.755 -0.1671 -0.1185  0.1267
 2257W        W21791  10.919   2.317   3.020  0.1026 -0.0899  0.1100
 2258W        W21792   8.575  10.463   2.246  0.1847 -0.2497 -0.3048
 2259W        W21793   7.343  10.081   2.415  0.1812 -0.0469  0.1539
 2260W        W21794  13.038  14.659  14.493  0.0029 -0.2427 -0.3205
 2261W        W21795  15.684   8.925  14.033  0.0971  0.0267 -0.0427
 2262W        W21796   9.845   9.598  12.561  0.3434 -0.1957 -0.0057
 2263W        W21797   9.607   5.222  11.970 -0.0590  0.0648  0.1623
 2264W        W21798  10.009  17.672  13.040  0.2098 -0.2269  0.1605
 2265W        W21799  18.963  16.157  14.699 -0.0451  0.1026 -0.0037
 2266W        W21800   8.032  11.824  14.170  0.3414  0.1852 -0.0748
 2267W        W21801   7.359  11.856  14.649 -0.0093 -0.1207  0.1088
 2268W        W21802   7.398   4.841  11.904  0.0403  0.0607  0.1519
 2269W        W21803   6.505   0.924   2.349  0.2516  0.0923 -0.1475
 2270W        W21804  13.885  10.128   4.867 -0.0918 -0.2381 -0.0329
 2271W        W21805  15.551   3.819   1.766  0.0128  0.2738 -0.0901
 2272W        W21806   3.941  11.242  11.709  0.1796  0.2428 -0.3194
 2273W        W21807  14.719   2.251   2.050  0.1083  0.0483 -0.0507
 2274W        W21808   6.101   0.115  13.085 -0.0703  0.0619  0.1191
 2275W        W21809   5.383   0.042   0.456 -0.3966  0.1221 -0.0426
 2276W        W21810   9.026   2.199   0.940 -0.0324  0.0619  0.0005
 2277W        W21811  18.918  11.380  11.602  0.0458 -0.0134 -0.0122
 2278W        W21812   4.916   1.670   0.459 -0.0288 -0.2039  0.1850
 2279W        W21813  13.226   5.337  11.178  0.1434 -0.1215 -0.0905
 2280W        W21814  11.264  16.312   3.778  0.2096 -0.0999 -0.0077
 2281W        W21815   0.212  14.380   4.549  0.2384 -0.3482 -0.2075
 2282W        W21816  10.299  13.533   3.636  0.1998  0.1817  0.2122
 2283W        W21817   3.462   7.599  13.938 -0.1716  0.1599 -0.0897
 2284W        W21818   8.183  12.228  13.637 -0.1604 -0.2156 -0.1786
 2285W        W21819  12.912  12.400  12.936  0.0027  0.0394  0.1829
 2286W        W21820   1.070  16.998  13.360 -0.3366  0.3293  0.1795
 2287W        W21821  12.069   4.509   3.761 -0.3428  0.2480  0.4034
 2288W        W21822   8.157  15.427   1.859  0.0104  0.5163  0.0579
 2289W        W21823  14.563  16.135  13.086 -0.1330 -0.1231 -0.2993
 2290W        W21824   2.855  15.996  11.551 -0.2307  0.4410 -0.1387
 2291W        W21825   6.911   3.170  11.001 -0.4443  0.3029 -0.3174
 2292W        W21826   3.376  12.275  12.316 -0.0462 -0.0404  0.2720
 2293W        W21827  17.696  13.292   2.507 -0.1162  0.1505 -0.0865
 2294W        W21828  15.596  15.069  13.069  0.1095  0.1007 -0.0238
 2295W        W21829  16.273  17.303  10.996 -0.0099 -0.0917 -0.1670
 2296W        W21830   9.842  14.585   2.411  0.0553 -0.0289 -0.0728
 2297W        W21831  14.480   0.748   3.012 -0.2650 -0.1276  0.0479
 2298W        W21832  13.930  17.845   3.876 -0.1617 -0.1430  0.3382
 2299W        W21833  11.269   0.447  13.422  0.2757  0.0308  0.1495
 2300W        W21834   7.329   4.247  10.334  0.1160 -0.0322  0.2358
 2301W        W21835  18.755  13.127  14.750 -0.2050 -0.1593 -0.3627
 2302W        W21836  11.433   7.841   1.546 -0.3095  0.1420  0.0048
 2303W        W21837   6.200  14.345  12.825 -0.1292  0.1074 -0.2574
 2304W        W21838  16.455  16.831   3.034 -0.1828  0.1833 -0.1050
 2305W        W21839   2.441   4.925   3.478  0.1150  0.1414  0.0003
 2306W        W21840   7.305  15.956   3.728 -0.2542  0.6109  0.0141
 2307W        W21841  14.757   1.471  11.437 -0.0623 -0.0992 -0.0691
 2308W        W21842   1.631  18.039  10.816  0.3747  0.0360 -0.0151
 2309W        W21843   9.034   3.044   4.094 -0.1576 -0.0598  0.0870
 2310W        W21844   2.699   2.543   4.854 -0.0244 -0.2326  0.4684
 2311W        W21845  15.041  17.730   2.005  0.0957 -0.0021 -0.1226
 2312W        W21846   6.771  16.535   0.667  0.1633  0.1573 -0.2004
 2313W        W21847  11.902   5.907  14.225 -0.2224 -0.2071  0.1477
 2314W        W21848  14.701  12.763   2.191  0.3353 -0.0983 -0.1885
 2315W        W21849   4.828   8.182   4.308 -0.2114 -0.1678 -0.2071
 2316W        W21850  12.174  10.307  11.684 -0.1338 -0.1268 -0.1341
 2317W        W21851   8.771   0.367  14.015 -0.2768 -0.4367 -0.1839
 2318W        W21852  17.172  14.001   0.880 -0.1100  0.0273 -0.4166
 2319W        W21853  10.393   8.520  13.929 -0.0310 -0.1205  0.2779
 2320W        W21854   8.290   6.799   1.149  0.4782  0.0490 -0.0219
 2321W        W21855  12.046   0.954  12.628  0.2043  0.1962 -0.2927
 2322W        W21856  16.438   3.220  12.023 -0.2213  0.2667  0.2171
 2323W        W21857  10.390  13.888   0.402 -0.1706  0.1292 -0.1358
 2324W        W21858   7.858  15.486   2.802 -0.2711 -0.2666  0.1203
 2325W        W21859  18.651  16.049   1.777 -0.0959  0.3421  0.1185
 2326W        W21860  12.276   3.954   1.598  0.2861 -0.0837  0.0529
 2327W        W21861   3.663   2.759   3.877 -0.3082  0.0183  0.1910
 2328W        W21862   7.725  11.713  11.300 -0.0743 -0.1428 -0.1588
 2329W        W21863  10.815   0.105   1.788  0.0696 -0.1858 -0.0865
 2330W        W21864  13.089  10.810   4.206 -0.2837  0.1345  0.1017
 2331W        W21865  17.080  10.481   1.960  0.1185  0.2788  0.1433
 2332W        W21866  17.769  14.796   0.729 -0.0895 -0.3940  0.0886
 2333W        W21867   8.890   7.821   1.120 -0.2441 -0.1062 -0.1333
 2334W        W21868  17.206  11.024   5.122 -0.1649  0.0116 -0.0085
 2335W        W21869   7.904   5.420   1.061 -0.0701 -0.0905  0.0077
 2336W        W21870   8.996   5.184  11.411 -0.0985 -0.0543  0.1793
 2337W        W21871  18.997  14.095   3.509 -0.2013 -0.1580 -0.1165
 2338W        W21872   1.531   1.776   4.338 -0.0969  0.0015 -0.0103
 2339W        W21873   5.172  14.204  14.513 -0.1941 -0.0310 -0.1213
 2340W        W21874   4.144  11.059   2.851 -0.0388 -0.0258 -0.2303
 2341W        W21875   0.618  10.092   1.479 -0.2010 -0.1923 -0.1736
 2342W        W21876   7.576   2.952   1.974  0.0215 -0.0204 -0.1658
 2343W        W21877  17.973   8.990  10.865  0.0024  0.0229 -0.2130
 2344W        W21878   0.963   3.426   2.996  0.2916 -0.0383 -0.5519
 2345W        W21879   6.008   1.440  11.400  0.1123  0.0721 -0.0326
 2346W        W21880   3.545   3.446  10.570 -0.0797  0.1995  0.1440
 2347W        W21881  10.578  14.279  13.756 -0.0195 -0.0721 -0.3311
 2348W        W21882  18.327  12.563  14.316 -0.2903 -0.0900 -0.0080
 2349W        W21883  15.399  16.852   3.810 -0.0961 -0.0132  0.0307
 2350W        W21884   1.222   7.753  10.856  0.1847  0.1667  0.0529
 2351W        W21885   0.908   4.227   1.934 -0.0356  0.1177  0.0809
 2352W        W21886   4.900  11.527  12.737 -0.0564 -0.0670 -0.1156
 2353W        W21887   9.266   1.182   2.956  0.0078  0.0335  0.3893
 2354W        W21888   3.277   8.913   3.287  0.2429 -0.1463 -0.2091
 2355W        W21889   1.388   2.475   0.569  0.3043 -0.5268 -0.0832
 2356W        W21890   8.070  15.117  11.164 -0.1691  0.0547 -0.2472
 2357W        W21891   5.293   9.822  14.132 -0.2794  0.2722 -0.3951
 2358W        W21892   9.073  15.703   4.106 -0.1842 -0.2677  0.0485
 2359W        W21893   0.647  11.655  11.262 -0.3033 -0.3176  0.2595
 2360W        W21894   3.810   0.917   1.018 -0.0463 -0.0534 -0.0252
 2361W        W21895   2.549   6.688  10.228  0.2137  0.0256 -0.1788
 2362W        W21896   7.526  10.170  12.614 -0.1598 -0.0431  0.0439
 2363W        W21897   1.116  13.293  13.592 -0.0325  0.1407 -0.1139
 2364W        W21898  12.307   4.543  12.328  0.3144  0.1739  0.2698
 2365W        W21899   4.768   1.512  13.141 -0.0265 -0.1095 -0.2132
 2366W        W21900   4.864  12.466   3.103  0.1267 -0.4168  0.0753
 2367W        W21901   9.825   5.153  14.718 -0.1779  0.1580  0.1707
 2368W        W21902  11.595   3.681   1.231 -0.0783  0.0423 -0.0623
 2369W        W21903   3.861  10.099   3.927  0.1483  0.0130 -0.0687
 2370W        W21904   1.188   3.293  10.608  0.2107 -0.2766 -0.0601
 2371W        W21905   3.088   9.161  14.062 -0.2418  0.1705  0.0674
 2372W        W21906   0.556  11.820   2.300 -0.1050 -0.2408 -0.1823
 2373W        W21907   4.278   6.961  12.675 -0.0003 -0.0742 -0.0149
 2374W        W21908   2.282   9.214   0.640 -0.2813 -0.0638 -0.4089
 2375W        W21909  12.973   5.021   3.692  0.0665  0.1349  0.0105
 2376W        W21910  10.404  18.383   2.765 -0.1179  0.3033  0.2942
 2377W        W21911  13.111  16.962   9.717  0.2325 -0.3006 -0.0053
 2378W        W21912  15.150   0.447   0.635 -0.0781  0.1027 -0.0305
 2379W        W21913   1.888   6.632   1.405  0.1254 -0.2743 -0.3961
 2380W        W21914   5.695   7.584  13.602 -0.2399 -0.1284  0.4231
 2381W        W21915  10.425   9.255   1.352 -0.0516 -0.3408  0.0188
 2382W        W21916  13.115  16.770  11.069 -0.0435 -0.0935 -0.0918
 2383W        W21917  18.308   9.361  10.978 -0.2421 -0.0040  0.0696
 2384W        W21918   9.929  15.944  14.345 -0.0689 -0.0480  0.1275
 2385W        W21919   1.863  16.560   1.784 -0.1019  0.3512  0.0626
 2386W        W21920   9.475   9.942  10.606 -0.0461 -0.0948  0.1483
 2387W        W21921  14.829   5.201  14.239  0.0218  0.0414 -0.3470
 2388W        W21922   0.290   5.297   1.741  0.4897  0.1620  0.1958
 2389W        W21923   8.744   4.061  11.154  0.3685  0.1879  0.0287
 2390W        W21924  10.500  19.090   0.729  0.0821  0.0473 -0.3243
 2391W        W21925   7.050   8.129   2.468  0.1750  0.1403  0.2928
 2392W        W21926   1.459  15.530  14.406 -0.4124  0.2317  0.1067
 2393W        W21927  11.033   7.311   0.977 -0.0440 -0.2422 -0.0347
 2394W        W21928  15.054   6.590   1.286 -0.3314  0.0927  0.0931
 2395W        W21929  18.234   9.162   1.515  0.0338  0.0430 -0.0276
 2396W        W21930   4.605   7.505   2.248 -0.1281  0.2406 -0.0681
 2397W        W21931   6.727   7.646   1.749 -0.3083  0.3148 -0.3711
 2398W        W21932   8.719  15.976   2.352  0.0568  0.2903  0.0496
 2399W        W21933   3.164   2.106  10.211 -0.1629  0.1131  0.1430
 2400W        W21934  15.302   1.483   0.974 -0.2064  0.2161 -0.0065
 2401W        W21935   7.370   5.229  12.377  0.0490 -0.2495  0.0169
 2402W        W21936   5.056  11.161   3.237 -0.0938  0.3526 -0.2473
 2403W        W21937   2.200  18.727  10.824  0.0553 -0.0378 -0.0498
 2404W        W21938   0.954  18.193   1.529 -0.3220 -0.0472 -0.1158
 2405W        W21939   4.906   9.555   2.793 -0.1620  0.0201  0.3690
 2406W        W21940   6.189   8.015  14.776  0.2097 -0.0059  0.0764
 2407W        W21941  10.948   1.899  13.533  0.0307 -0.2559 -0.1743
 2408W        W21942   8.403   6.911  10.571 -0.0696 -0.0060 -0.1112
 2409W        W21943   3.964   8.678  14.824 -0.1070 -0.2493 -0.1907
 2410W        W21944  13.596  11.791  10.108 -0.1738 -0.0144 -0.1128
 2411W        W21945  14.374  12.506   3.324 -0.1776 -0.3683  0.0540
 2412W        W21946   1.080  13.114  12.507  0.0756 -0.2638 -0.1298
 2413W        W21947   0.861  10.332  13.590  0.3686  0.1687 -0.0781
 2414W        W21948   3.834  15.589  10.402  0.0819  0.1936 -0.0764
 2415W        W21949  11.946   2.744  12.349 -0.0231 -0.0949 -0.0896
 2416W        W21950  18.640  11.080  12.555  0.0546  0.0319 -0.1869
 2417W        W21951   2.412   3.926   2.611 -0.0982  0.1018  0.1631
 2418W        W21952  15.569   5.791  11.443 -0.1548 -0.0916  0.3486
 2419W        W21953  11.245   6.722   0.121  0.2391 -0.1702 -0.1153
 2420W        W21954  11.340  12.297   2.271  0.2163 -0.0640 -0.1803
 2421W        W21955   4.187  12.919   2.087  0.1902  0.1290 -0.2993
 2422W        W21956   4.237   3.619   0.788  0.2069  0.0538  0.0563
 2423W        W21957  16.851  10.388  12.069 -0.1544  0.2415 -0.1294
 2424W        W21958  15.208   4.521   1.177 -0.2661 -0.2132  0.2411
 2425W        W21959  13.893   0.766  12.611  0.1584 -0.2075 -0.1946
 2426W        W21960   3.731  13.788  12.431 -0.2142  0.0384  0.0486
 2427W        W21961   3.931  10.135  12.502  0.1301 -0.2266  0.0890
 2428W        W21962  11.812  14.988  14.806 -0.0481  0.1502 -0.2206
 2429W        W21963  11.484  17.687   0.154 -0.0943 -0.1417 -0.0887
 2430W        W21964   0.405  16.230  14.660  0.2827 -0.1016  0.1897
 2431W        W21965  17.013   1.057   2.611 -0.1337  0.0336  0.2070
 2432W        W21966   9.990   8.053   0.395 -0.0538  0.0645  0.1388
 2433W        W21967  17.785  13.854   4.545 -0.3258  0.1482 -0.0467
 2434W        W21968  16.131  12.275  13.807 -0.2121  0.2051 -0.2966
 2435W        W21969  17.615  11.292  12.050  0.0457 -0.3599 -0.0384
 2436W        W21970  15.884   2.938  14.490 -0.0374 -0.0182 -0.0296
 2437W        W21971   8.648   7.451  14.825  0.1354  0.0136 -0.1041
 2438W        W21972  12.463   4.092  12.611  0.0335  0.1259 -0.0051
 2439W        W21973   0.426   7.259  13.510 -0.0480  0.0793  0.4107
 2440W        W21974   2.584  14.942   4.456 -0.2143 -0.3404  0.2495
 2441W        W21975   0.743   3.336   0.790  0.2230 -0.2878  0.0201
 2442W        W21976  14.540  12.350  10.933 -0.0306 -0.0755  0.0198
 2443W        W21977  16.649   5.880  14.465  0.1089  0.3206  0.2418
 2444W        W21978  10.070  12.198  13.255  0.2352  0.1139 -0.0823
 2445W        W21979  10.291  17.538   3.236  0.3488  0.1014 -0.0760
 2446W        W21980  13.560  16.339   2.120  0.0339  0.0371 -0.1175
 2447W        W21981   1.701   3.763   1.977  0.0997 -0.2437  0.0834
 2448W        W21982   0.259   4.578  11.081 -0.3108  0.2422 -0.0758
 2449W        W21983   1.809   3.306   1.926 -0.3367  0.1269 -0.0296
 2450W        W21984  14.817  17.596   3.425 -0.1089  0.2761  0.3228
 2451W        W21985  14.215  17.999  12.639  0.0601  0.0177 -0.0922
 2452W        W21986   6.279  14.140   0.994  0.0143 -0.1029 -0.0315
 2453W        W21987  15.630  10.651  12.591  0.1265  0.0447  0.1355
 2454W        W21988   4.918   6.080  11.112  0.2125 -0.1001  0.1952
 2455W        W21989   0.989  10.198   3.011  0.2000 -0.1315 -0.2193
 2456W        W21990   0.211  15.148   2.754 -0.1555  0.2534 -0.0015
 2457W        W21991   0.288   7.947  11.695 -0.1794  0.0986 -0.4427
 2458W        W21992   7.945  14.517   2.492  0.0131 -0.0392  0.0187
 2459W        W21993  13.292   9.120   2.486 -0.1297 -0.1222  0.0931
 2460W        W21994   5.875   1.268   1.276  0.1933  0.2902  0.0463
 2461W        W21995  13.603   3.064   3.410 -0.1669 -0.1517  0.0732
 2462W        W21996   2.012   8.228   9.727  0.0138  0.0739  0.1795
 2463W        W21997   6.879  11.656  14.614  0.2152  0.0800 -0.1038
 2464W        W21998  15.587  15.301   3.030 -0.2898 -0.2614 -0.1410
 2465W        W21999   6.540   1.769   5.657 -0.4051 -0.0622 -0.1675
 2466W        W22000  10.867   9.779   0.513  0.2755 -0.0859  0.0052
 2467W        W22001  13.570   8.542  11.258  0.0729  0.0963  0.0478
 2468W        W22002   5.428   3.303   1.570  0.4507 -0.1906 -0.1142
 2469W        W22003  14.956   4.766  11.390  0.4246  0.0908  0.0858
 2470W        W22004   1.344   8.099  14.237 -0.0562  0.0590  0.3688
 2471W        W22005  13.772   6.300   4.246 -0.1598  0.1793  0.2434
 2472W        W22006  18.399  15.470   3.961 -0.2981  0.2513 -0.1933
 2473W        W22007  15.130  16.843  14.407  0.3658 -0.1517  0.1300
 2474W        W22008  15.584  16.672   4.689  0.1194  0.2075 -0.0681
 2475W        W22009   5.843   5.341  10.634 -0.1583  0.0946  0.2056
 2476W        W22010   3.727   5.523  13.464 -0.0376  0.0019 -0.1265
 2477W        W22011  13.324  16.629  14.337 -0.2927  0.2127 -0.0751
 2478W        W22012  14.293  16.114   9.653 -0.0126 -0.1758 -0.2042
 2479W        W22013  10.843  15.283   0.909 -0.1642 -0.0409  0.0643
 2480W        W22014   7.788   2.507   2.435 -0.3215  0.3233  0.1404
 2481W        W22015   0.292  13.561   3.843  0.2293  0.1544  0.2627
 2482W        W22016  11.793   8.454  14.588 -0.1881  0.0124 -0.1188
 2483W        W22017  11.259  11.371  12.551  0.0202 -0.0049 -0.1464
 2484W        W22018   2.090   8.756   4.098 -0.3208 -0.3794  0.2595
 2485W        W22019   6.129   3.655  14.650 -0.1365  0.1392  0.1235
 2486W        W22020  18.338   1.104   2.288 -0.0634 -0.1318 -0.0486
 2487W        W22021  10.167  13.579   1.118  0.0670 -0.0418  0.1592
 2488W        W22022  18.968  10.431  12.030 -0.1714 -0.0989 -0.0355
 2489W        W22023   7.551  14.164   1.634 -0.0623  0.1448 -0.0219
 2490W        W22024   4.105   6.094  12.870  0.0607  0.3336  0.1792
 2491W        W22025  12.819   5.728   1.833  0.1693 -0.4585  0.0614
 2492W        W22026  11.831   9.673   3.743  0.2305 -0.1616  0.0997
 2493W        W22027  12.061  17.424   1.821 -0.0006  0.0051 -0.0888
 2494W        W22028   4.017  18.180  13.717  0.0740 -0.0939 -0.1380
 2495W        W22029   0.772   8.713  13.530 -0.1877  0.0926  0.0755
 2496W        W22030  16.892  18.896   0.083  0.1301 -0.3399  0.0141
 2497W        W22031   3.611   3.231   2.123  0.0434  0.2035  0.0132
 2498W        W22032   1.738  15.461  13.642  0.0625  0.0375  0.0998
 2499W        W22033  13.997   1.923  11.107 -0.2475 -0.1199  0.2205
 2500W        W22034  18.023  15.689   3.688 -0.2004  0.0363  0.1124
 2501W        W22035  14.722   0.893  13.131  0.1356 -0.1284  0.0090
 2502W        W22036   1.184   9.946  10.671  0.0189 -0.0218 -0.1539
 2503W        W22037   3.373  18.737  13.381  0.0393 -0.3659 -0.1812
 2504W        W22038   5.884  16.314  14.214  0.0585  0.2328 -0.0530
 2505W        W22039   0.725   7.267   4.239 -0.0606  0.2158 -0.2066
 2506W        W22040   5.989  15.361   0.398  0.1290  0.2585 -0.0851
 2507W        W22041   6.406   8.733  10.799  0.0832  0.3396 -0.0492
 2508W        W22042   8.216   5.292   4.395  0.1270 -0.1736  0.0157
 2509W        W22043  14.500  18.528   4.256  0.3987 -0.1918  0.0896
 2510W        W22044   2.639   1.295   0.481 -0.0706 -0.2318  0.2563
 2511W        W22045   2.958  13.659   5.179 -0.1009 -0.1029  0.1660
 2512W        W22046   8.966   3.272  12.913  0.0148  0.2624 -0.1098
 2513W        W22047  13.201  17.149   1.137  0.1699  0.0659  0.2552
 2514W        W22048  10.330  14.859   2.837 -0.0156 -0.0388  0.1531
 2515W        W22049   6.035  17.502   2.400 -0.0075 -0.2815  0.1087
 2516W        W22050   4.459   3.738   1.230 -0.1463  0.0446 -0.2544
 2517W        W22051  17.525  19.075  13.451 -0.2805 -0.0432 -0.0889
 2518W        W22052   2.835   0.738  10.402  0.1439 -0.1057 -0.1289
 2519W        W22053   3.888  10.308  11.961  0.0979 -0.4472  0.2325
 2520W        W22054   9.522  17.332   3.736  0.0511  0.3037 -0.3383
 2521W        W22055   9.058   3.393  10.738 -0.0013  0.2169  0.1222
 2522W        W22056   5.628  11.618   1.222 -0.0258 -0.3279  0.0369
 2523W        W22057   1.940   1.696   4.088 -0.2376  0.4914  0.1528
 2524W        W22058  16.468  13.486  11.433 -0.2065 -0.1618 -0.1259
 2525W        W22059   9.838  13.063  13.383  0.2427  0.0149  0.1353
 2526W        W22060   0.915  14.123  12.472 -0.1652 -0.0595  0.1930
 2527W        W22061  10.269   6.400  14.311 -0.1634 -0.3215 -0.0976
 2528W        W22062   2.041   5.305   3.456  0.0614 -0.3507 -0.0125
 2529W        W22063  12.106  13.892  11.606 -0.5305 -0.1816 -0.3042
 2530W        W22064   7.833  10.740   3.024  0.4683 -0.4337  0.2152
 2531W        W22065  16.284   7.642  14.490 -0.0427  0.0691 -0.2631
 2532W        W22066   1.637   8.126   4.865  0.0349 -0.0634 -0.2927
 2533W        W22067  11.602  18.289   0.812  0.1216 -0.0043 -0.0448
 2534W        W22068  12.114   4.247   0.270  0.2356 -0.0250 -0.1518
 2535W        W22069   5.995   1.060   3.546  0.1845  0.1901  0.0137
 2536W        W22070   0.384  11.096   1.118  0.2742  0.1285  0.1614
 2537W        W22071   0.211   5.988  13.636 -0.2889  0.1477  0.0734
 2538W        W22072  12.404   3.323   0.508 -0.2822  0.0446  0.0757
 2539W        W22073   1.553  12.473   0.566  0.4575 -0.1218 -0.1608
 2540W        W22074   8.142   2.339  13.445  0.3656  0.2121 -0.1894
 2541W        W22075   4.496   7.735   1.794  0.0405  0.3259 -0.1439
 2542W        W22076   6.235   5.270   0.045 -0.0213 -0.0256  0.1298
 2543W        W22077  10.532   7.370   0.947 -0.1475  0.3156 -0.1443
 2544W        W22078  13.558   0.030   0.860  0.0075  0.1722  0.0853
 2545W        W22079   4.532  17.188   3.454 -0.0315  0.3135  0.1642
 2546W        W22080  17.139   3.692  13.809 -0.0420  0.0670  0.1507
 2547W        W22081  11.438   1.322  11.074 -0.0301 -0.2295 -0.0089
 2548W        W22082   5.037   3.316   1.179 -0.2051  0.1163  0.2257
 2549W        W22083  16.721   3.065  11.620  0.4242 -0.0512  0.0268
 2550W        W22084   9.669   9.000   3.100 -0.0175 -0.0968 -0.1420
 2551W        W22085   2.983  13.119  12.311  0.1295 -0.2034 -0.0990
 2552W        W22086   6.410   3.686  12.133 -0.0146  0.2658 -0.5707
 2553W        W22087   0.681  18.237   0.605 -0.0290  0.2373 -0.2924
 2554W        W22088   8.475   7.566  12.334  0.1815  0.3513 -0.0661
 2555W        W22089  15.764  19.097   0.966  0.2829  0.0000  0.0962
 2556W        W22090   2.291  10.987  11.282  0.1707  0.1009 -0.1013
 2557W        W22091   6.549  11.984   3.530  0.0789  0.1916 -0.0907
 2558W        W22092  15.877   1.419   2.606  0.1264  0.1726 -0.0402
 2559W        W22093   6.038   3.980  12.943  0.0291 -0.0496  0.1189
 2560W        W22094  15.378   7.827   4.214  0.3041 -0.0581  0.2870
 2561W        W22095   5.447  12.256  13.632  0.2966 -0.2278 -0.0573
 2562W        W22096   5.468   5.491  14.328  0.1582 -0.1388  0.2569
 2563W        W22097  16.346   5.882   2.947 -0.1913  0.1879 -0.1074
 2564W        W22098   7.746  18.076   3.943  0.0001  0.1955 -0.3286
 2565W        W22099  18.934  10.939  12.904 -0.1911 -0.0923 -0.2511
 2566W        W22100  15.883   7.725   1.432 -0.2933  0.1783  0.0309
 2567W        W22101   9.398   3.709  13.808 -0.3927  0.3193  0.0239
 2568W        W22102   1.689   6.889   3.012  0.0397  0.0320  0.0946
 2569W        W22103   7.441   4.934  11.399 -0.1841  0.1775 -0.0809
 2570W        W22104   4.255  13.392   2.084 -0.3372 -0.0740 -0.1962
 2571W        W22105   0.017   7.468  12.007 -0.0196 -0.1854  0.1114
 2572W        W22106  10.207  11.808   2.608  0.1306 -0.2398  0.2524
 2573W        W22107   6.735  17.778  14.403 -0.1298 -0.1569  0.2552
 2574W        W22108  13.123   6.637   5.336  0.0694 -0.2877  0.0024
 2575W        W22109  10.708   8.475  12.653 -0.0067  0.0360  0.2567
 2576W        W22110   7.803   3.516  14.539  0.1664 -0.1372  0.0367
 2577W        W22111   1.555   2.678   1.447 -0.0722  0.3067 -0.1594
 2578W        W22112  18.050  16.452  11.078  0.1410 -0.0631  0.2878
 2579W        W22113  14.644   3.927   1.872  0.2988 -0.1441  0.0301
 2580W        W22114   4.841   5.232  12.152 -0.3291  0.1836 -0.1125
 2581W        W22115  12.405  15.911   1.718 -0.1472 -0.2250  0.1650
 2582W        W22116  17.467   2.417  12.207  0.0280  0.0564  0.0820
 2583W        W22117   2.300  17.942  14.201  0.1741 -0.0715  0.0680
 2584W        W22118  10.861   6.099   4.938 -0.0560 -0.1958  0.2488
 2585W        W22119   1.923   4.156  11.572 -0.2493  0.1724 -0.0293
 2586W        W22120  15.635   4.964  12.953 -0.3566  0.1169  0.0385
 2587W        W22121   6.479   3.017   2.743 -0.1237  0.0553 -0.0313
 2588W        W22122   1.739  15.409   3.732 -0.3213  0.2924  0.1041
 2589W        W22123   1.139   8.580   1.109 -0.2913 -0.1990  0.3908
 2590W        W22124   7.947  16.865  12.005  0.1688  0.2804 -0.2099
 2591W        W22125  18.556   4.548   0.847 -0.2207 -0.2288  0.0195
 2592W        W22126  13.779   4.069  14.139 -0.0530  0.0584 -0.3399
 2593W        W22127   4.915   9.296   0.950 -0.3836 -0.0572  0.4083
 2594W        W22128  15.919  13.931   3.004 -0.0131  0.1644 -0.0731
 2595W        W22129   6.338   5.383  12.096 -0.2267 -0.2254  0.0776
 2596W        W22130   2.619   6.626   1.907  0.0272 -0.2102  0.1301
 2597W        W22131   9.499   6.651  13.051  0.1962  0.3593 -0.2156
 2598W        W22132   1.844   0.739  10.466  0.0094  0.0184  0.2910
 2599W        W22133   2.873  10.110   2.286 -0.1514 -0.0844  0.2352
 2600W        W22134   3.725  17.982   4.164 -0.2811 -0.2689  0.1311
 2601W        W22135  15.809   8.711  13.585  0.0332 -0.1834 -0.1999
 2602W        W22136  13.808   0.253   2.326 -0.3265  0.0235 -0.3177
 2603W        W22137   5.730  11.178  11.769  0.1219 -0.1179  0.0030
 2604W        W22138   5.284   3.090   2.041 -0.0506 -0.2656  0.1154
 2605W        W22139   9.578   8.774  11.113 -0.0999  0.1505  0.1403
 2606W        W22140  16.246  17.939   3.869 -0.0104  0.2217 -0.0918
 2607W        W22141  13.410   1.236  10.808 -0.1328 -0.1064  0.3124
 2608W        W22142   5.880  19.014  12.537 -0.0265 -0.0357 -0.2984
 2609W        W22143   8.685  13.148   0.480 -0.0199  0.1191 -0.0743
 2610W        W22144   5.255   0.212  13.235  0.0775  0.2264  0.1352
 2611W        W22145  17.220   2.028  10.620 -0.1927 -0.2903 -0.0356
 2612W        W22146  10.646  14.242  10.005 -0.1407  0.1233 -0.0714
 2613W        W22147  11.343   1.055   1.911  0.6034  0.0455 -0.0837
 2614W        W22148  10.877   8.283   2.466  0.0322 -0.0052  0.0345
 2615W        W22149   7.405  15.539   3.167  0.2683 -0.0631 -0.1221
 2616W        W22150  14.064  18.439  13.526 -0.1793 -0.1043  0.2402
 2617W        W22151   1.632   5.855   2.353  0.1843  0.0406 -0.3121
 2618W        W22152  18.296   1.616   0.929 -0.2716 -0.1219  0.0102
 2619W        W22153  10.136   3.774  14.022 -0.1482 -0.0872  0.1093
 2620W        W22154  16.425   7.274  12.004 -0.1429  0.1254 -0.0179
 2621W        W22155   0.160   5.981   2.409 -0.1246 -0.3125 -0.0573
 2622W        W22156  10.625  11.121  12.409  0.2341 -0.0976  0.1847
 2623W        W22157  16.401   5.620  12.282 -0.0756 -0.0870  0.1599
 2624W        W22158   6.039   6.832  14.137  0.0773 -0.1658 -0.0974
 2625W        W22159  10.227  15.965  11.231 -0.2507 -0.5244  0.1453
 2626W        W22160  13.148   8.465   1.781  0.0096 -0.1294  0.1471
 2627W        W22161   1.102   4.670   3.555  0.0758 -0.0005  0.2797
 2628W        W22162  11.190  18.416  10.459 -0.2098 -0.2102  0.0702
 2629W        W22163  11.689   8.077   3.546 -0.4541  0.2886  0.1311
 2630W        W22164   8.841   5.580  14.083  0.0074 -0.0255  0.0928
 2631W        W22165   3.517   4.679  10.779  0.0410 -0.2315  0.0219
 2632W        W22166   3.093  18.485   3.661 -0.2896 -0.0569  0.1124
 2633W        W22167  10.403  18.512   4.099 -0.3612 -0.0801 -0.0501
 2634W        W22168   2.897  16.369   2.393 -0.0393  0.0700 -0.3654
 2635W        W22169  15.784   9.445  12.751  0.0537 -0.0883  0.0349
 2636W        W22170   9.132   0.378   0.632  0.0726  0.2092  0.0155
 2637W        W22171  18.978   0.273  10.638  0.0099  0.3159  0.1282
 2638W        W22172   1.177   4.703   1.716 -0.1244  0.0572  0.3697
 2639W        W22173  18.094  18.751   2.947  0.1213 -0.1568 -0.0100
 2640W        W22174  15.586   0.762  12.185 -0.0542 -0.0484 -0.1710
 2641W        W22175  17.325  11.630   3.145 -0.0108 -0.3213 -0.0903
 2642W        W22176   0.263  13.745   3.263 -0.1944  0.2153 -0.1927
 2643W        W22177  17.407  12.560  11.367 -0.0224  0.1903  0.1569
 2644W        W22178  14.763   8.966   2.461  0.1599 -0.0558  0.1973
 2645W        W22179   1.307  18.632   1.410  0.2301 -0.3347 -0.0424
 2646W        W22180   0.708  19.118  12.214 -0.1577  0.0898  0.0344
 2647W        W22181   4.969   5.423  11.705  0.1115  0.1036  0.2458
 2648W        W22182  11.884   6.250   1.973 -0.3300  0.0067  0.2881
 2649W        W22183   7.711   5.980  13.516 -0.2452 -0.0766  0.2013
 2650W        W22184  14.856   1.195  11.885  0.1406  0.1822  0.3232
 2651W        W22185  18.062   3.601   2.232 -0.2355  0.0616 -0.2946
 2652W        W22186   5.324   2.889  12.253  0.0022 -0.0121  0.1116
 2653W        W22187   2.373  18.320  11.182 -0.1762  0.1044  0.1643
 2654W        W22188   6.706  12.237   1.560  0.0973  0.1102  0.0223
 2655W        W22189   2.413  18.304  14.644 -0.0507 -0.0682  0.1103
 2656W        W22190  10.330  18.563  11.324  0.0683 -0.3775  0.2315
 2657W        W22191  10.265  17.731   1.346  0.0756 -0.2034  0.2930
 2658W        W22192   6.883  14.117  10.773 -0.2900  0.0174  0.2254
 2659W        W22193  17.632   4.380   3.571  0.0723 -0.0269 -0.1950
 2660W        W22194  12.200  10.987  14.000  0.5758  0.0197 -0.2421
 2661W        W22195   2.145  13.127  12.690 -0.1138 -0.3118 -0.2052
 2662W        W22196   6.044   9.889   1.710 -0.0783  0.1354 -0.1858
 2663W        W22197   2.860  15.881   3.807 -0.0917 -0.1640  0.1226
 2664W        W22198   6.869  15.423   2.916  0.0425 -0.0488 -0.0238
 2665W        W22199  15.549   9.807  10.716  0.1053 -0.2879 -0.2463
 2666W        W22200  17.616  11.003  14.673 -0.1176  0.0383 -0.3434
 2667W        W22201   1.303   9.184  13.872  0.2378  0.1655  0.0354
 2668W        W22202  14.700  14.829  14.389 -0.0659  0.1966  0.0425
 2669W        W22203  18.429  14.945   1.912 -0.1142 -0.0383  0.3164
 2670W        W22204  12.809  10.365   0.115  0.3113 -0.0349  0.0734
 2671W        W22205   7.617   9.483  14.667  0.0989  0.0711 -0.0279
 2672W        W22206   4.897  14.447   1.556 -0.1433  0.0930  0.0112
 2673W        W22207   4.280   6.632  11.453  0.0744 -0.0138 -0.1039
 2674W        W22208  18.994   5.000  13.457  0.3217  0.1001  0.0759
 2675W        W22209   3.822  14.970  13.458  0.1422  0.1242  0.0448
 2676W        W22210  17.065   5.978   0.903 -0.1289  0.1244 -0.1822
 2677W        W22211   1.617  16.243  11.845  0.4705 -0.0438 -0.1450
 2678W        W22212  13.107  11.123  10.686 -0.2635 -0.2471  0.0168
 2679W        W22213   8.106  16.558  11.179  0.1067  0.0781 -0.3015
 2680W        W22214  18.944   3.378  13.867 -0.4682  0.3098  0.0073
 2681W        W22215   1.880  12.976   0.641 -0.1311  0.2043 -0.1339
 2682W        W22216  14.073   3.152  13.981  0.0975 -0.0951  0.1365
 2683W        W22217   7.513   4.162  10.843 -0.4072 -0.0851  0.4151
 2684W        W22218   4.780   7.565   0.549  0.2091  0.3267  0.0307
 2685W        W22219  11.437   9.266   1.623 -0.1619 -0.0055  0.0533
 2686W        W22220   6.222  17.485  11.944  0.1071 -0.0843  0.2994
 2687W        W22221   1.649  12.461   2.329  0.3282  0.1606 -0.3894
 2688W        W22222  16.131  18.295  11.536 -0.3268 -0.0864  0.0945
 2689W        W22223  14.787  17.359   3.973 -0.0286 -0.2278  0.0516
 2690W        W22224  11.711   6.688  11.764  0.1498  0.2871 -0.0494
 2691W        W22225   6.041  18.672  13.489  0.4009 -0.1114  0.3147
 2692W        W22226  17.095   2.072  12.516 -0.1715 -0.0888  0.1641
 2693W        W22227   9.026   1.968  12.829 -0.1781  0.0794  0.1962
 2694W        W22228   0.110   8.162  13.992  0.0718  0.0698 -0.1069
 2695W        W22229  17.065   3.161  13.462  0.0374 -0.0179 -0.2860
 2696W        W22230   9.330  10.704   2.873  0.1022 -0.0200  0.0013
 2697W        W22231  11.701  16.654  12.954 -0.0751 -0.0123 -0.0951
 2698W        W22232   2.949   9.612  12.666  0.3078 -0.0325 -0.2852
 2699W        W22233  18.689  10.415   3.116 -0.0217  0.0744 -0.1341
 2700W        W22234   4.879   0.625   0.354  0.3068  0.0198 -0.0382
 2701W        W22235  12.209  17.558   1.142  0.3357  0.0356  0.0825
 2702W        W22236   0.204  17.723   1.095  0.0903 -0.2463 -0.1391
 2703W        W22237   0.889  14.945  11.749  0.0122  0.0239 -0.2909
 2704W        W22238   6.788   9.971   2.894 -0.4264 -0.1596 -0.1526
 2705W        W22239   0.774  10.286  14.120 -0.3101  0.0050  0.2914
 2706W        W22240   0.552   0.609   4.006  0.1647 -0.3222 -0.3410
 2707W        W22241  16.051  13.518   2.713  0.2678 -0.2599  0.3021
 2708W        W22242   3.825   7.067   4.528 -0.2813 -0.2192 -0.0288
 2709W        W22243   9.568  16.304   3.527  0.1478 -0.0725 -0.1285
 2710W        W22244   4.385   8.813  13.520  0.1026 -0.0467 -0.2754
 2711W        W22245   3.328  16.955  12.930  0.0589 -0.1181  0.3630
 2712W        W22246   1.165   7.310   0.498 -0.2613 -0.0950  0.1375
 2713W        W22247   4.097   3.275  10.161 -0.1185  0.1655  0.1807
 2714W        W22248   6.690   6.812   2.387 -0.1820 -0.0219 -0.0361
 2715W        W22249   5.398  10.430  10.727 -0.1322  0.3392 -0.0218
 2716W        W22250   8.365   2.802  14.762 -0.0109  0.0487 -0.0947
 2717W        W22251  11.036  15.146  13.696  0.1111 -0.1714 -0.2190
 2718W        W22252   1.095   6.039  14.112  0.2147  0.1731  0.2344
 2719W        W22253   9.859   9.035  14.774 -0.1995  0.3073 -0.0236
 2720W        W22254   8.583   8.232  14.102  0.3116  0.3284  0.2261
 2721W        W22255  10.138   6.206   2.138  0.2145  0.2596  0.2416
 2722W        W22256  11.689  14.241  11.866  0.2857  0.1987  0.2042
 2723W        W22257  14.964  14.753   4.027 -0.0103  0.0148  0.1360
 2724W        W22258  10.905   6.378   1.623  0.2252 -0.1263  0.0617
 2725W        W22259  18.293  19.094  11.651 -0.3061  0.0005 -0.0632
 2726W        W22260  10.279  14.727  10.822 -0.0212  0.2122 -0.0439
 2727W        W22261   1.505   3.521   1.541  0.1193 -0.0041  0.1799
 2728W        W22262  17.756   5.501  12.891  0.0124 -0.1907  0.0913
 2729W        W22263  12.811  10.527   1.360 -0.0633  0.0848  0.3603
 2730W        W22264   5.559   4.525   3.954 -0.1541  0.1266  0.2984
 2731W        W22265   1.749  15.296   2.776 -0.0176 -0.1562  0.1410
 2732W        W22266   2.812  18.247   0.594 -0.0921  0.2436 -0.1225
 2733W        W22267  16.385  17.845   2.756  0.0486 -0.0046  0.2543
 2734W        W22268   4.771   8.829   0.823  0.0637 -0.3253  0.0230
 2735W        W22269  18.210  10.162  14.702  0.0010  0.0351  0.0117
 2736W        W22270   0.647   3.938  14.065 -0.1227 -0.2956 -0.2343
 2737W        W22271   2.765   0.730  13.832  0.2933 -0.0071 -0.1011
 2738W        W22272   2.083   9.400  12.038  0.1296 -0.2173 -0.0956
 2739W        W22273   1.491   5.185   0.729  0.0571  0.1433  0.0745
 2740W        W22274   8.337  11.632   3.214 -0.1038  0.1702 -0.1219
 2741W        W22275  10.943   2.891   9.865 -0.0567  0.4508 -0.1017
 2742W        W22276  15.189  15.762   0.302 -0.0334  0.0674  0.2130
 2743W        W22277  18.897   4.726  11.655  0.1098  0.0623  0.0229
 2744W        W22278   4.245   2.559  10.810 -0.1317  0.0632 -0.4148
 2745W        W22279   2.701   6.912   1.516  0.1038 -0.2941  0.1480
 2746W        W22280   8.397  12.233  14.536 -0.1039 -0.0643 -0.2405
 2747W        W22281  18.414  14.108  11.979  0.1298 -0.0025  0.4595
 2748W        W22282  16.987   1.493   3.584 -0.0707  0.0053  0.2594
 2749W        W22283   7.296   7.425  11.868 -0.1032  0.2226 -0.0189
 2750W        W22284   1.519   9.235  14.401  0.1419  0.1473 -0.2015
 2751W        W22285   4.771  14.908  10.852  0.0012  0.1999 -0.4802
 2752W        W22286   3.261   0.639  10.694  0.0556  0.0201 -0.3575
 2753W        W22287  10.024   3.908   0.121 -0.1563  0.0147 -0.4340
 2754W        W22288   2.831  11.806  14.085  0.1392  0.0694  0.2226
 2755W        W22289  15.744   4.193  11.395  0.1298  0.2747  0.0982
 2756W        W22290   3.444  14.755   3.178 -0.0535 -0.0334  0.1949
 2757W        W22291  17.241   0.042  10.579 -0.0836  0.0131  0.0418
 2758W        W22292   9.321   0.962   2.427 -0.1817  0.2718 -0.1445
 2759W        W22293   3.868   7.008  14.768  0.0619  0.0201  0.0064
 2760W        W22294   9.164   7.472   0.413 -0.1711  0.2721 -0.1414
 2761W        W22295   6.220   7.720   1.713 -0.1560  0.2805  0.1804
 2762W        W22296   9.487  18.429   3.752  0.0485 -0.1095  0.0529
 2763W        W22297  17.130   5.634  12.882  0.1690 -0.1844 -0.0684
 2764W        W22298  12.948   3.871  13.043 -0.1094  0.0257 -0.1314
 2765W        W22299   8.759  17.111   0.556 -0.0129  0.0094  0.2438
 2766W        W22300  16.868  18.417   9.530  0.0523  0.0100 -0.1099
 2767W        W22301  17.577  10.127  11.009 -0.0610  0.0141 -0.3544
 2768W        W22302  10.817  17.886  13.920 -0.1367 -0.1098 -0.1743
 2769W        W22303   9.778   4.435   3.053 -0.0372  0.0329  0.0369
 2770W        W22304   0.894   5.501   4.081  0.1867 -0.0056  0.2626
 2771W        W22305  17.719  13.189  14.579 -0.0868  0.1431  0.1373
 2772W        W22306   0.037   1.653   2.064 -0.3581  0.2086  0.4342
 2773W        W22307  15.967   4.138   2.633  0.1420  0.3159 -0.2446
 2774W        W22308  13.114   1.507   2.880 -0.0179 -0.3133  0.2792
 2775W        W22309   6.995  12.986   1.181  0.1723  0.0005  0.3828
 2776W        W22310  10.426  11.581   1.979  0.1297  0.3167  0.0434
 2777W        W22311   7.409   4.717  12.400 -0.2515 -0.1579 -0.1456
 2778W        W22312   8.095   7.332   0.907 -0.0864  0.1752 -0.2950
 2779W        W22313  17.449  18.351  13.410 -0.0681  0.0570  0.1697
 2780W        W22314  16.548   9.256  14.801  0.1287 -0.1234 -0.1995
 2781W        W22315  11.235   3.259   3.664 -0.1801 -0.0328 -0.2261
 2782W        W22316  11.583   8.438   0.535  0.0393 -0.1050 -0.1266
 2783W        W22317  10.812   1.325   1.555  0.0298  0.1784 -0.0905
 2784W        W22318   0.838   1.629  11.895 -0.0734 -0.2048 -0.1081
 2785W        W22319  16.428   7.080   4.227  0.4551  0.0891  0.1037
 2786W        W22320   3.500   7.619  12.242 -0.1089  0.1215 -0.0734
 2787W        W22321  17.761  10.027   0.273 -0.0421 -0.4250  0.2770
 2788W        W22322  17.210   9.984   3.933  0.1516  0.4007 -0.2389
 2789W        W22323   2.917   2.885  10.797 -0.0331 -0.0500 -0.1854
 2790W        W22324   5.225  12.174   2.511 -0.2261  0.0120  0.1602
 2791W        W22325   2.636  14.170  11.158 -0.0279  0.4552  0.0736
 2792W        W22326   0.763  10.329  12.381 -0.0366 -0.2595  0.0255
 2793W        W22327   0.050  12.279  13.253  0.1938  0.0292  0.0735
 2794W        W22328   9.681   3.117  12.276  0.1628 -0.0874 -0.1599
 2795W        W22329   2.251   8.424   1.643 -0.2455  0.1018 -0.2669
 2796W        W22330   7.635   0.782  12.431 -0.5097 -0.0839 -0.4839
 2797W        W22331   2.281  16.478  10.413  0.0321 -0.1071  0.1212
 2798W        W22332  14.747   5.755   2.949 -0.2264  0.3438  0.0315
 2799W        W22333   3.190   4.794   3.948  0.0374  0.1066 -0.1731
 2800W        W22334   4.968   7.963  12.596 -0.1923  0.2384 -0.0193
 2801W        W22335   6.588   1.423  13.911 -0.2003  0.0163 -0.0673
 2802W        W22336   7.095  12.487   4.187 -0.0187 -0.1862 -0.0815
 2803W        W22337  14.676   6.953   2.671  0.1779 -0.0153 -0.0330
 2804W        W22338  14.683   9.568   3.704  0.1778  0.2207  0.0900
 2805W        W22339  18.958  15.527  13.532 -0.1294  0.0475  0.1927
 2806W        W22340  12.560   3.558  12.966  0.1150 -0.0105  0.1608
 2807W        W22341  11.915   8.666   0.214 -0.3108  0.2222  0.1004
 2808W        W22342   1.389  10.286  11.591  0.0688  0.0034  0.3307
 2809W        W22343  11.270  17.220  10.678  0.2859  0.1403  0.0700
 2810W        W22344   8.090   9.764   4.433  0.0308  0.1961  0.0389
 2811W        W22345  13.131  12.488   1.656  0.2757  0.0095  0.1658
 2812W        W22346   1.906   9.780   0.967  0.0509  0.0232 -0.1689
 2813W        W22347  11.845   4.094  11.306  0.2406 -0.2503  0.1311
 2814W        W22348  11.748   2.743   3.426  0.2793  0.0382 -0.2315
 2815W        W22349   3.521   7.849   4.058  0.1670  0.3050  0.3672
 2816W        W22350   1.073  13.119   2.073  0.3792  0.1562  0.0581
 2817W        W22351  17.263  15.118  12.185 -0.2524  0.1495 -0.0577
 2818W        W22352   8.816   7.854   5.502  0.4687 -0.1797 -0.0335
 2819W        W22353   7.038  14.164  11.316  0.1010 -0.0685  0.0581
 2820W        W22354   4.888   6.692   3.510  0.0234 -0.1696 -0.1873
 2821W        W22355   5.925   0.037   1.217 -0.0582  0.0677  0.1439
 2822W        W22356   7.916  16.719   2.148 -0.0700 -0.0740 -0.0611
 2823W        W22357   1.651  12.659   3.442 -0.0766 -0.2245 -0.0528
 2824W        W22358  13.070   0.034   1.675 -0.1294  0.2018 -0.0643
 2825W        W22359   7.438   4.887   3.179  0.0435 -0.0825  0.0076
 2826W        W22360   2.172  10.094  10.939  0.0257  0.0340  0.0883
 2827W        W22361   2.229   3.002  10.502 -0.3344  0.2532  0.3423
 2828W        W22362   6.339   1.700   1.839 -0.4652 -0.2277  0.0010
 2829W        W22363   2.916  18.312  12.007 -0.1785 -0.0142 -0.2081
 2830W        W22364   9.415   7.277  14.605 -0.1777 -0.1418  0.2138
 2831W        W22365   2.371  12.763  12.403  0.2395 -0.1571  0.0757
 2832W        W22366  12.878   1.301  13.998  0.0788 -0.0012 -0.1430
 2833W        W22367  15.384   8.865  10.673  0.1471 -0.1801 -0.1756
 2834W        W22368   1.834   3.362   0.736  0.0431  0.1748 -0.0216
 2835W        W22369   2.574   7.046  10.815  0.0032  0.0153 -0.0539
 2836W        W22370  13.306  16.077  12.483  0.1731  0.0215 -0.1408
 2837W        W22371  15.979   8.901  14.798  0.1410 -0.1030  0.0389
 2838W        W22372   8.532  11.224  11.090 -0.0387 -0.1744  0.1595
 2839W        W22373  16.280   9.773   2.635 -0.1541  0.0798 -0.0809
 2840W        W22374  13.148  13.454  12.540  0.0470  0.2261  0.0590
 2841W        W22375   4.089   1.314   0.231 -0.0673 -0.0533 -0.1271
 2842W        W22376   9.777   6.529   2.006  0.1140 -0.1668  0.0602
 2843W        W22377   5.160  14.464   5.326 -0.1534 -0.1278  0.3709
 2844W        W22378  11.579  11.842   2.024 -0.2220 -0.2963  0.2779
 2845W        W22379  12.664  18.093  13.943  0.2469  0.2137  0.3622
 2846W        W22380   1.318   5.012  11.223  0.1179  0.0621 -0.1240
 2847W        W22381  12.185   1.587  13.786  0.0966  0.4941 -0.2043
 2848W        W22382   0.344   7.463   0.666  0.2254 -0.2973 -0.1037
 2849W        W22383   0.363   0.038   4.282  0.0466  0.2120 -0.0025
 2850W        W22384   4.977  16.696  11.496  0.0935  0.2044 -0.0389
 2851W        W22385   6.100   0.600   3.794  0.1705  0.1367  0.2044
 2852W        W22386  17.491  18.574  11.274 -0.1930 -0.1017 -0.3326
 2853W        W22387   7.929   7.705  11.155 -0.2378  0.3134  0.0233
 2854W        W22388   6.761   8.036  14.741 -0.2307  0.0319 -0.0005
 2855W        W22389   1.039  16.620  13.051  0.0644  0.0882  0.0770
 2856W        W22390  13.528   9.261  10.977 -0.1681  0.2391  0.0191
 2857W        W22391   7.363  13.561   2.367  0.2851 -0.0323  0.2078
 2858W        W22392  18.850   6.882  12.078 -0.0097  0.1128  0.0299
 2859W        W22393   0.734   6.003  13.748  0.3676  0.1526  0.0683
 2860W        W22394   2.064   0.527   1.167  0.3585 -0.1285 -0.3594
 2861W        W22395  10.967  11.111  14.453  0.1614 -0.3173 -0.1148
 2862W        W22396  13.957   6.574   3.309  0.2130 -0.1735 -0.1425
 2863W        W22397  18.103  17.353  11.221 -0.0128  0.1195 -0.0905
 2864W        W22398   3.761   9.808  14.475 -0.0330  0.1717  0.1209
 2865W        W22399  10.603  15.336  13.494  0.1001 -0.2136 -0.1195
 2866W        W22400   8.233  10.415   3.074  0.0338  0.2778  0.1234
 2867W        W22401   8.488   2.140  12.810 -0.0111  0.0686  0.1370
 2868W        W22402   1.258  15.917   1.090 -0.2840  0.4928 -0.2141
 2869W        W22403  16.586  13.962  14.272  0.1422 -0.0814 -0.2699
 2870W        W22404   1.299  10.239   4.394  0.2715  0.0862 -0.0065
 2871W        W22405   6.488   4.210  13.219 -0.1173 -0.2291 -0.2097
 2872W        W22406  10.777  14.054   2.303 -0.1303 -0.1968 -0.2615
 2873W        W22407  14.242  11.699  11.048 -0.0794  0.0341  0.0935
 2874W        W22408  15.695   9.114  10.906 -0.0175 -0.0132 -0.2034
 2875W        W22409  15.122   4.851  13.103 -0.0840 -0.3136  0.2233
 2876W        W22410  12.248  18.087   9.918 -0.3015  0.0153  0.4228
 2877W        W22411  14.979  16.069   3.442 -0.1233 -0.2031  0.1143
 2878W        W22412  17.593   0.180   2.177 -0.1709  0.0056 -0.0719
 2879W        W22413  13.799   7.883   2.057 -0.0345 -0.4585 -0.1111
 2880W        W22414   5.786  14.771  12.271  0.0286  0.0541  0.0180
 2881W        W22415   1.041  18.005   2.396  0.0875 -0.2143 -0.1845
 2882W        W22416  11.085  11.980   1.268 -0.0015  0.2050 -0.0985
 2883W        W22417   8.645   0.625   0.516 -0.1983 -0.0404  0.0602
 2884W        W22418   8.786   5.994  11.363 -0.3662  0.0615 -0.0784
 2885W        W22419   0.539   4.199   2.914  0.1387 -0.3396 -0.0522
 2886W        W22420   3.545  13.732  10.112  0.2156  0.1502  0.1855
 2887W        W22421   1.813   7.849   4.414  0.0231 -0.1419 -0.0795
 2888W        W22422   8.401   3.579   4.678  0.0510  0.2106  0.2103
 2889W        W22423   9.824  11.132  11.905 -0.0399 -0.1561  0.0878
 2890W        W22424   0.343  15.158   1.423 -0.1070  0.0531 -0.1672
 2891W        W22425   1.131   9.484  13.138 -0.0657 -0.2202 -0.0631
 2892W        W22426  17.925   1.682  13.901  0.3254  0.2643  0.1364
 2893W        W22427  12.102  15.513   1.578  0.0497 -0.0174 -0.1183
 2894W        W22428  15.948   1.269  12.102 -0.0162 -0.0148 -0.0933
 2895W        W22429  15.646  18.272  13.836  0.0627 -0.0784  0.0743
 2896W        W22430  10.647   7.811   2.702 -0.1912 -0.0344  0.0903
 2897W        W22431  11.054   2.676   2.746  0.0225 -0.1584  0.0145
 2898W        W22432  16.564   3.834   0.879 -0.1075 -0.0164 -0.0898
 2899W        W22433  16.806  13.157  12.419 -0.1943 -0.0118  0.0299
 2900W        W22434   3.089  10.773  11.713 -0.2863  0.0116 -0.2347
 2901W        W22435  12.003  11.412   0.629  0.2435 -0.0945  0.0735
 2902W        W22436   4.368  17.290  12.801  0.0956  0.3712 -0.0355
 2903W        W22437   8.101   6.204  13.883  0.1329 -0.0391  0.1743
 2904W        W22438  11.677  11.088  12.484  0.0177  0.1409  0.3492
 2905W        W22439  16.371  14.562  13.510 -0.1127  0.4383  0.0659
 2906W        W22440  17.061   1.084   0.450 -0.1033 -0.1932 -0.4016
 2907W        W22441  16.917   8.701   1.823  0.2231 -0.0155 -0.1166
 2908W        W22442  10.216   9.476   3.847  0.2958 -0.2108  0.2069
 2909W        W22443   0.151   2.807   1.353 -0.1676 -0.3969  0.0605
 2910W        W22444  17.622  16.278  11.317  0.1531  0.2190 -0.0290
 2911W        W22445  11.148   5.953  14.117 -0.1227 -0.2116 -0.2763
 2912W        W22446  12.407  11.640   1.140 -0.2859  0.0716  0.1284
 2913W        W22447   5.339  11.083  11.308  0.2126 -0.1384 -0.3177
 2914W        W22448  11.539   6.491  11.320  0.1974 -0.0772  0.0403
 2915W        W22449  16.692  17.019  12.987  0.0342 -0.1669  0.1236
 2916W        W22450   6.004  15.485   1.553 -0.2445 -0.2703  0.0544
 2917W        W22451  14.156  10.490   0.244 -0.1095 -0.0265  0.1587
 2918W        W22452  16.080  15.309  10.614 -0.1806  0.1322  0.1114
 2919W        W22453   5.950  16.755   1.688  0.2363 -0.0674 -0.0516
 2920W        W22454   5.506  18.296  12.446 -0.0100 -0.1332 -0.0163
 2921W        W22455   4.544  15.030  14.217 -0.0295 -0.4584  0.3189
 2922W        W22456   3.274  18.271  12.583  0.2491 -0.4940  0.1052
 2923W        W22457   6.554   4.603   1.261  0.2547  0.1013 -0.0042
 2924W        W22458   7.828   0.223   2.354 -0.1287  0.2088  0.1126
 2925W        W22459  12.466   2.335   9.881 -0.1584 -0.0911  0.0062
 2926W        W22460   3.129  16.645   1.417  0.2256 -0.2235 -0.1306
 2927W        W22461  17.751  13.845  11.504 -0.0937  0.2307  0.0572
 2928W        W22462   0.199  15.852  13.703  0.1979 -0.1771 -0.0469
 2929W        W22463   4.721   8.553   3.956  0.2067  0.0633 -0.0109
 2930W        W22464   1.875  18.808   0.466 -0.0318  0.2556 -0.2736
 2931W        W22465  11.398   4.078  12.251 -0.2252 -0.0322  0.0307
 2932W        W22466   2.095  10.361  12.609  0.3580  0.0454  0.1509
 2933W        W22467   1.936   6.974  11.756 -0.2704 -0.0629 -0.2205
 2934W        W22468  15.580  16.617   0.776 -0.1667  0.1524  0.2397
 2935W        W22469   7.027   0.069   3.072  0.1703 -0.2499 -0.2159
 2936W        W22470   8.106   5.135  11.306 -0.0065 -0.0246 -0.0527
 2937W        W22471   5.214  12.554  11.733 -0.0670  0.0896  0.0552
 2938W        W22472   8.922   6.403  11.582 -0.0083 -0.3549 -0.1724
 2939W        W22473   7.856  10.577  12.675 -0.1019 -0.1279 -0.1203
 2940W        W22474  13.337   3.456   0.304 -0.2766  0.4436  0.0617
 2941W        W22475   7.622  13.561  12.843  0.0358  0.3582 -0.4040
 2942W        W22476  16.568   2.731  10.579 -0.3611 -0.2281  0.2563
 2943W        W22477   4.699  18.829   2.523 -0.0272 -0.2513  0.0854
 2944W        W22478  16.989  16.583  13.708 -0.1789  0.4576  0.0853
 2945W        W22479   2.979   3.191  13.162  0.2059  0.1121 -0.0419
 2946W        W22480   8.970   1.730   3.944  0.1183 -0.0497  0.2311
 2947W        W22481   1.879   2.257   4.183 -0.0765 -0.0982 -0.2470
 2948W        W22482   5.554  17.251  12.197 -0.2664  0.1174 -0.1371
 2949W        W22483   8.391  15.021  13.637  0.0877  0.0535 -0.1988
 2950W        W22484  15.584  14.258   4.507  0.0261 -0.5212 -0.2403
 2951W        W22485  15.493   9.845   2.470 -0.0638  0.2041  0.1786
 2952W        W22486   6.625   5.420  10.228  0.0295  0.2113 -0.1085
 2953W        W22487   2.925   0.858  10.984  0.1127  0.1190 -0.0954
 2954W        W22488  13.792   0.706  13.609  0.1695  0.0674 -0.2803
 2955W        W22489  10.779   6.200   3.579  0.0060  0.0044  0.1154
 2956W        W22490  12.108  14.715   2.800 -0.0849  0.3461 -0.1396
 2957W        W22491  16.165   4.644   3.422  0.0276 -0.1299 -0.0432
 2958W        W22492  11.491   3.307   4.131 -0.0102  0.1489 -0.3596
 2959W        W22493  12.481   6.537   2.292  0.1683  0.0925 -0.0013
 2960W        W22494   4.967  19.067  11.184  0.0072  0.0691 -0.1095
 2961W        W22495   1.390   9.221  11.480  0.2046  0.3390 -0.0838
 2962W        W22496   8.748   0.175  12.895 -0.1560  0.0372  0.0842
 2963W        W22497  10.149   1.206   0.382 -0.1350 -0.1828 -0.1578
 2964W        W22498   5.590  10.288   3.084 -0.0790  0.3050 -0.0287
 2965W        W22499  13.483   6.425  12.909 -0.2046 -0.0871  0.1592
 2966W        W22500  15.889   6.154  12.756  0.0809  0.2559  0.0345
 2967W        W22501  10.021  17.851  11.137  0.0999  0.1201 -0.1561
 2968W        W22502   8.374  13.522   2.848 -0.0967  0.0218 -0.0893
 2969W        W22503  13.449   0.175   1.383  0.1339  0.1113  0.0167
 2970W        W22504  13.152   7.718  14.667  0.2849 -0.1506  0.0603
 2971W        W22505  15.602   1.069  13.484  0.0866  0.2952 -0.2773
 2972W        W22506  16.207   0.600   1.387  0.0857  0.0256 -0.0623
 2973W        W22507  10.325   4.137   1.270  0.0350  0.0978 -0.2366
 2974W        W22508  18.630   4.611   4.662 -0.1019 -0.1531  0.0318
 2975W        W22509   1.808   6.717  14.259  0.1926  0.2681  0.4446
 2976W        W22510   8.802   0.102   0.280 -0.3004  0.3488  0.1413
 2977W        W22511  16.150  11.218  11.235 -0.1946 -0.0277  0.1589
 2978W        W22512   9.599  13.297   1.939  0.1819  0.0236 -0.1521
 2979W        W22513   3.683  18.445   1.703 -0.1392 -0.1258 -0.0296
 2980W        W22514   8.110   0.999   4.548  0.0908  0.0135 -0.0291
 2981W        W22515   5.709   8.153  11.059 -0.2271  0.0120 -0.0699
 2982W        W22516  14.639  18.031  10.746 -0.1357 -0.0816 -0.0567
 2983W        W22517  14.759   4.404   1.829 -0.3023 -0.0730 -0.0034
 2984W        W22518  15.974   9.258  11.604 -0.0173 -0.2260  0.0623
 2985W        W22519  14.913   3.433   2.070  0.1232 -0.0440 -0.1422
 2986W        W22520  12.081   4.492   5.048 -0.0622  0.3099 -0.1377
 2987W        W22521  10.802   2.559   1.886  0.2980  0.0418  0.1518
 2988W        W22522   7.772  18.388  11.673 -0.2355 -0.2909  0.1209
 2989W        W22523  15.732   1.689  12.834 -0.1933  0.0581  0.1158
 2990W        W22524  17.723  16.216   0.103  0.0711 -0.1067 -0.0511
 2991W        W22525   7.319   5.597   2.088 -0.3022  0.0118 -0.0635
 2992W        W22526  16.948   0.258   2.101 -0.2153  0.0943  0.0884
 2993W        W22527   9.132  10.110   4.403 -0.0623 -0.1372 -0.0019
 2994W        W22528  18.922  14.424  13.344 -0.2211 -0.1550  0.0019
 2995W        W22529  13.096   5.004   3.131  0.1888 -0.0348  0.3330
 2996W        W22530  15.130   1.495   1.947  0.0096  0.1657  0.0452
 2997W        W22531  15.799   7.044   3.926  0.0813  0.0480  0.0718
 2998W        W22532   8.868  17.783   4.345 -0.1048 -0.1766 -0.1314
 2999W        W22533   2.769  15.289   2.080  0.2309 -0.3898 -0.0850
 3000W        W22534   6.602  11.582  11.665 -0.1708  0.0106  0.1042
 3001W        W22535   7.479  17.091  11.175 -0.0112 -0.1289  0.0631
 3002W        W22536   7.137   0.650  12.633  0.0467 -0.0032  0.1375
 3003W        W22537   7.793   4.349  11.201 -0.0609 -0.0537 -0.0890
 3004W        W22538   9.094   8.744  14.293 -0.0245  0.3205 -0.0972
 3005W        W22539  11.129  17.046   3.914  0.0752 -0.0863 -0.0100
 3006W        W22540  17.374   9.739  10.819  0.0486 -0.1615  0.0600
 3007W        W22541   8.685   2.221   1.755  0.0479 -0.2967 -0.0210
 3008W        W22542  18.371  18.840   2.369  0.2387  0.3461  0.0625
 3009W        W22543  16.437  12.663   0.139  0.1567  0.0548  0.4628
 3010W        W22544  12.481   6.009   0.740 -0.1355  0.0429 -0.1208
 3011W        W22545   5.864   6.697   2.479  0.2316  0.2524  0.0688
 3012W        W22546   9.621   9.843  14.130 -0.1817 -0.1060  0.3394
 3013W        W22547   7.816   8.314  11.215  0.2997  0.1661  0.0054
 3014W        W22548  18.442  16.363  11.362 -0.3218 -0.1091  0.2673
 3015W        W22549  14.506  16.378   4.052  0.1138  0.3326 -0.2011
 3016W        W22550   8.337   2.413   2.380 -0.2138  0.0911 -0.1095
 3017W        W22551  14.194   3.366  12.030  0.1850  0.0602 -0.1284
 3018W        W22552   1.194  16.480  11.704 -0.3161  0.1252 -0.0554
 3019W        W22553   8.687  12.160   3.844  0.2313  0.0839  0.0231
 3020W        W22554   4.126   5.310  14.570  0.0044  0.0196 -0.0379
 3021W        W22555   8.795  16.856   3.054  0.0071  0.3176 -0.1132
 3022W        W22556   5.400   7.519   1.218 -0.2536  0.1001  0.1841
 3023W        W22557  10.614  10.707   3.393 -0.1690 -0.1238 -0.1498
 3024W        W22558   7.961   9.303   0.614 -0.0003 -0.1072  0.2841
 3025W        W22559   3.224  12.933   2.990  0.3438 -0.1147 -0.1545
 3026W        W22560  16.981   0.950  11.697 -0.2824 -0.1809  0.1789
 3027W        W22561  18.663  12.078  12.544  0.2818  0.1376  0.0774
 3028W        W22562   4.234   4.205  13.014  0.0323 -0.1553  0.4460
 3029W        W22563  12.633   8.759   3.033  0.1978 -0.1182 -0.0748
 3030W        W22564   1.197   0.192   2.630 -0.1263  0.1947  0.1043
 3031W        W22565   4.081  16.480   1.333 -0.0482  0.1674  0.0328
 3032W        W22566   0.099   8.026  10.768 -0.0858 -0.0003  0.0290
 3033W        W22567   5.635  14.939   5.022  0.2135 -0.3398  0.0630
 3034W        W22568  10.908   1.298  10.969 -0.0334  0.0654  0.0131
 3035W        W22569   5.250   9.396   2.160  0.1587 -0.0287  0.0034
 3036W        W22570  10.511   1.837  13.788 -0.1104  0.1888 -0.1118
 3037W        W22571  15.608  13.851  12.206  0.0102  0.1748 -0.2098
 3038W        W22572   2.162   7.138  14.069  0.1286 -0.0163  0.0065
 3039W        W22573   0.036  15.819  13.176 -0.0097  0.1307 -0.0383
 3040W        W22574   7.583   5.040  13.507 -0.4924  0.1882  0.2378
 3041W        W22575  10.149   7.348   2.017 -0.0360 -0.1001  0.2721
 3042W        W22576   3.646   6.248   3.041 -0.0777  0.4738  0.2310
 3043W        W22577  11.676  18.366   3.445 -0.0954  0.1492 -0.1933
 3044W        W22578  18.827  13.592  13.700  0.2192 -0.1716  0.0082
 3045W        W22579  14.689   3.216   9.174 -0.1262  0.2897 -0.3975
 3046W        W22580  14.836  15.708  11.736 -0.1674  0.0751 -0.1815
 3047W        W22581   2.055  17.598   3.929  0.3325  0.2825 -0.3142
 3048W        W22582   2.210  18.084   4.039  0.0614 -0.3240  0.1156
 3049W        W22583   1.936   9.232   1.061  0.1436  0.5079 -0.0158
 3050W        W22584   3.803  12.320  12.556 -0.2158  0.0669 -0.0401
 3051W        W22585   9.626  18.305  14.201 -0.1076  0.2016 -0.0520
 3052W        W22586  12.576   4.587   3.631 -0.1356  0.0268 -0.0096
 3053W        W22587  18.698  14.768  14.157  0.2122 -0.0153 -0.3580
 3054W        W22588  14.392  18.493   0.435  0.0098  0.1518 -0.0276
 3055W        W22589  15.698  14.305   2.763 -0.1138 -0.0925  0.0338
 3056W        W22590  18.179   0.167   3.002 -0.0747  0.1133  0.4317
 3057W        W22591   4.464  14.414   3.061 -0.2033  0.2826  0.1251
 3058W        W22592  13.717   6.011  13.635 -0.0759  0.1264  0.0274
 3059W        W22593  14.384   9.843   2.319  0.0415  0.3061  0.0260
 3060W        W22594  13.853   3.148  11.733  0.0835  0.1160  0.0512
 3061W        W22595   9.082   6.472  12.114 -0.1140 -0.0388 -0.0001
 3062W        W22596  12.576  18.740   3.329  0.0324  0.0434 -0.0384
 3063W        W22597   5.533  16.077  12.472 -0.0920 -0.0934 -0.0114
 3064W        W22598   6.818   1.503   3.931 -0.1349  0.2246  0.1426
 3065W        W22599   0.099  18.413   1.156  0.0726  0.1894  0.4232
 3066W        W22600  17.603  15.923  11.700  0.1209  0.1115  0.0591
 3067W        W22601  11.793  12.246  13.075  0.1724  0.1252 -0.0151
 3068W        W22602   2.941   0.336  11.070 -0.1038 -0.0751  0.1271
 3069W        W22603   8.678  10.527   9.632 -0.2462 -0.0279  0.4970
 3070W        W22604   7.745  18.483  14.404 -0.2126 -0.1683 -0.1075
 3071W        W22605   3.856   0.130  14.146  0.2317  0.0198 -0.1555
 3072W        W22606   6.534   4.923  11.294  0.0363 -0.0530 -0.0752
 3073W        W22607   2.113   4.306   9.533 -0.3804  0.0367 -0.1739
 3074W        W22608   5.599   6.474  14.019  0.1336 -0.2417 -0.1540
 3075W        W22609   4.506   2.099  14.682 -0.0677 -0.1064 -0.2004
 3076W        W22610   0.731  14.019   1.021  0.0677  0.0219  0.1460
 3077W        W22611   6.984  14.867   3.778  0.2774  0.0002  0.2137
 3078W        W22612  12.918   9.963  14.675  0.1107 -0.2764 -0.0719
 3079W        W22613   7.550  18.528   2.365  0.3848  0.0102  0.0941
 3080W        W22614  13.943   9.719  12.126 -0.0941  0.2412 -0.0072
 3081W        W22615   7.639  16.530  14.797  0.2680  0.1586  0.0987
 3082W        W22616  15.887   8.165   3.661  0.1110  0.2206 -0.2217
 3083W        W22617   6.901  16.570  12.480  0.4077 -0.3025 -0.1379
 3084W        W22618  11.223   1.697  12.536  0.0027 -0.1880 -0.1042
 3085W        W22619   2.560   7.518  13.302  0.0717 -0.1663 -0.0681
 3086W        W22620   4.435  10.951  11.815  0.0422  0.2626 -0.0512
 3087W        W22621  15.937   4.691   1.729  0.1668  0.2259 -0.3940
 3088W        W22622   2.734   3.436   0.209 -0.3307 -0.0516 -0.0506
 3089W        W22623   6.884  13.853   2.319 -0.1013 -0.0904 -0.1697
 3090W        W22624  14.005  14.338   4.125  0.1703 -0.0012 -0.0013
 3091W        W22625  18.752  10.975  11.197 -0.0566  0.1084 -0.0498
 3092W        W22626  10.165   0.669  12.082  0.0215 -0.1772 -0.0789
 3093W        W22627  17.141   7.671   2.947 -0.0810 -0.2662  0.0290
 3094W        W22628   6.829  10.007   2.337  0.1236  0.0565 -0.0652
 3095W        W22629  11.760  16.141   3.882 -0.2046  0.2444 -0.1103
 3096W        W22630   0.009  18.920  13.939  0.0928 -0.2724  0.0483
 3097W        W22631   9.935  10.887  14.516 -0.2022 -0.2700 -0.1882
 3098W        W22632  12.728  14.402   1.649 -0.2160  0.1258  0.1346
 3099W        W22633   9.879  15.057  12.687  0.0746 -0.0636 -0.1543
 3100W        W22634  15.211   2.889  10.481  0.1525 -0.0857 -0.1344
 3101W        W22635   5.894   0.507   1.390 -0.0979 -0.1091  0.1649
 3102W        W22636   1.931   3.151   2.752  0.1437  0.0393  0.1268
 3103W        W22637  11.025  18.815   0.170 -0.0139  0.2429  0.1233
 3104W        W22638   3.159  11.042  14.766 -0.1529  0.2296  0.3226
 3105W        W22639   7.154  10.330  13.310  0.1163 -0.2745  0.0916
 3106W        W22640   2.433   0.972   2.402  0.1130 -0.3482  0.1494
 3107W        W22641  18.601  16.435  14.329  0.2246 -0.1553 -0.0146
 3108W        W22642   8.452   1.056   2.402  0.1683  0.1613 -0.1663
 3109W        W22643   3.268  15.365   0.622 -0.0977 -0.2820  0.0214
 3110W        W22644   5.174  12.681   0.835 -0.1248 -0.2217  0.1499
 3111W        W22645  17.641  15.270  13.513 -0.2022 -0.0875  0.0841
 3112W        W22646  15.892   2.530  11.673  0.2200  0.0473  0.2418
 3113W        W22647   0.915  13.313  11.165  0.0860 -0.1954 -0.2827
 3114W        W22648  12.459  18.992   1.177 -0.1642 -0.2112 -0.3381
 3115W        W22649  15.100   9.002  14.320 -0.1315  0.0314 -0.3063
 3116W        W22650  12.760  14.316   0.587  0.1377 -0.1377  0.2520
 3117W        W22651  12.506  11.646   3.541  0.0835 -0.1036  0.2636
 3118W        W22652  12.127  18.918   3.105  0.2609  0.0014 -0.1157
 3119W        W22653  15.464  16.428  14.546 -0.1477  0.1638  0.0555
 3120W        W22654  17.981  16.710  12.672 -0.0762  0.2188  0.0661
 3121W        W22655  18.299   8.872   3.679 -0.2171 -0.0727 -0.0003
 3122W        W22656  11.461  16.933   3.177  0.0267  0.0652  0.2319
 3123W        W22657   3.217   6.551   0.717 -0.1373 -0.1143 -0.1430
 3124W        W22658   6.555   7.358  13.672  0.1724  0.2306 -0.0882
 3125W        W22659  17.871   9.538  14.303 -0.1601  0.1257  0.0292
 3126W        W22660   3.099  11.767  12.659  0.2612 -0.1517 -0.1334
 3127W        W22661  15.236  13.808   1.878 -0.1754  0.0481 -0.2538
 3128W        W22662   9.473   8.325   3.020 -0.0498 -0.1417  0.0503
 3129W        W22663   5.799  16.769   3.344  0.2858  0.1747 -0.0448
 3130W        W22664   1.837   4.930  13.252  0.2459  0.2527  0.2049
 3131W        W22665  11.018   4.693   2.889 -0.4045 -0.1992  0.1350
 3132W        W22666  15.778   8.177  13.070 -0.0214 -0.1173  0.0560
 3133W        W22667  17.664   5.055   2.766 -0.1400 -0.0524 -0.0116
 3134W        W22668  15.796  18.231   2.217  0.2451  0.0513  0.1639
 3135W        W22669  16.374  19.109  11.212 -0.2697 -0.0909  0.2478
 3136W        W22670   9.850  17.230  14.539 -0.0803 -0.2509 -0.2890
 3137W        W22671  12.865  16.309  13.443 -0.1505  0.1784  0.1444
 3138W        W22672  15.660   7.760   2.124  0.0238  0.1670  0.0074
 3139W        W22673   7.072  15.745  14.660  0.1342 -0.2430 -0.0330
 3140W        W22674   7.920   3.653   0.542  0.0353  0.0889 -0.1228
 3141W        W22675   8.115  13.864   0.805 -0.2998 -0.1455  0.0106
 3142W        W22676  10.276   3.261  14.236  0.1800 -0.2544  0.0971
 3143W        W22677  18.779  13.627   0.616  0.1461  0.0193 -0.2372
 3144W        W22678  11.826  13.185   1.926 -0.1110  0.0591  0.0684
 3145W        W22679   2.636  17.528  13.694 -0.1318  0.0174 -0.0858
 3146W        W22680   7.756   8.505  13.218 -0.0755  0.0645 -0.3111
 3147W        W22681   5.147  14.422   4.146 -0.1052 -0.3154 -0.1330
 3148W        W22682   3.831   5.455   1.317 -0.1145 -0.1534  0.0294
 3149W        W22683  15.249  15.264   2.384  0.1441 -0.1513  0.0748
 3150W        W22684  11.621  12.331   4.996  0.0732 -0.0359  0.2824
 3151W        W22685  12.718   4.749   2.834 -0.2346  0.3275 -0.3215
 3152W        W22686   7.604  18.824   0.197 -0.0915 -0.2668 -0.0214
 3153W        W22687  18.351  13.490  14.025 -0.2370 -0.1423 -0.1124
 3154W        W22688   0.910  12.498  13.141 -0.1447 -0.2586 -0.0726
 3155W        W22689   3.134  17.489   1.515 -0.2740 -0.1723  0.1497
 3156W        W22690  14.418   6.587   1.386  0.1161 -0.1882  0.3335
 3157W        W22691  18.046   5.333  11.154 -0.3029  0.1918  0.0361
 3158W        W22692   7.410   5.355   4.373 -0.0720  0.1420 -0.1323
 3159W        W22693  12.380  16.684   0.261 -0.0247 -0.3212  0.0008
 3160W        W22694   5.795  18.813  13.093  0.0911 -0.4103 -0.2055
 3161W        W22695  18.471   3.879   2.524 -0.2460  0.0090  0.0594
 3162W        W22696  12.285   8.747  13.640  0.0184  0.0886 -0.1511
 3163W        W22697   2.237   8.547   3.070  0.1391 -0.2844 -0.0069
 3164W        W22698  12.280  15.909   4.249  0.3561 -0.1159 -0.3535
 3165W        W22699   2.512  11.458  14.438  0.2443  0.2550  0.3456
 3166W        W22700   6.236   7.197   3.850 -0.1441  0.2074  0.0632
 3167W        W22701   7.244  10.908   2.030 -0.2697  0.1603  0.0910
 3168W        W22702  15.085  12.667  11.882 -0.1595  0.2697 -0.0005
 3169W        W22703  12.409   3.615   2.074  0.0220 -0.1454 -0.5314
 3170W        W22704   3.993  14.471   3.252 -0.0372  0.1363  0.0318
 3171W        W22705  18.781  12.326  14.052 -0.0487  0.1913 -0.0940
 3172W        W22706   6.314   9.582  10.553  0.1254  0.0000  0.0382
 3173W        W22707  13.839  18.140  12.000  0.3172 -0.1052 -0.1679
 3174W        W22708   7.619   1.187  14.386 -0.0974  0.5214  0.0280
 3175W        W22709  10.317  17.616   3.744 -0.2226  0.1444 -0.1165
 3176W        W22710  19.057   5.529  10.739  0.2303  0.1019  0.1999
 3177W        W22711   1.378  14.939  12.024  0.0811 -0.0629  0.1230
 3178W        W22712   0.652   9.198   9.863  0.0105  0.2972 -0.2976
 3179W        W22713   2.493  12.204   3.517  0.2026 -0.0830  0.0779
 3180W        W22714   3.769  13.726  13.930  0.0275  0.1757 -0.1107
 3181W        W22715  13.878  12.258  14.510 -0.3326 -0.1635 -0.2154
 3182W        W22716   4.260   3.124  11.665  0.0622 -0.1344 -0.1958
 3183W        W22717   8.578  13.426  11.202  0.0719 -0.3571  0.0730
 3184W        W22718   1.508   3.336   3.712 -0.1879  0.0343 -0.4680
 3185W        W22719   2.845  18.462  11.513  0.2341  0.1774  0.2356
 3186W        W22720  14.882   2.026  14.248  0.0177  0.1574  0.1030
 3187W        W22721   4.543   4.624  14.230 -0.0718 -0.2216  0.1147
 3188W        W22722  17.183   9.259   3.881  0.0625  0.0891  0.4419
 3189W        W22723  17.761   0.045   2.826  0.2306  0.1535  0.2263
 3190W        W22724  10.110   4.349  14.678  0.1934  0.0839  0.0216
 3191W        W22725  11.459   5.644  10.911 -0.0594  0.1359  0.1773
 3192W        W22726  15.070  17.518   2.511  0.3665 -0.1668 -0.1305
 3193W        W22727  18.731  17.917  14.135 -0.0737 -0.1659 -0.0389
 3194W        W22728  12.793  16.593  14.446  0.2029  0.2306  0.2330
 3195W        W22729  16.132  16.414  10.698 -0.0153 -0.1594  0.0918
 3196W        W22730   4.304   8.966  11.494  0.1697  0.1440  0.0318
 3197W        W22731  11.919   3.613  12.778 -0.0343  0.2792  0.2892
 3198W        W22732   9.539  10.823  14.048  0.2989 -0.2198 -0.1450
 3199W        W22733  13.999  13.725  12.520  0.0245  0.1460  0.3693
 3200W        W22734   1.860  16.616   0.181 -0.1595  0.3025  0.0522
 3201W        W22735   9.662  11.253   3.403 -0.3109 -0.1343 -0.0481
 3202W        W22736   5.847   3.052  10.046  0.1285  0.4417  0.0662
 3203W        W22737  18.995   5.170   3.022  0.4614  0.1528 -0.0472
 3204W        W22738  14.198   7.013   1.183 -0.0598  0.1438  0.0728
 3205W        W22739  10.575  12.070  11.527 -0.1813 -0.1657 -0.2589
 3206W        W22740   2.870   0.138  11.903  0.2023  0.4579 -0.0059
 3207W        W22741   0.494   2.709   2.721  0.0561 -0.0459  0.2528
 3208W        W22742   4.986   7.561  12.309  0.0563  0.1119  0.1212
 3209W        W22743  14.352   3.652  11.238  0.1460  0.0518  0.1180
 3210W        W22744  16.806  13.592   2.703  0.0122  0.0124  0.0254
 3211W        W22745   8.602  14.055   0.795 -0.1085 -0.1066 -0.0633
 3212W        W22746   0.166  16.052  11.072  0.0186 -0.0210 -0.2016
 3213W        W22747   6.818   5.347  13.867 -0.1500 -0.1564 -0.1930
 3214W        W22748   5.013   3.139  11.889 -0.0469  0.0887 -0.1938
 3215W        W22749  10.594   2.875  13.994  0.0204  0.0622 -0.0267
 3216W        W22750  10.239  16.323   3.087  0.0500 -0.0259  0.1144
 3217W        W22751   5.896  10.590  11.888  0.0754 -0.0249 -0.4013
 3218W        W22752  17.346  11.028   3.814 -0.3582  0.3064  0.2482
 3219W        W22753  14.805  13.802  13.421  0.2810  0.0531  0.0777
 3220W        W22754   5.816   7.202   0.030  0.1237  0.1524 -0.0538
 3221W        W22755   2.926  12.207  14.347 -0.1177 -0.2983  0.2490
 3222W        W22756  13.799  15.299  12.678 -0.0694 -0.1805 -0.2132
 3223W        W22757   1.975   3.178  13.274  0.0447  0.0543  0.0499
 3224W        W22758   3.817  17.624   2.103 -0.0926  0.0560 -0.2510
 3225W        W22759   1.455   2.214  11.960 -0.3556  0.0578 -0.2350
 3226W        W22760  18.651  19.046   0.909  0.0348  0.0378  0.3268
 3227W        W22761  11.732   2.339  13.525 -0.0632 -0.0360 -0.2082
 3228W        W22762  13.384   4.656   3.912  0.2172 -0.2665 -0.0143
 3229W        W22763  15.902   4.443   2.240  0.0910 -0.1371  0.0229
 3230W        W22764   6.221   7.161   0.904 -0.0145  0.1039 -0.3344
 3231W        W22765  13.402  12.255   2.564  0.1801  0.0337 -0.3043
 3232W        W22766   5.750   3.620  12.289  0.2616 -0.0505  0.1725
 3233W        W22767   8.386   4.932  14.727 -0.0292 -0.1765  0.2781
 3234W        W22768  13.193   0.987  11.182  0.0328 -0.3586 -0.0379
 3235W        W22769  12.555   9.045   4.027 -0.2507  0.0047  0.1548
 3236W        W22770   2.129   0.386   3.485  0.1167 -0.1867  0.0186
 3237W        W22771  15.644   3.861   1.279 -0.0374  0.1103  0.0191
 3238W        W22772   4.550  17.243  13.331 -0.0985  0.0292  0.3787
 3239W        W22773  18.368  12.461   0.317  0.0191  0.1771  0.0596
 3240W        W22774   2.853   9.912  14.791 -0.0563 -0.0577 -0.0063
 3241W        W22775  14.285   3.123   2.953 -0.1741 -0.3303  0.0715
 3242W        W22776   9.105  15.343  14.652  0.0865  0.3594  0.0087
 3243W        W22777  14.310  14.964   2.574  0.0126 -0.3531 -0.1406
 3244W        W22778   7.433   7.555   0.398  0.1151  0.0332 -0.0996
 3245W        W22779   2.026  18.819  11.784 -0.0079 -0.2397  0.2472
 3246W        W22780  15.318   0.686   3.603  0.1016 -0.0205  0.2354
 3247W        W22781  16.543   7.043   0.388 -0.2662  0.2172  0.1719
 3248W        W22782   1.671  15.597  11.513 -0.3145  0.0658  0.0973
 3249W        W22783   7.033   5.178   2.964  0.1534 -0.1146 -0.0010
 3250W        W22784   4.516  16.874  11.409 -0.0730  0.0013  0.0197
 3251W        W22785  17.811  10.753  13.693  0.1643  0.0289 -0.5348
 3252W        W22786   0.547  17.034  11.717  0.2742  0.0716  0.2653
 3253W        W22787  16.662  14.809  13.060 -0.1372 -0.0862  0.1056
 3254W        W22788   5.153   3.025  14.713  0.0961  0.0197 -0.0443
 3255W        W22789   9.329   0.645  13.386 -0.1055 -0.3251  0.0700
 3256W        W22790  11.159   2.495  12.967  0.0635 -0.1345  0.0807
 3257W        W22791  13.351   6.305   0.764 -0.1707  0.0398 -0.1565
 3258W        W22792   7.967  10.818   0.064  0.1090  0.0438  0.1008
 3259W        W22793  10.407   4.329   2.432  0.3729  0.2277  0.1019
 3260W        W22794   0.288   7.971  12.192  0.2198 -0.1848 -0.1862
 3261W        W22795   4.929   7.282  11.296 -0.0072 -0.0884  0.0150
 3262W        W22796  12.237  14.509   1.530 -0.0515 -0.3517 -0.2261
 3263W        W22797   6.295   5.442   0.508  0.3110  0.0536  0.0915
 3264W        W22798  16.982   5.159  12.585 -0.0733  0.0796  0.0653
 3265W        W22799   8.387   1.909   2.351 -0.0738  0.2150  0.1546
 3266W        W22800  17.164  18.811   1.914 -0.1513  0.1796  0.3465
 3267W        W22801  15.463  10.107  10.208  0.2378 -0.2070 -0.0007
 3268W        W22802  10.305  13.728  14.055 -0.0338  0.1845 -0.0261
 3269W        W22803   8.564  18.895  14.811  0.0938  0.0104 -0.1988
 3270W        W22804   4.835   3.634  11.301 -0.0553 -0.0855  0.0307
 3271W        W22805  15.330   7.025   1.516  0.2801 -0.0981 -0.1220
 3272W        W22806  15.139  16.004  12.602  0.0466  0.2160 -0.3017
 3273W        W22807   0.737  10.854   1.912 -0.0256 -0.2338 -0.2968
 3274W        W22808   4.768  16.643   4.092 -0.2132  0.2063  0.1317
 3275W        W22809   5.508  15.652   1.245 -0.0967 -0.1650  0.1410
 3276W        W22810  15.211  17.130   4.165 -0.1457 -0.2738 -0.4229
 3277W        W22811  12.096   7.598   2.168  0.2555  0.4170 -0.0518
 3278W        W22812  16.090  14.226   1.531  0.0872 -0.0421 -0.0788
 3279W        W22813  15.416   1.629  11.323  0.0033 -0.0609 -0.0186
 3280W        W22814   5.806  11.459   3.560  0.0271  0.1986  0.0228
 3281W        W22815  16.608   0.933   1.309  0.0045 -0.1265 -0.0079
 3282W        W22816   0.842   5.306  11.313  0.3667 -0.2155 -0.1768
 3283W        W22817  15.396  19.101  10.603  0.2320 -0.0285  0.1009
 3284W        W22818  14.952  17.876   3.793 -0.0368 -0.0301 -0.1540
 3285W        W22819  15.871  18.978  10.360  0.0003  0.1063  0.0057
 3286W        W22820   7.950  12.690   3.227  0.0633  0.0613 -0.1126
 3287W        W22821  12.366   3.139  12.564 -0.1192 -0.1832 -0.1590
 3288W        W22822   3.499  10.434   1.456 -0.2000 -0.2201  0.0575
 3289W        W22823   6.001   2.529   1.632 -0.0022 -0.1925  0.3742
 3290W        W22824  12.357   7.309  14.724  0.0093  0.0176 -0.0729
 3291W        W22825  13.842   9.903   4.089  0.0246 -0.2919  0.2648
 3292W        W22826   5.636   9.253  10.646 -0.0056 -0.3137  0.1712
 3293W        W22827   3.764  13.599   3.488 -0.0925  0.2758 -0.1092
 3294W        W22828  17.728  11.595  12.499 -0.0548  0.1643 -0.0199
 3295W        W22829   1.600  16.592  12.710  0.2513 -0.1091  0.2462
 3296W        W22830  18.748  19.069  10.372  0.0963  0.1183 -0.0529
 3297W        W22831  17.433   2.759  14.666  0.0102  0.1957  0.0262
 3298W        W22832   3.353  14.975  14.504  0.1622 -0.0932  0.1092
 3299W        W22833   6.387   1.139  14.395  0.0928  0.0016 -0.2212
 3300W        W22834  10.345  16.889  12.560 -0.2106 -0.0212 -0.2473
 3301W        W22835  10.620   6.822   0.227 -0.1243  0.1209 -0.0289
 3302W        W22836   6.865  13.147  14.273  0.1456 -0.1360  0.0191
 3303W        W22837  18.887   7.642  14.822  0.1439  0.0196  0.0065
 3304W        W22838   9.137   7.979   1.581 -0.2072 -0.1445 -0.1584
 3305W        W22839  13.098  18.008   1.483  0.0190  0.2981 -0.1386
 3306W        W22840   1.161  11.492  12.103 -0.2582 -0.0046  0.0856
 3307W        W22841  16.968  17.953  13.460 -0.1969  0.0042  0.1488
 3308W        W22842  15.348  17.804  10.849  0.1816  0.1673  0.1263
 3309W        W22843   7.088  18.976  10.532 -0.0433 -0.0960  0.0589
 3310W        W22844   2.290  13.394   9.831  0.1014 -0.2084 -0.1485
 3311W        W22845  18.761  11.989   0.899 -0.1769 -0.1873 -0.1537
 3312W        W22846  17.957   9.016   1.088 -0.2505  0.1918  0.1837
 3313W        W22847  14.527   7.232   0.839  0.2639 -0.1656 -0.3252
 3314W        W22848  17.829  14.788  11.245 -0.0818 -0.3602  0.3626
 3315W        W22849   0.774   0.722  13.385  0.1270 -0.0867 -0.0991
 3316W        W22850  12.553   0.961   2.491 -0.0958  0.1706 -0.2661
 3317W        W22851  11.989   7.493   2.750  0.0473 -0.0800 -0.0758
 3318W        W22852   9.704   6.072  12.229 -0.2689 -0.3645 -0.2556
 3319W        W22853  14.847   0.182  12.501  0.1752  0.0264 -0.0566
 3320W        W22854   8.130   0.463  13.872 -0.0150  0.2675 -0.2711
 3321W        W22855  16.776   7.486  11.639  0.0597  0.1883  0.0728
 3322W        W22856  15.286   8.935   0.421  0.2538  0.2486  0.1179
 3323W        W22857   2.793  16.758   9.784 -0.1079  0.1651  0.2738
 3324W        W22858  13.403   4.592  12.464  0.3375  0.1594  0.1007
 3325W        W22859   5.379   4.861   0.235 -0.5614 -0.1878  0.0382
 3326W        W22860   1.695   0.463   1.683  0.2919  0.1361  0.2215
 3327W        W22861  13.297  15.816   1.464 -0.1525 -0.0606  0.0842
 3328W        W22862  16.706   7.124   3.821 -0.1641  0.2010 -0.3085
 3329W        W22863  18.943  15.374  11.767 -0.0964  0.0145  0.2494
 3330W        W22864   6.485   5.992  13.816 -0.1991  0.1330  0.3263
 3331W        W22865   1.761  12.990   3.071 -0.0320  0.1364 -0.2526
 3332W        W22866   6.423   9.147   3.949  0.0269  0.1224  0.1664
 3333W        W22867  16.727   7.173  14.748  0.0766  0.0848  0.2041
 3334W        W22868  18.780  16.753  11.451  0.6002  0.0285 -0.1772
 3335W        W22869  17.795   7.020  13.138 -0.4802  0.0435 -0.0055
 3336W        W22870  13.603  18.368   3.953 -0.2633 -0.1103  0.1804
 3337W        W22871  15.443   0.022   3.735  0.1626 -0.2826  0.2129
 3338W        W22872  15.762  12.672  14.158  0.2813 -0.1039 -0.2593
 3339W        W22873  13.824   2.328   3.023  0.2987  0.2471  0.0192
 3340W        W22874   9.107  17.257   0.828  0.1700 -0.0473 -0.0801
 3341W        W22875  14.709  14.040   1.871  0.2104  0.0001  0.0429
 3342W        W22876  14.245   7.459  12.117  0.2291  0.0074 -0.2294
 3343W        W22877  14.454  16.484  11.999 -0.0051  0.0473 -0.1135
 3344W        W22878  17.707  14.890  13.105 -0.0566 -0.3162 -0.1677
 3345W        W22879  17.538  17.046  12.044  0.2073  0.0256 -0.1890
 3346W        W22880  14.753   1.214   0.296  0.0769  0.3413 -0.4106
 3347W        W22881   6.077   2.862   3.640  0.0028 -0.3818  0.0439
 3348W        W22882   6.653   9.111   0.319  0.0076 -0.0905  0.1952
 3349W        W22883   8.184  13.410  13.867 -0.0735  0.1214  0.0809
 3350W        W22884  12.083   8.813   3.355 -0.0170 -0.2372  0.1164
 3351W        W22885   2.645   5.011   2.688 -0.2439 -0.0261 -0.1861
 3352W        W22886   2.037   6.051  11.615  0.4058 -0.2362  0.1131
 3353W        W22887  10.391  13.021  14.517 -0.0892 -0.1123  0.0153
 3354W        W22888   8.765  13.877  11.015  0.0924 -0.1665 -0.1465
 3355W        W22889  16.885   5.995   3.111  0.0541  0.2922 -0.0004
 3356W        W22890   0.987  16.894  14.366 -0.5279 -0.1179 -0.1374
 3357W        W22891  16.869   1.746   2.132  0.1479  0.4836 -0.1575
 3358W        W22892   0.369  14.136  14.017 -0.3349 -0.0024 -0.2717
 3359W        W22893   6.023   9.783  12.929 -0.1127 -0.1384 -0.1354
 3360W        W22894   3.616   7.274   4.086 -0.0882 -0.0899  0.1353
 3361W        W22895  11.600  15.438   1.582 -0.0736 -0.0295 -0.0398
 3362W        W22896  17.820   4.879  13.185  0.0525 -0.0237  0.0044
 3363W        W22897  12.390   7.536   1.108  0.0477  0.2946  0.1047
 3364W        W22898   9.254  13.561   1.487 -0.0522  0.0329  0.1494
 3365W        W22899  15.322  12.183  12.729  0.1546 -0.1302  0.0095
 3366W        W22900   3.134   4.651   4.768  0.0497  0.2617  0.0406
 3367W        W22901   9.392   9.872   2.859  0.1571  0.0360 -0.2766
 3368W        W22902  14.225   0.850  12.129  0.1277  0.0369  0.0136
 3369W        W22903   3.396   5.470   2.087 -0.4399  0.1560 -0.0074
 3370W        W22904  17.026   4.442  12.701 -0.1594 -0.3087  0.2723
 3371W        W22905   9.987   5.474  12.797 -0.3108 -0.0703  0.1342
 3372W        W22906   9.847  18.411  12.490 -0.0338 -0.2630 -0.3655
 3373W        W22907   6.638  14.523  13.944 -0.1525 -0.2511  0.0582
 3374W        W22908   7.246  11.069   1.463 -0.3294  0.1050  0.1264
 3375W        W22909   1.815   8.146  14.427 -0.0763 -0.1341  0.0785
 3376W        W22910  14.352   9.831  10.838 -0.1790  0.3281 -0.1295
 3377W        W22911  11.376   2.856   0.030  0.1338 -0.0440  0.1944
 3378W        W22912  16.059  15.714   0.373 -0.1756  0.0507 -0.1222
 3379W        W22913  10.016   3.148   1.885  0.1350  0.2934 -0.0206
 3380W        W22914  14.101   9.053   5.554  0.0813  0.3768 -0.1566
 3381W        W22915   1.530  14.629   1.869  0.0476  0.2131 -0.0773
 3382W        W22916  11.272  15.746  12.026 -0.1582 -0.1954  0.0387
 3383W        W22917  16.828  18.874   2.417 -0.0935 -0.2827 -0.0100
 3384W        W22918  10.046   6.758  14.582 -0.0593 -0.2194 -0.0948
 3385W        W22919   9.616   5.544  12.425  0.2533 -0.4645 -0.1496
 3386W        W22920   7.115   4.882  14.208 -0.5017  0.0545  0.0587
 3387W        W22921  17.500  14.977  12.618  0.0830  0.0268  0.2069
 3388W        W22922  13.707   9.052  10.536 -0.0575  0.1816 -0.0417
 3389W        W22923   6.238  12.127  12.792  0.0918  0.1466  0.0726
 3390W        W22924  18.662  12.281   1.716 -0.0053  0.0858 -0.0722
 3391W        W22925  14.112   9.562   0.516 -0.1605  0.1132  0.1491
 3392W        W22926   8.953  10.722  11.542 -0.1484 -0.0478  0.1045
 3393W        W22927  19.063   4.624  10.347 -0.0527 -0.0145  0.2437
 3394W        W22928   8.433  10.417  12.737  0.0723  0.0279  0.0316
 3395W        W22929   8.907  17.509   3.661  0.0117  0.0232 -0.0957
 3396W        W22930  15.484   3.629  13.476 -0.2395  0.0051  0.2512
 3397W        W22931  18.569   3.113  12.956 -0.0676  0.1082  0.0252
 3398W        W22932   6.695  14.242  12.946  0.3606 -0.0798 -0.3765
 3399W        W22933  18.431  13.416   5.131 -0.0295 -0.2074 -0.0590
 3400W        W22934  13.384   1.386   3.552  0.3404 -0.0094  0.0359
 3401W        W22935  12.990   3.702   1.035  0.1837 -0.1499 -0.2301
 3402W        W22936   1.760   9.879   2.217 -0.0125 -0.3925 -0.0332
 3403W        W22937  15.952  16.591  14.652  0.0065  0.2987  0.2183
 3404W        W22938  12.530   2.433   3.561  0.0685 -0.0907 -0.1883
 3405W        W22939  17.312   6.682  13.827 -0.1114  0.3826  0.1603
 3406W        W22940  16.886  15.650  11.340 -0.0717  0.0563  0.3709
 3407W        W22941   2.650  10.822  13.190  0.2445 -0.2622 -0.3444
 3408W        W22942  11.537  15.359  13.617 -0.0535  0.0286 -0.0031
 3409W        W22943   9.118  13.677   1.971 -0.1417 -0.0503  0.2206
 3410W        W22944   5.184   4.408   3.533 -0.1724  0.0346  0.2392
 3411W        W22945   3.637   2.044   4.989  0.1120  0.2132  0.0977
 3412W        W22946   8.747  17.817  14.825 -0.0945 -0.1364 -0.3431
 3413W        W22947   1.481  13.301  14.810 -0.5594 -0.0060  0.2110
 3414W        W22948  18.337  11.216  11.323 -0.1487  0.1159  0.0235
 3415W        W22949  18.753  16.035  12.954  0.0687 -0.2438 -0.0524
 3416W        W22950  11.714   6.035   0.596  0.0686 -0.1948 -0.0057
 3417W        W22951   5.443  17.990   2.859  0.1845  0.0365 -0.5265
 3418W        W22952  14.097  12.036   3.282  0.1238  0.5685 -0.3617
 3419W        W22953  17.189  18.435  14.827 -0.2216 -0.0504  0.0982
 3420W        W22954  14.063  10.014   0.755  0.3296 -0.4247 -0.1938
 3421W        W22955   7.005  13.292  11.539  0.0354  0.1684  0.0511
 3422W        W22956   8.414  18.295   2.764 -0.0333  0.3288  0.1085
 3423W        W22957  10.784   1.704   4.472  0.0911 -0.0730 -0.2494
 3424W        W22958   7.645   7.330  12.347  0.1735 -0.0101 -0.1797
 3425W        W22959   5.003   8.033   3.321 -0.0398 -0.0132  0.1561
 3426W        W22960  14.562   5.700   1.903  0.3212 -0.0876  0.0070
 3427W        W22961   5.193   4.143  14.626 -0.3565 -0.1283 -0.3557
 3428W        W22962   7.250   1.794   3.051  0.2158 -0.2657 -0.0564
 3429W        W22963   1.961   3.957  10.449  0.1933  0.0474  0.2747
 3430W        W22964  14.469   9.045  10.783 -0.1456 -0.2406  0.2164
 3431W        W22965  11.183   6.179  13.669 -0.2578  0.2988  0.1355
 3432W        W22966   0.403  13.413  11.115  0.0909 -0.0041 -0.0496
 3433W        W22967   8.744   8.866  13.330  0.0438  0.0258  0.2493
 3434W        W22968   4.624   7.964  12.194 -0.1582  0.1033 -0.0646
 3435W        W22969   9.987  17.573  12.406 -0.1824  0.1468  0.2688
 3436W        W22970   7.761   8.813   2.886  0.0192 -0.1802 -0.1659
 3437W        W22971  13.680  16.952   3.365 -0.1702  0.2742  0.1154
 3438W        W22972  18.721   1.404  12.351 -0.1216 -0.1938 -0.0100
 3439W        W22973   2.993  15.669  11.957 -0.3377  0.1705  0.1198
 3440W        W22974  18.482   2.728  12.454  0.1715 -0.0271  0.2962
 3441W        W22975  10.396  14.763  12.800  0.1900  0.1825 -0.2611
 3442W        W22976  12.343  14.723   3.806  0.0954 -0.2022  0.3087
 3443W        W22977  16.695  12.130   2.901 -0.1072 -0.1922 -0.2467
 3444W        W22978  12.410   1.213   4.098  0.1349 -0.3109  0.2196
 3445W        W22979  10.330   1.254  13.325  0.0979  0.3937  0.2494
 3446W        W22980  17.224   0.419   1.170  0.0438 -0.2207  0.1977
 3447W        W22981   7.085   9.524   5.624  0.2952  0.1737  0.1518
 3448W        W22982   4.076  18.891   1.719  0.4245  0.1893  0.4641
 3449W        W22983  11.297   3.501  10.860 -0.1393  0.5897  0.0267
 3450W        W22984  17.403  12.597   1.704  0.3009 -0.0880  0.2839
 3451W        W22985   8.368   7.474  11.197 -0.2945  0.0479 -0.0625
 3452W        W22986  18.880   5.675   2.261 -0.0155  0.1003 -0.0354
 3453W        W22987   2.937  18.433   4.472 -0.0770  0.1424  0.0042
 3454W        W22988  14.309  12.144  12.819  0.0310 -0.2152  0.0880
 3455W        W22989   4.448  13.283   0.939 -0.1451  0.1181 -0.1467
 3456W        W22990  12.267   4.301   4.587 -0.0613 -0.2584 -0.1810
 3457W        W22991   6.170  10.587   2.225 -0.0435 -0.3400 -0.1131
 3458W        W22992   6.493   5.052   1.022  0.0727  0.1601 -0.3064
 3459W        W22993  13.240  14.095   1.369  0.0927  0.3061  0.2046
 3460W        W22994  12.339   0.907   1.836 -0.0695 -0.2238 -0.0076
 3461W        W22995  15.255   6.813  13.946 -0.2267 -0.4751 -0.1083
 3462W        W22996   4.153   4.571  11.931  0.0249 -0.0173  0.0375
 3463W        W22997  14.361  14.553  12.465  0.2904 -0.0304  0.2229
 3464W        W22998  10.723  17.648   3.014  0.0962  0.0013 -0.0804
 3465W        W22999  14.129   6.285   0.395  0.2033  0.0360  0.0965
 3466W        W23000   2.235  17.591  11.968 -0.2317 -0.0538 -0.4655
 3467W        W23001  14.271  15.305  11.100 -0.0537  0.1524 -0.3519
 3468W        W23002   3.306  14.329   4.030  0.0413 -0.1905 -0.1551
 3469W        W23003   1.936   4.107   2.347 -0.0307 -0.0480 -0.1293
 3470W        W23004  16.742  18.500  12.310  0.0220  0.1342  0.0560
 3471W        W23005   6.865   0.758   4.983 -0.0619 -0.2886 -0.3231
 3472W        W23006  10.242  13.710  11.064  0.0509 -0.1546  0.0729
 3473W        W23007  15.340  11.892   4.914 -0.1562  0.1115 -0.0448
 3474W        W23008  16.945   1.232  12.929  0.2359 -0.0053 -0.2021
 3475W        W23009   0.175   6.259   0.816  0.2419 -0.1519  0.2382
 3476W        W23010  12.682  12.296   0.847  0.1388 -0.1124 -0.0134
 3477W        W23011   9.169   2.933   2.257 -0.0754 -0.1175  0.2092
 3478W        W23012  12.523  13.063   3.072 -0.0878 -0.2381 -0.1276
 3479W        W23013   9.346  13.397   2.328 -0.3076  0.0993 -0.2939
 3480W        W23014  10.951  16.254  12.260 -0.1438  0.0475  0.0287
 3481W        W23015   3.826  16.466   0.630  0.0178  0.0734  0.1432
 3482W        W23016   4.437   6.356  14.240  0.2778  0.1248 -0.0046
 3483W        W23017   4.313   5.562   3.707  0.0285 -0.2332  0.0631
 3484W        W23018  14.495   2.862  14.618  0.2593 -0.1922  0.0391
 3485W        W23019   5.308   9.304   3.124 -0.0857 -0.3679  0.0214
 3486W        W23020   3.418  12.467  14.434 -0.0498 -0.2668  0.2300
 3487W        W23021  17.210  13.344  10.732 -0.1954  0.1873 -0.1691
 3488W        W23022  15.593  12.446  13.705  0.3828 -0.0012  0.0493
 3489W        W23023   7.044   6.360   1.057  0.0029 -0.2195 -0.0662
 3490W        W23024   6.000  16.604   2.826 -0.1486 -0.0887 -0.0201
 3491W        W23025   9.005   8.225  14.506  0.0736  0.2076  0.0984
 3492W        W23026  16.578   8.301   1.015  0.3522  0.1010  0.0158
 3493W        W23027  13.819   9.214   0.339  0.0810 -0.3421  0.1024
 3494W        W23028   9.488  18.435   2.676 -0.0841 -0.1050 -0.2473
 3495W        W23029   2.164  10.940  12.306  0.0199 -0.1252  0.1186
 3496W        W23030  17.221   9.129  13.669  0.0213 -0.1902  0.2828
 3497W        W23031  13.270   4.391  14.160  0.0927  0.2843  0.1274
 3498W        W23032   8.593   4.760   1.176  0.0350 -0.0013  0.0413
 3499W        W23033  18.358   2.345  13.686 -0.1145 -0.0204 -0.4946
 3500W        W23034  14.627  14.125  11.109  0.1259 -0.1924  0.2501
 3501W        W23035   1.024   9.194  11.127 -0.1187 -0.0379  0.1497
 3502W        W23036  10.972  18.201   3.624  0.0987 -0.2560 -0.0503
 3503W        W23037   7.855  10.203   2.363  0.2233 -0.5515 -0.0697
 3504W        W23038  17.768   6.969   3.006 -0.0125 -0.2311 -0.0376
 3505W        W23039   3.130   7.354  12.665  0.1912  0.2618 -0.1263
 3506W        W23040  14.392  15.421   2.136 -0.3669  0.1327  0.0145
 3507W        W23041   4.114   3.618  10.595  0.1669 -0.0204  0.0684
 3508W        W23042  17.648   6.644   1.985  0.0789  0.3230 -0.1192
 3509W        W23043  14.607   2.925  12.414 -0.3750  0.0185 -0.0528
 3510W        W23044  10.851  13.730  14.024 -0.2215  0.0729 -0.2923
 3511W        W23045   3.842   5.332   3.691 -0.2900 -0.0490 -0.0256
 3512W        W23046  16.903   4.384  11.078  0.2505  0.1150 -0.0773
 3513W        W23047   5.299  14.581  13.468 -0.2195 -0.2380  0.1174
 3514W        W23048  15.969  14.692   0.879 -0.2397 -0.1296  0.2461
 3515W        W23049  17.226  11.275   1.672  0.2187  0.0769  0.1282
 3516W        W23050  10.373  17.359  13.233  0.2533  0.1716 -0.1189
 3517W        W23051   4.232  12.389  12.816 -0.0599 -0.0809 -0.0556
 3518W        W23052   6.057  10.003  13.397 -0.0598  0.0064 -0.2818
 3519W        W23053  16.167  11.214  13.739 -0.1878 -0.0934  0.1754
 3520W        W23054  18.830   3.393  10.447 -0.1712 -0.0085 -0.0473
 3521W        W23055  10.196  15.796   2.849 -0.0132 -0.1742 -0.0532
 3522W        W23056  12.117   2.619   1.254  0.1595  0.1122  0.1766
 3523W        W23057   4.535  17.570  13.725  0.2601 -0.6443 -0.0673
 3524W        W23058  12.832   4.279   4.494  0.0621 -0.0937  0.0228
 3525W        W23059  12.771   8.783  14.597  0.2443  0.3695 -0.4290
 3526W        W23060  13.581  11.292   3.626 -0.0203  0.0527 -0.5908
 3527W        W23061   9.535  11.308   4.689 -0.2260 -0.0232 -0.0792
 3528W        W23062  16.310  18.877   2.242  0.1703  0.0583 -0.3114
 3529W        W23063   6.751   7.231   4.046  0.1915 -0.0184  0.3113
 3530W        W23064   1.738   7.167  14.387  0.1029 -0.0545 -0.1157
 3531W        W23065   8.954  11.973   4.825 -0.2733 -0.4397  0.1049
 3532W        W23066   4.320   2.076   3.952  0.2678  0.3455  0.3366
 3533W        W23067   6.182  10.002   1.186 -0.3214  0.0606  0.0504
 3534W        W23068  11.048   5.686   1.140  0.2586 -0.2135  0.1150
 3535W        W23069   4.535  11.823   4.535 -0.2424  0.0334  0.0626
 3536W        W23070   7.532   5.874   2.876 -0.3030 -0.0881 -0.0446
 3537W        W23071  14.789  13.896   2.838  0.0223 -0.0852  0.4745
 3538W        W23072   6.756  11.935  12.430  0.0037 -0.1281 -0.3040
 3539W        W23073   1.082   9.302   3.230  0.0301  0.0196  0.0943
 3540W        W23074  10.895   6.970   4.038  0.3684  0.0767 -0.0681
 3541W        W23075   0.285   3.604   2.324 -0.1745  0.1514  0.0114
 3542W        W23076  13.123   5.489  12.960  0.5263 -0.0405 -0.0996
 3543W        W23077  15.125  16.663   2.111 -0.2452  0.0020 -0.1036
 3544W        W23078  10.127   8.920   5.309 -0.0395 -0.0864 -0.1953
 3545W        W23079   4.717   1.942   3.686 -0.2825 -0.1057 -0.0498
 3546W        W23080   9.583  13.350  12.858  0.3062 -0.0334  0.3146
 3547W        W23081   7.222   6.901   2.368  0.0483  0.0480  0.3085
 3548W        W23082  15.121   8.250  12.984  0.0574  0.1288 -0.3150
 3549W        W23083  15.237   8.815   2.710  0.3211  0.2142  0.0207
 3550W        W23084  11.478  16.317  13.275  0.2390 -0.1152 -0.2529
 3551W        W23085  10.986  15.095  10.189  0.1542  0.0535  0.3532
 3552W        W23086   8.344   6.802   3.283 -0.0873 -0.0270 -0.1673
 3553W        W23087   8.763   9.791   1.755  0.2684  0.1649  0.1582
 3554W        W23088  10.291   7.885   1.939 -0.3931 -0.2318 -0.0635
 3555W        W23089  16.236   1.137   3.926 -0.1493 -0.0372  0.1557
 3556W        W23090  15.636  11.655  12.664  0.0644 -0.0742 -0.0086
 3557W        W23091  11.156  15.513  14.000 -0.0704 -0.1924  0.1220
 3558W        W23092   9.103  17.140   2.563 -0.1525 -0.2811  0.0544
 3559W        W23093   3.734  11.844   3.237 -0.1867  0.4036 -0.1585
 3560W        W23094  18.706   5.291   0.045  0.1343  0.0386 -0.0628
 3561W        W23095   0.127  13.400  12.425  0.2615  0.2523 -0.1971
 3562W        W23096   2.002   9.844   3.866 -0.1923  0.1063  0.0115
 3563W        W23097  13.023  16.466  11.470 -0.0693 -0.0400 -0.2427
 3564W        W23098  14.450  17.731   3.836 -0.1360  0.4717  0.0412
 3565W        W23099  16.210   5.228  13.037  0.1213 -0.1931 -0.1576
 3566W        W23100   9.640  14.730  11.681  0.2021  0.0381 -0.1915
 3567W        W23101  10.648  15.418  14.027 -0.3242  0.7251 -0.1258
 3568W        W23102   9.335  13.839  12.821  0.0992  0.2968 -0.2030
 3569W        W23103  12.178   2.772   3.688 -0.1082  0.1371 -0.6071
 3570W        W23104   7.044  15.365  12.028 -0.2360  0.0118  0.0822
 3571W        W23105  12.455  10.440   2.923  0.3696 -0.0854 -0.0321
 3572W        W23106  13.649   8.324  12.862 -0.3003  0.0578  0.0182
 3573W        W23107  15.274   8.217   2.299  0.1812 -0.0343 -0.2535
 3574W        W23108   9.321  15.190  12.718  0.1261 -0.2027  0.1346
 3575W        W23109   1.747   5.293   3.858  0.0650  0.2607 -0.2981
 3576W        W23110  15.757   3.743   0.772 -0.0296 -0.1093  0.2869
 3577W        W23111   3.270   4.220   9.511  0.0689  0.1735 -0.2317
 3578W        W23112   8.954  12.734   1.212  0.0093 -0.0432 -0.2104
 3579W        W23113  14.355  18.921   9.810  0.3284 -0.0165 -0.1574
 3580W        W23114  14.782   6.810  11.748 -0.0867  0.2741  0.3771
 3581W        W23115  13.180   4.212   3.091 -0.1337  0.1183 -0.1035
 3582W        W23116   6.055  17.202  14.141  0.0103 -0.0351 -0.2527
 3583W        W23117  16.778  10.958   0.853 -0.0297  0.2852 -0.2147
 3584W        W23118  11.546   7.611  14.307 -0.0696 -0.0761 -0.1693
 3585W        W23119  12.527  13.775  12.399  0.2800 -0.0795 -0.1554
 3586W        W23120  13.427   5.455   3.338 -0.1062  0.1258 -0.2583
 3587W        W23121  12.687  14.884  10.711 -0.1313 -0.0030  0.0596
 3588W        W23122  12.498   8.381   0.062  0.2613  0.1574  0.2294
 3589W        W23123  13.159  12.282   1.183  0.2242 -0.1727  0.1783
 3590W        W23124  18.945   9.420  12.421  0.0933  0.1498  0.0442
 3591W        W23125  14.230  12.810  13.528  0.2781  0.1638 -0.4397
 3592W        W23126   7.708   7.783   1.720 -0.1921  0.1431 -0.3157
 3593W        W23127  15.086  13.153  11.882  0.3789  0.1319  0.0871
 3594W        W23128   4.947   9.150   2.452  0.1687  0.0726  0.2045
 3595W        W23129   2.830  16.922  13.417 -0.2218 -0.4434 -0.0194
 3596W        W23130   2.331  14.717   4.102  0.2226 -0.0816 -0.2327
 3597W        W23131  13.122   7.243   4.792  0.0898  0.2606  0.4177
 3598W        W23132   5.181  11.546   2.125 -0.0785 -0.0132 -0.4554
 3599W        W23133   8.277   4.041   0.065  0.0889 -0.1156 -0.0386
 3600W        W23134  17.481   9.383  11.573  0.0779  0.0226 -0.1516
 3601W        W23135  10.343  15.239   0.029  0.0590 -0.2177  0.3177
 3602W        W23136   4.387   2.310   1.221  0.0541 -0.2938 -0.2706
 3603W        W23137   7.177  12.351  14.548  0.0661 -0.0519  0.2819
 3604W        W23138   7.289  10.145   2.952  0.0559  0.1832 -0.2111
 3605W        W23139   2.114   1.469   1.639 -0.1082  0.2225 -0.0242
 3606W        W23140  15.001   9.395  12.993 -0.4275 -0.0711 -0.0994
 3607W        W23141  10.022   5.901  11.378  0.0354 -0.0553  0.1541
 3608W        W23142   5.339   1.456   1.996 -0.0399 -0.2376  0.2160
 3609W        W23143   5.317   8.034   0.573 -0.0341 -0.0243 -0.0415
 3610W        W23144   8.874  15.905   0.955  0.1555  0.2667 -0.0313
 3611W        W23145   7.414  13.683  11.320 -0.2001  0.1754 -0.0801
 3612W        W23146   7.045   3.009   0.608 -0.1405 -0.0022  0.2946
 3613W        W23147   4.038   9.067   3.737  0.2240  0.0117 -0.2514
 3614W        W23148  10.974  18.991   4.947 -0.3856 -0.1287  0.0037
 3615W        W23149   4.177  16.017  14.554  0.0548  0.0131 -0.0735
 3616W        W23150   9.135  18.870  12.221 -0.0273 -0.0703  0.1282
 3617W        W23151  18.198  12.171   2.716  0.1215  0.1464  0.0402
 3618W        W23152  10.638  12.795   9.669 -0.1291 -0.0819 -0.2002
 3619W        W23153   3.416   5.574  13.018  0.1511 -0.0316  0.0051
 3620W        W23154   8.444   8.545  11.446  0.0847 -0.0882  0.1477
 3621W        W23155   2.917   3.563  11.344 -0.3192  0.0813  0.1957
 3622W        W23156  18.248   9.048   4.148 -0.2255  0.3146  0.1717
 3623W        W23157   0.075  14.366   5.537 -0.3107  0.1827 -0.3538
 3624W        W23158   5.794  10.451   0.018  0.1683  0.1898 -0.1669
 3625W        W23159   2.829   0.975   1.950 -0.2756  0.0292 -0.3031
 3626W        W23160   8.951   8.165   4.175 -0.1845 -0.1395 -0.1228
 3627W        W23161  14.659   4.303   4.209 -0.1178 -0.3854 -0.2272
 3628W        W23162   3.859   0.585   3.443  0.1422  0.0976  0.3975
 3629W        W23163  10.526  18.863  14.084  0.0275  0.0177  0.0097
 3630W        W23164  12.065  10.603  11.224 -0.0399 -0.0223 -0.1125
 3631W        W23165  15.584  10.031   1.987 -0.1815 -0.0903  0.0724
 3632W        W23166  16.138   3.917  10.295 -0.0674  0.1017 -0.0922
 3633W        W23167  13.693   5.984   1.305 -0.0235 -0.0378  0.3780
 3634W        W23168  13.874  15.543   3.562  0.3034  0.0361 -0.2214
 3635W        W23169  14.822  18.166   2.496 -0.1759  0.0402  0.1932
 3636W        W23170  13.469   1.219  12.550  0.1119 -0.0074 -0.2075
 3637W        W23171  18.533   0.707  13.283  0.0830  0.1695 -0.2061
 3638W        W23172  12.959   0.107   2.980  0.0016 -0.5098  0.0144
 3639W        W23173  14.179   7.774   3.273 -0.1231 -0.0661  0.1142
 3640W        W23174   1.218   1.546  12.772 -0.0452 -0.0410 -0.0851
 3641W        W23175   4.688  15.677   4.917  0.1777  0.1292 -0.0279
 3642W        W23176   0.598  11.024   3.669 -0.1094 -0.0046 -0.0527
 3643W        W23177   4.570  12.856   1.191  0.2183 -0.0527  0.1105
 3644W        W23178  11.201   2.867   4.055 -0.0684 -0.1881 -0.2208
 3645W        W23179  10.436  13.199   4.053 -0.1139 -0.0640  0.0006
 3646W        W23180  10.338   6.351  14.799  0.3832 -0.2734  0.0313
 3647W        W23181  15.785   1.216   0.195  0.0128 -0.1500  0.0600
 3648W        W23182   0.687  17.610   2.539  0.1461 -0.1083  0.2782
 3649W        W23183   1.061   8.433   3.965 -0.1177 -0.4576 -0.1026
 3650W        W23184   2.990  13.446   0.773  0.0687 -0.1876 -0.1579
 3651W        W23185  12.266  14.976  14.697 -0.4293  0.2314 -0.0558
 3652W        W23186  17.608  13.269  12.444 -0.1324 -0.1393 -0.1179
 3653W        W23187  11.778   7.258  14.032  0.1034 -0.0941 -0.2016
 3654W        W23188  12.338  16.237   4.659  0.1023  0.2195  0.1668
 3655W        W23189  11.733  10.270   4.268  0.3603  0.1702 -0.0462
 3656W        W23190   7.405   3.716   1.749  0.2534 -0.0415 -0.1535
 3657W        W23191  12.743  13.810   0.560  0.2340  0.1232  0.1009
 3658W        W23192  17.716   0.277  12.288 -0.1901 -0.1705 -0.0796
 3659W        W23193  15.567  10.141  14.465 -0.1045 -0.3441 -0.2835
 3660W        W23194  10.749   2.663  10.796 -0.2669 -0.0990 -0.0213
 3661W        W23195  13.321   9.399   3.752 -0.0558 -0.4308  0.2360
 3662W        W23196  12.422  11.670  12.714  0.0616  0.1792  0.0816
 3663W        W23197   1.197  10.685   4.201  0.0909  0.0589  0.1650
 3664W        W23198  11.218   5.892   0.594 -0.4437 -0.0689 -0.1766
 3665W        W23199  13.513  14.334   1.019 -0.0287 -0.1645 -0.1923
 3666W        W23200   5.628  17.275  13.878 -0.1347  0.1700  0.0172
 3667W        W23201   4.117  17.245   3.142 -0.1946 -0.1194  0.1649
 3668W        W23202  12.753  10.032   1.047  0.0802  0.0806 -0.1112
 3669W        W23203  15.152   5.482   0.463  0.0171  0.1052 -0.2208
 3670W        W23204  14.652   3.870   0.780  0.2052 -0.1755 -0.1464
 3671W        W23205  11.869   4.836  12.159  0.0287 -0.0543 -0.0237
 3672W        W23206   6.741   4.500   1.758  0.1071  0.2594  0.0230
 3673W        W23207  11.099   7.687   1.915 -0.0716  0.4406  0.2367
 3674W        W23208   4.933  17.395  14.502 -0.0807 -0.2454 -0.0323
 3675W        W23209   8.426  14.263  11.332 -0.1000 -0.1741  0.0260
 3676W        W23210   5.346  18.721   3.287 -0.1391  0.0276  0.1139
 3677W        W23211   4.942   3.117   2.784 -0.0040  0.3459  0.1019
 3678W        W23212  11.600   8.719  11.115  0.0500 -0.1044 -0.0726
 3679W        W23213   6.840   2.410  11.660 -0.4439  0.2856  0.0023
 3680W        W23214   6.784  18.962  12.150 -0.0329  0.2820  0.0116
 3681W        W23215   3.460   0.294   0.229  0.0087 -0.3157 -0.0401
 3682W        W23216  17.624  16.089  13.100 -0.1052 -0.2298  0.2640
 3683W        W23217   8.799  15.190   2.962 -0.1572 -0.0413  0.0184
 3684W        W23218   2.845   7.215   2.646  0.0148 -0.5599  0.0748
 3685W        W23219   5.697   3.876  10.755  0.0457 -0.1130  0.1279
 3686W        W23220  10.162   1.519  13.976 -0.0093  0.2154  0.1100
 3687W        W23221  11.712   7.145  11.174 -0.1730  0.2583  0.2853
 3688W        W23222   7.697  12.352  13.733  0.2466  0.3190 -0.0207
 3689W        W23223  11.889   8.005   1.635 -0.1623 -0.0802  0.0264
 3690W        W23224  17.532  15.523  13.070  0.3546 -0.0907  0.0327
 3691W        W23225   8.766   9.797  14.394 -0.0682  0.2362  0.0791
 3692W        W23226  18.291  14.304   3.304 -0.1401  0.0122 -0.0372
 3693W        W23227  11.551  10.119  13.072 -0.5129  0.0222 -0.4081
 3694W        W23228   6.456   6.952  13.933  0.0020 -0.0476  0.2299
 3695W        W23229  16.476  16.543  11.100 -0.0533 -0.0022  0.2361
 3696W        W23230   4.661   0.641  12.068 -0.1520 -0.0822 -0.0906
 3697W        W23231  13.642  17.204   1.838  0.0619  0.1662 -0.0334
 3698W        W23232   7.705  11.798   0.142 -0.3005 -0.0962 -0.4081
 3699W        W23233  11.666   1.511  12.187 -0.1760  0.0938  0.1306
 3700W        W23234  10.341  10.308   2.475  0.0500 -0.0825 -0.1016
 3701W        W23235   1.424   3.843  12.264 -0.3180 -0.0632  0.3099
 3702W        W23236  10.127  18.152   1.556 -0.0298  0.0267  0.2907
 3703W        W23237   8.382   9.252  11.456 -0.0555 -0.2795 -0.0236
 3704W        W23238  17.301   9.261  12.642 -0.3258  0.0451 -0.0946
 3705W        W23239  16.384  17.993  12.434 -0.1410 -0.2425  0.1388
 3706W        W23240   7.994  17.208   3.346 -0.0111 -0.1749 -0.0165
 3707W        W23241   1.347  11.665   1.238  0.1761  0.0418  0.0649
 3708W        W23242   7.146   6.707  11.603  0.0075  0.0298  0.2734
 3709W        W23243  13.755   9.857   1.503 -0.3135  0.1197  0.0653
 3710W        W23244  12.753  17.010   1.385 -0.2010 -0.0792 -0.1575
 3711W        W23245   4.352  17.740   2.070  0.1930  0.2006 -0.2064
 3712W        W23246   0.898   2.835   0.547  0.1176 -0.0339 -0.2190
 3713W        W23247   1.301   1.608   2.691 -0.3617 -0.3179 -0.0667
 3714W        W23248  12.755   1.051  14.442 -0.1920  0.1946  0.1309
 3715W        W23249  17.980   5.454   2.306 -0.2357  0.0823 -0.3049
 3716W        W23250   7.847  13.822  11.537 -0.0605  0.4458 -0.2241
 3717W        W23251   7.499  16.612   1.752 -0.0042 -0.1431 -0.3596
 3718W        W23252   9.564  14.069   0.920 -0.0656  0.0870  0.2694
 3719W        W23253   1.239  18.823  10.565 -0.1861 -0.0592  0.0035
 3720W        W23254  16.780  10.522  13.632  0.2039  0.0307  0.2692
 3721W        W23255  11.697  18.386  11.460 -0.2862 -0.1394  0.1997
 3722W        W23256   5.067   7.383   2.485  0.0232 -0.2433  0.1464
 3723W        W23257   5.404   6.500  12.539  0.3112 -0.2455 -0.1641
 3724W        W23258   9.282  16.288   4.432  0.1171 -0.0243 -0.1223
 3725W        W23259   2.942   7.727  11.368  0.3418 -0.1037 -0.0894
 3726W        W23260   0.387  11.580  14.676 -0.1363 -0.0782 -0.1450
 3727W        W23261   7.072  15.838   2.541 -0.1570  0.1179  0.0079
 3728W        W23262   1.240  18.701  13.971  0.0357  0.3141  0.0711
 3729W        W23263  18.462  15.725   3.445 -0.1457 -0.0822  0.0285
 3730W        W23264  17.437  17.955   0.029 -0.0860 -0.1694  0.0381
 3731W        W23265   9.739  14.593  14.282  0.0211 -0.0110  0.0850
 3732W        W23266  15.816   9.927   3.317  0.0408  0.0823 -0.0471
 3733W        W23267  12.864   0.211  14.379  0.0581 -0.0555 -0.2074
 3734W        W23268  17.795   6.425   0.218 -0.0212  0.3054 -0.2472
 3735W        W23269  10.602   7.319  11.620  0.0171 -0.0692 -0.3677
 3736W        W23270   4.333  16.320  13.172  0.1500  0.1585 -0.0324
 3737W        W23271  18.961   8.496   3.378  0.1738 -0.0731  0.0544
 3738W        W23272   0.271  15.450   1.878 -0.1670  0.0268  0.1960
 3739W        W23273   7.823   3.111   2.421 -0.1213 -0.0207  0.1417
 3740W        W23274  15.116   3.117   4.188 -0.2973  0.1134  0.2630
 3741W        W23275  13.188  11.998  12.787  0.0109  0.1940 -0.0483
 3742W        W23276   3.059  17.127   3.339 -0.1522 -0.0995  0.1199
 3743W        W23277   1.420   7.334   3.057 -0.1801  0.0593  0.4310
 3744W        W23278  17.523  10.974  10.735 -0.0261 -0.0965  0.3595
 3745W        W23279   6.837   3.890   3.064  0.0105 -0.0735  0.2942
 3746W        W23280  17.367  16.726  14.138  0.0365  0.1940 -0.3695
 3747W        W23281  15.808   7.541  14.596 -0.0846  0.2360  0.0236
 3748W        W23282   0.940  11.031   0.465  0.0829  0.2943  0.0465
 3749W        W23283   4.094   2.163  13.019 -0.7008  0.1345 -0.2285
 3750W        W23284   1.599  17.245   2.325  0.0941  0.0550  0.0309
 3751W        W23285   6.174   3.681  11.022  0.2384 -0.1190 -0.2970
 3752W        W23286  16.399  15.675   4.856 -0.0898 -0.2740  0.0228
 3753W        W23287  15.173   2.465   3.041 -0.1576 -0.3355  0.0604
 3754W        W23288   1.201  18.545   3.248 -0.2295 -0.0788 -0.0315
 3755W        W23289   0.855   9.296  11.583 -0.0047 -0.1547 -0.1338
 3756W        W23290   9.135   2.967   3.490 -0.1088 -0.2476 -0.0974
 3757W        W23291  16.179   3.112  13.212  0.0549 -0.3469 -0.1154
 3758W        W23292   2.294  15.414   3.609  0.2554 -0.0240  0.1183
 3759W        W23293   6.932  10.509   2.822  0.0727 -0.0564 -0.0030
 3760W        W23294  13.595  11.618  14.377  0.2355 -0.3314  0.0663
 3761W        W23295  16.436   7.261   3.386  0.1875  0.0033  0.1544
 3762W        W23296   5.592   3.495   0.655 -0.0604  0.0260 -0.2353
 3763W        W23297   8.913  11.565  10.397  0.3193 -0.0770 -0.4708
 3764W        W23298  11.331   4.367   0.837 -0.0311 -0.0159  0.2165
 3765W        W23299  18.973   0.821  13.550 -0.2804 -0.3282  0.0309
 3766W        W23300  17.017   8.649   1.064  0.1175 -0.0738  0.2011
 3767W        W23301   3.337  14.881   0.917  0.2948  0.1901 -0.1721
 3768W        W23302  18.324   4.167  12.844 -0.0014  0.2403  0.0871
 3769W        W23303  12.869   6.513  14.100  0.1274  0.1089 -0.0591
 3770W        W23304   4.774  15.847  11.164  0.0481 -0.0335 -0.1895
 3771W        W23305  13.704  16.467   3.451 -0.0613  0.0529  0.1973
 3772W        W23306  12.951  19.021   3.961 -0.2124 -0.2005  0.0775
 3773W        W23307  16.944  12.849  12.107  0.1959  0.1834  0.0101
 3774W        W23308   1.489   9.932   1.206  0.1456  0.0189 -0.2300
 3775W        W23309  11.010   5.977  11.840  0.0173  0.1542 -0.0790
 3776W        W23310  16.838  19.103   3.286 -0.0988 -0.0534 -0.4189
 3777W        W23311   4.166  17.394  14.105 -0.0495 -0.1519 -0.1729
 3778W        W23312  13.886   9.812   2.516  0.3478 -0.0663 -0.2608
 3779W        W23313  14.154   8.670  14.353 -0.0863 -0.1160  0.0119
 3780W        W23314   3.317   8.426   2.571  0.2238 -0.0194 -0.1729
 3781W        W23315   4.207  12.024  14.542 -0.0893 -0.1060  0.2154
 3782W        W23316  15.769  18.273  11.905 -0.3616  0.0044  0.1140
 3783W        W23317  11.007  10.550   0.294 -0.1309 -0.1806 -0.1637
 3784W        W23318   7.323  13.660  11.887  0.0065 -0.3841 -0.4003
 3785W        W23319   1.243   8.666  12.805 -0.0161 -0.0756 -0.0393
 3786W        W23320  18.579  14.081  14.174  0.4678 -0.3139 -0.1365
 3787W        W23321  10.465  18.180   1.064 -0.0314 -0.0921 -0.0060
 3788W        W23322   6.493   2.369  12.827 -0.0967 -0.0371  0.1729
 3789W        W23323   3.798  14.554   1.726  0.1382  0.1188  0.2114
 3790W        W23324   6.367   7.914   2.116 -0.0001  0.1010  0.2028
 3791W        W23325   2.132   1.957   3.703 -0.0887 -0.1365  0.2155
 3792W        W23326  10.740  10.508  13.315  0.0913  0.0595 -0.0855
 3793W        W23327  11.541   9.652   3.124  0.2281 -0.0342  0.1162
 3794W        W23328  11.004  13.017   2.668 -0.0527  0.0872 -0.2855
 3795W        W23329   6.419  16.196   0.479 -0.2756  0.3249 -0.3623
 3796W        W23330  14.612   7.463   2.537 -0.1061  0.2609  0.0852
 3797W        W23331  14.572   0.315   0.320 -0.2332 -0.3180  0.1407
 3798W        W23332   2.523   2.937  12.244 -0.1905  0.2511 -0.0055
 3799W        W23333  13.922   0.976   2.334  0.1223 -0.2605 -0.0593
 3800W        W23334   4.575   4.204  10.171 -0.0687  0.0253  0.0432
 3801W        W23335  13.160  15.270   0.734 -0.0902 -0.2570  0.1539
 3802W        W23336   5.175   5.028   4.633 -0.0653 -0.1560  0.0841
 3803W        W23337  16.968   1.562  13.652 -0.0166  0.3847  0.1201
 3804W        W23338  10.129   7.680  10.753 -0.0522 -0.0785  0.2125
 3805W        W23339  11.617  15.198   1.072  0.2633 -0.1473 -0.0769
 3806W        W23340  18.467   4.588   2.315  0.1409  0.0147  0.0252
 3807W        W23341  17.612   9.775   3.662  0.2251 -0.2373 -0.0807
 3808W        W23342   9.487  13.702   3.773 -0.2098  0.1789  0.1861
 3809W        W23343  10.690   3.914   2.762 -0.2348 -0.4480  0.3682
 3810W        W23344  15.173   7.637   1.023 -0.2353 -0.0147 -0.1999
 3811W        W23345   0.446  18.736   1.185 -0.3590  0.0983  0.1194
 3812W        W23346  11.243  18.247  11.286 -0.0920 -0.2112 -0.0569
 3813W        W23347  15.688   2.601   5.207  0.3046  0.2373  0.2720
 3814W        W23348  13.431  12.584  14.097 -0.1452 -0.0521  0.1361
 3815W        W23349  13.358  14.573   0.111  0.0867  0.2612  0.2212
 3816W        W23350   7.868   3.365   5.890 -0.1300  0.0915  0.1746
 3817W        W23351   6.500  13.411   3.699 -0.2935  0.1641 -0.1754
 3818W        W23352  10.845  14.170  11.470 -0.0371  0.0629 -0.1111
 3819W        W23353  16.855   9.990   3.287  0.0722  0.0126 -0.0991
 3820W        W23354  13.293   9.724   1.331  0.0345  0.0095 -0.5045
 3821W        W23355   6.679   6.015  13.349 -0.0201  0.2742 -0.2755
 3822W        W23356  10.007   5.377   4.155 -0.0212  0.3344 -0.0581
 3823W        W23357  18.434   9.710   3.883 -0.0465 -0.3436  0.2568
 3824W        W23358   7.888  14.856  14.142  0.2728  0.0616  0.0668
 3825W        W23359   0.573   3.499  10.359 -0.4375  0.0466 -0.2422
 3826W        W23360  12.203  14.176  11.080  0.0776  0.1099 -0.0832
 3827W        W23361   7.276   8.722   2.569 -0.0162  0.0208  0.2081
 3828W        W23362  18.865   6.809   2.458 -0.1791  0.1584  0.3394
 3829W        W23363  15.379  17.419  11.258  0.2318 -0.3264 -0.0641
 3830W        W23364   1.506  12.000  10.923 -0.0211  0.1500 -0.0520
 3831W        W23365   1.624  12.647  14.598 -0.5033 -0.2025 -0.4041
 3832W        W23366   7.861   6.058   1.281  0.1673 -0.1600 -0.1971
 3833W        W23367  14.466  11.924   1.629 -0.1141  0.1421  0.2876
 3834W        W23368   9.821   0.670  11.290  0.3206 -0.0034  0.2129
 3835W        W23369   0.087   8.849  11.900 -0.1207  0.2171  0.0953
 3836W        W23370   5.104   1.717   0.889 -0.0118 -0.3599 -0.1007
 3837W        W23371   2.285   7.406   1.747 -0.0611 -0.0152 -0.2206
 3838W        W23372  16.520   2.128   2.948  0.1150 -0.0300  0.1340
 3839W        W23373   2.207  10.736   0.402  0.0406 -0.1577 -0.0467
 3840W        W23374  10.739  14.577   2.793  0.2516 -0.0159 -0.2408
 3841W        W23375  10.033  10.442  14.728  0.0150 -0.2135 -0.3774
 3842W        W23376   7.759   4.497  14.179  0.0652  0.1213  0.0166
 3843W        W23377   1.191  17.175  12.119  0.0612  0.1592 -0.0265
 3844W        W23378  19.015  14.462   0.742 -0.0136 -0.2237  0.1886
 3845W        W23379  15.472  12.252  14.158 -0.0330 -0.0033  0.2538
 3846W        W23380   3.953  12.858  11.851 -0.0677  0.0357  0.1204
 3847W        W23381  18.091  16.694   1.613 -0.0899  0.0658  0.2025
 3848W        W23382  18.462   4.735   0.094  0.3825 -0.1307 -0.0896
 3849W        W23383   6.541  12.383  13.799  0.0855  0.0966 -0.0050
 3850W        W23384   6.020  11.894   1.514 -0.1504 -0.0471 -0.2095
 3851W        W23385   8.470   9.089  12.965  0.0866  0.0638  0.1517
 3852W        W23386   0.834   7.326  12.255  0.1609  0.1126  0.0453
 3853W        W23387   5.307   3.655   4.841  0.1052 -0.0952 -0.0365
 3854W        W23388  13.874  18.967  11.027 -0.0705  0.1579 -0.0320
 3855W        W23389   7.303   4.802   3.701 -0.0052 -0.1087 -0.3620
 3856W        W23390  16.286   7.845   4.137  0.2460  0.2901  0.0369
 3857W        W23391  12.730  18.634   0.869  0.2683  0.2403  0.0823
 3858W        W23392   8.680  15.104  14.049  0.2218  0.0886 -0.0464
 3859W        W23393   0.365   4.774  10.565  0.0847 -0.2573 -0.1470
 3860W        W23394  12.367   4.082  12.092  0.0132 -0.3215 -0.0375
 3861W        W23395   6.298   4.638  10.921 -0.1050 -0.0095  0.1449
 3862W        W23396   3.026  15.821  14.213 -0.1281  0.1297 -0.0602
 3863W        W23397  16.549   0.705   0.311 -0.1611 -0.0490  0.4344
 3864W        W23398  15.251  16.520  11.614  0.1916  0.1079 -0.0097
 3865W        W23399  15.759  13.899  11.761 -0.3934 -0.1795  0.2141
 3866W        W23400   7.309  17.337  14.129  0.2644 -0.3291 -0.0203
 3867W        W23401   9.965   9.456  13.155 -0.0031  0.1341  0.3086
 3868W        W23402   1.596   6.239   1.388 -0.1664  0.1854  0.0070
 3869W        W23403  15.043  18.547  12.576  0.1210 -0.0537  0.1424
 3870W        W23404  17.870   5.136   9.656  0.1046 -0.1982  0.1765
 3871W        W23405  13.282  14.239   2.358  0.0327  0.1926 -0.1311
 3872W        W23406  17.848  17.711  13.618  0.1814 -0.1434 -0.4616
 3873W        W23407   6.744   7.279   2.828 -0.0220 -0.1394 -0.1977
 3874W        W23408   3.640  11.267   3.017  0.0061 -0.1835  0.0309
 3875W        W23409  18.744  12.656  14.557 -0.1734 -0.0237  0.0528
 3876W        W23410   9.150  10.092  12.332 -0.1447 -0.1543 -0.3687
 3877W        W23411  17.686   8.895  13.470  0.0908  0.1399 -0.3382
 3878W        W23412  16.142   3.013   4.446  0.2062 -0.1129  0.1745
 3879W        W23413  13.649   1.926  14.275 -0.0381 -0.2782 -0.0733
 3880W        W23414   6.733   3.309   1.302 -0.3141  0.1591 -0.3866
 3881W        W23415   8.448  14.876   3.651  0.0430 -0.0100  0.1519
 3882W        W23416  13.204  16.471   1.741 -0.1099  0.0885  0.0268
 3883W        W23417   4.851   0.449   1.566  0.0535 -0.1281 -0.0997
 3884W        W23418  14.514   8.357  14.105  0.0738  0.0115 -0.0853
 3885W        W23419   1.507  17.237   3.732 -0.1915 -0.0940  0.0243
 3886W        W23420   5.924   1.983  11.093 -0.1239 -0.1999  0.2231
 3887W        W23421   9.405  16.386  14.761  0.0849  0.1466  0.3653
 3888W        W23422   7.278   7.176  11.423  0.0391 -0.0633 -0.3004
 3889W        W23423  12.202  14.066  13.675 -0.0940  0.0519  0.1108
 3890W        W23424   6.935  17.091  13.917  0.1605  0.2680 -0.0757
 3891W        W23425   4.191   6.536  12.012  0.1341 -0.0852 -0.0002
 3892W        W23426   1.917   2.771  12.835 -0.1770  0.3387  0.2188
 3893W        W23427   4.228   0.853  10.763  0.2738 -0.1833  0.2454
 3894W        W23428  12.711   4.702  13.240 -0.0624 -0.0292  0.1424
 3895W        W23429  13.632  12.761   4.097 -0.1884 -0.1177 -0.2596
 3896W        W23430  16.081  16.190   0.493  0.2031  0.1494 -0.2366
 3897W        W23431  15.148  10.492   3.687  0.1290  0.0874 -0.0678
 3898W        W23432   4.119   0.195  14.565  0.0234 -0.0387  0.1016
 3899W        W23433   1.583  13.576  13.983  0.2361  0.1655  0.0792
 3900W        W23434   5.780   7.665  12.382 -0.2130  0.2891 -0.2695
 3901W        W23435   8.682   1.364  12.586 -0.0353 -0.0682 -0.1822
 3902W        W23436  17.940   6.530  10.470  0.1158  0.3270  0.1895
 3903W        W23437   3.453  12.887   4.690 -0.0418  0.1119 -0.0562
 3904W        W23438   4.021   4.889  11.570 -0.0106  0.1584 -0.1927
 3905W        W23439  12.329   7.631  11.168  0.0524  0.0824 -0.1232
 3906W        W23440   8.492  16.104   0.172  0.1105  0.1373 -0.0185
 3907W        W23441   2.160  11.582   2.084  0.5533  0.1168  0.0063
 3908W        W23442  13.018  12.922   3.822  0.0537 -0.1809 -0.0806
 3909W        W23443   9.465  13.261  10.803 -0.0295 -0.0725  0.0700
 3910W        W23444  11.960  14.639   0.694  0.1625  0.0885 -0.0979
 3911W        W23445  12.501  13.189   0.115 -0.0115  0.0657  0.0767
 3912W        W23446  13.484  12.687   2.991  0.0647 -0.0777  0.2532
 3913W        W23447  18.223  11.376   1.607  0.3089 -0.2936 -0.2912
 3914W        W23448   3.123  10.722   4.176  0.0198 -0.1177  0.0425
 3915W        W23449  11.892   5.755   2.778  0.1127 -0.0081  0.2656
 3916W        W23450   0.406  13.207  12.894  0.1880 -0.0803 -0.2181
 3917W        W23451   8.233  12.821  11.987 -0.0807 -0.0231 -0.0353
 3918W        W23452  10.270   3.928   3.041  0.0164  0.2412 -0.2664
 3919W        W23453   4.374   2.910   2.372  0.1682 -0.3303 -0.5859
 3920W        W23454   8.105  15.888   2.141 -0.0979  0.3792 -0.0721
 3921W        W23455   5.382  13.141   2.843  0.0946 -0.3469 -0.5681
 3922W        W23456  18.120   0.824  13.458  0.3116 -0.0499 -0.1152
 3923W        W23457   6.446  18.983  12.555 -0.1756 -0.0166  0.2379
 3924W        W23458  10.298  12.777   3.299  0.2457  0.1310  0.0462
 3925W        W23459  18.857   0.165  14.214 -0.0606  0.0568  0.2661
 3926W        W23460  16.150  16.814   0.774 -0.0989  0.0243 -0.0951
 3927W        W23461   2.648  13.130  12.708  0.1199  0.1796  0.1310
 3928W        W23462  10.366   4.872  12.561 -0.1891 -0.0199 -0.0485
 3929W        W23463  10.444  12.669  12.799  0.0674  0.3150  0.3709
 3930W        W23464  10.897  13.509  10.922 -0.0924 -0.2926 -0.1500
 3931W        W23465   1.233   7.861  14.693 -0.1642 -0.0657 -0.0509
 3932W        W23466   3.941  10.494   3.681  0.1440 -0.4588  0.2365
 3933W        W23467  15.589  16.362  13.438  0.2236  0.0406  0.0842
 3934W        W23468  11.353   2.217  13.303 -0.0172  0.1142  0.0783
 3935W        W23469   7.342   6.678   3.272 -0.1620 -0.0779  0.0933
 3936W        W23470  12.106   3.704  11.870 -0.1205 -0.0592 -0.0027
 3937W        W23471  15.897  17.297  11.349  0.0996  0.3215  0.2165
 3938W        W23472   1.778  15.189  11.219 -0.0991 -0.2490  0.1038
 3939W        W23473   7.179  10.075   1.469 -0.1326  0.0696  0.0234
 3940W        W23474  13.254   2.742  11.600  0.0422  0.1834 -0.1461
 3941W        W23475   2.511  15.411  12.373 -0.1088  0.0486  0.2412
 3942W        W23476   0.605   5.528   3.037 -0.1511  0.0932 -0.6090
 3943W        W23477   8.420  10.222  14.561 -0.1133 -0.0183 -0.0502
 3944W        W23478  14.034   6.289  14.772  0.1368 -0.0930 -0.1572
 3945W        W23479   9.190  13.256  14.073 -0.0742 -0.1910  0.0353
 3946W        W23480  17.222   9.914   0.403  0.0797  0.3434  0.1795
 3947W        W23481  18.274   1.301  13.317  0.0598 -0.0009 -0.0403
 3948W        W23482   8.482   1.720   0.384  0.1224 -0.1073 -0.1489
 3949W        W23483   9.452   1.219  12.053 -0.0557 -0.1790 -0.0620
 3950W        W23484  14.444   7.030  13.599 -0.0161 -0.0969  0.0434
 3951W        W23485   2.564  19.109  10.479 -0.1055 -0.0639 -0.1149
 3952W        W23486  15.731  13.670   0.356 -0.1578 -0.0745  0.0274
 3953W        W23487   5.460   6.197   3.572 -0.2722 -0.0249  0.0724
 3954W        W23488  14.191  15.553  11.849 -0.0376  0.4072 -0.0619
 3955W        W23489   0.288   0.080   0.429  0.0146  0.0026  0.0815
 3956W        W23490   8.705   9.409  10.703 -0.0741  0.1772  0.1155
 3957W        W23491   3.507  11.105   0.308 -0.0359  0.3130 -0.0023
 3958W        W23492  17.525  12.499   3.174  0.0356 -0.0633 -0.2148
 3959W        W23493   2.593   4.285   0.250  0.1850 -0.0593 -0.1948
 3960W        W23494  15.308   6.093  13.396 -0.0762 -0.2604 -0.0596
 3961W        W23495   6.629  12.697  10.757  0.0852 -0.3521 -0.0463
 3962W        W23496   5.258  16.885  11.931 -0.1613  0.2485  0.0580
 3963W        W23497  12.907  12.702  12.028  0.0618 -0.1544  0.1379
 3964W        W23498   0.427  12.706   2.748  0.1641 -0.0270  0.0729
 3965W        W23499   0.151   2.152   2.037 -0.0710 -0.1282  0.1929
 3966W        W23500  15.342   4.534  12.165 -0.2328 -0.3239 -0.2480
 3967W        W23501  11.221  10.260   1.876  0.2712 -0.1069 -0.0485
 3968W        W23502  18.076   1.135  13.850  0.0965  0.0977 -0.1076
 3969W        W23503  11.231  12.876   9.712 -0.0139  0.0316  0.0744
 3970W        W23504   9.967  16.866   0.507  0.2581 -0.1199 -0.3227
 3971W        W23505   8.457  16.377  13.896 -0.2191  0.1474  0.0155
 3972W        W23506   1.743   6.630   0.928 -0.1983  0.3431 -0.3058
 3973W        W23507  15.719   1.608   1.261  0.0210  0.0233  0.1509
 3974W        W23508  13.625   8.398   3.881  0.2881 -0.0346 -0.0039
 3975W        W23509   8.539  14.369   3.783  0.2919  0.1089  0.0113
 3976W        W23510   9.363   3.332  11.516  0.1502  0.0145 -0.0346
 3977W        W23511  11.928   4.889   2.481 -0.0047 -0.0261  0.0067
 3978W        W23512  17.792   9.533   1.421  0.2118  0.3193 -0.0635
 3979W        W23513  16.202  12.956  14.073  0.0023 -0.0811 -0.1308
 3980W        W23514  15.956   0.732   2.788  0.4029 -0.3249 -0.0159
 3981W        W23515   1.909   2.501  13.912  0.2207 -0.1924  0.2523
 3982W        W23516  17.391   9.247  11.107 -0.1607 -0.1223  0.1255
 3983W        W23517   2.229  11.272   1.468 -0.4539 -0.0272 -0.1908
 3984W        W23518  15.028   4.835   2.810  0.2226 -0.1187 -0.1047
 3985W        W23519  16.066   7.037  11.470 -0.2237  0.2846 -0.1350
 3986W        W23520   5.790  16.803  11.067  0.0556 -0.4668  0.3211
 3987W        W23521   6.138  18.619   2.016  0.1575  0.3766 -0.0222
 3988W        W23522  18.876  13.325   5.005 -0.2019  0.1942  0.2247
 3989W        W23523  15.546   5.647  13.522  0.0662  0.0659 -0.0328
 3990W        W23524   4.645   6.765  14.598 -0.1719  0.4581  0.1535
 3991W        W23525  13.415   8.578  12.333  0.2041 -0.0796  0.1907
 3992W        W23526  17.997   5.179   3.189 -0.3125  0.1703  0.2043
 3993W        W23527   3.475  12.931  14.389 -0.0184 -0.1436  0.0643
 3994W        W23528   5.903   1.495   1.703 -0.1551  0.3159 -0.0570
 3995W        W23529  16.469   4.676   1.623 -0.0980  0.2508  0.2358
 3996W        W23530   5.614   5.805   3.826 -0.2368  0.1434 -0.2105
 3997W        W23531   3.031   2.309  11.705 -0.0605  0.1607  0.2037
 3998W        W23532  14.257   3.461   9.037  0.1604  0.0917  0.1420
 3999W        W23533   4.525  16.240  14.809  0.1654 -0.2863 -0.0550
 4000W        W23534   5.995  11.830  14.071  0.4502 -0.0414 -0.1820
 4001W        W23535  12.191   7.317  13.744  0.1271  0.3075  0.2094
 4002W        W23536  12.826   5.717  12.585 -0.0098  0.1909  0.0510
 4003W        W23537   4.183  10.560  11.021 -0.0629  0.2295  0.0304
 4004W        W23538   8.131  11.203   3.086  0.0524 -0.1011 -0.1159
 4005W        W23539   6.921  12.641  12.131 -0.0178 -0.0197 -0.1322
 4006W        W23540   7.623   7.976   0.647  0.0053 -0.6044  0.2955
 4007W        W23541  15.946   5.500   0.145 -0.0103 -0.2835  0.1456
 4008W        W23542   6.907  18.694   0.279  0.1019 -0.2496 -0.0861
 4009W        W23543   0.103   4.436   3.577 -0.2484 -0.1226  0.0252
 4010W        W23544   1.559   7.449  11.468  0.2790 -0.1240  0.1146
 4011W        W23545   9.354   5.181   0.249  0.0135  0.0675 -0.0031
 4012W        W23546   3.975  14.685   2.150  0.1662  0.2722  0.3442
 4013W        W23547  17.120  14.093   1.679 -0.1739 -0.0119  0.1073
 4014W        W23548   4.985   5.505  14.085 -0.4431  0.0818 -0.1554
 4015W        W23549   9.348  16.293  12.756 -0.0468  0.3024  0.1985
 4016W        W23550  16.761  13.180  10.665  0.1337  0.0516 -0.0321
 4017W        W23551   6.385   6.235  11.310  0.1320 -0.0636  0.0796
 4018W        W23552  16.479   8.810  12.219 -0.1760  0.0042 -0.0419
 4019W        W23553   9.313   1.378   2.071  0.1948  0.0431  0.2389
 4020W        W23554  14.642   1.319   0.778 -0.1310 -0.0755  0.1486
 4021W        W23555   7.561  10.535   0.218 -0.0204  0.0211  0.1705
 4022W        W23556  17.179   4.996   1.163  0.2341  0.0834 -0.2536
 4023W        W23557  16.841   9.188   1.681  0.1677 -0.3705  0.1220
 4024W        W23558   5.643  13.024  10.064  0.2696 -0.0469  0.0524
 4025W        W23559   0.344   5.137   4.808  0.3064 -0.6058 -0.0312
 4026W        W23560   8.807   2.561  12.188 -0.2969  0.0985 -0.0953
 4027W        W23561   3.172  13.611   2.578 -0.1937 -0.1991 -0.2283
 4028W        W23562   0.084   7.141  12.415 -0.0070 -0.1588 -0.0212
 4029W        W23563  14.039   2.259  14.479 -0.0040 -0.0904  0.4345
 4030W        W23564   2.012  12.292   1.474 -0.0413  0.2392  0.0764
 4031W        W23565   4.261  10.717   3.265  0.2197  0.2143 -0.0947
 4032W        W23566   5.416  14.235   0.137  0.3010 -0.1491  0.0785
 4033W        W23567   7.458   0.522  11.618  0.1131  0.0080  0.0757
 4034W        W23568   3.873  10.999  10.215 -0.1599 -0.1534  0.2088
 4035W        W23569  15.716   7.090  11.170 -0.1012 -0.1081  0.0922
 4036W        W23570  17.120  11.463   3.583  0.0730 -0.0070 -0.1484
 4037W        W23571   9.993  16.042  13.836 -0.0492 -0.1938 -0.0843
 4038W        W23572   3.152   1.624   2.675 -0.1300 -0.1430 -0.0716
 4039W        W23573   9.912  15.096   2.507 -0.0025  0.0008 -0.0344
 4040W        W23574   5.907   5.035   3.351  0.0855  0.3849  0.5928
 4041W        W23575   6.769   2.345  10.745 -0.2081  0.0969 -0.0381
 4042W        W23576   0.220  14.987  11.301  0.0197 -0.0088 -0.0656
 4043W        W23577   0.266   6.537  12.783  0.1496  0.0315 -0.0325
 4044W        W23578  10.487   7.986  10.913 -0.0830 -0.1440 -0.0634
 4045W        W23579  12.434   6.566  12.192 -0.3219  0.1571 -0.3812
 4046W        W23580   7.095   5.691  14.292  0.0008  0.1521 -0.0443
 4047W        W23581   4.427  12.858  12.879  0.0553 -0.2035  0.1507
 4048W        W23582   7.212   4.371   0.574 -0.3079  0.0008  0.0835
 4049W        W23583  16.559  18.706  11.093  0.1012 -0.3301  0.1029
 4050W        W23584  18.230   6.844   2.755  0.0930  0.3273 -0.0304
 4051W        W23585  16.056   0.321  11.094  0.3882 -0.2638 -0.0150
 4052W        W23586   8.991   8.122  12.781 -0.1998 -0.0804 -0.0049
 4053W        W23587  11.553  13.783  14.757 -0.0155 -0.4520  0.2763
 4054W        W23588   9.858  11.611   9.270 -0.0616 -0.2169  0.0964
 4055W        W23589   7.145   8.076  12.909  0.0319  0.2885  0.0828
 4056W        W23590  13.720  11.008   0.513  0.1275  0.2698 -0.0449
 4057W        W23591   3.731  15.080  12.934 -0.0767  0.0961  0.0995
 4058W        W23592   0.675  10.307  13.145 -0.0682  0.1042 -0.4320
 4059W        W23593  13.046  18.414   2.497 -0.0607  0.2919 -0.0937
 4060W        W23594   5.856   6.076  13.781 -0.2458  0.0179  0.2518
 4061W        W23595  13.049   0.474  11.465 -0.1432 -0.5241 -0.3862
 4062W        W23596  14.533  16.402   4.691 -0.1077  0.1115  0.4319
 4063W        W23597  12.896   6.863  13.712 -0.2198  0.1226  0.1266
 4064W        W23598  10.088  12.315   2.288 -0.0459 -0.0290 -0.2262
 4065W        W23599  18.217   7.944   1.854 -0.0625 -0.0644 -0.1722
 4066W        W23600  15.953  12.647   4.858 -0.1951 -0.0686  0.0412
 4067W        W23601   5.089  16.568   1.273 -0.0409 -0.0975  0.0918
 4068W        W23602   6.996   3.685   3.840  0.5350 -0.1378  0.1386
 4069W        W23603  12.329  17.804   2.400  0.1074 -0.2042 -0.0033
 4070W        W23604  18.814   5.577   0.439  0.1263 -0.1506 -0.1112
 4071W        W23605   2.908   0.073   2.364  0.1459  0.0695 -0.2362
 4072W        W23606  16.241  16.891   0.239  0.0740  0.1532  0.2316
 4073W        W23607   9.206  18.162  13.438  0.1062 -0.1360  0.0484
 4074W        W23608   2.967   9.284  12.296 -0.0391 -0.2339  0.1903
 4075W        W23609   4.863   5.260  10.977  0.0032 -0.1416  0.0052
 4076W        W23610   4.190   7.123   9.660  0.3424 -0.2941  0.0911
 4077W        W23611   1.594   2.187  11.428 -0.2175 -0.0420 -0.2871
 4078W        W23612  16.346  11.642  10.998  0.1621  0.2498  0.0845
 4079W        W23613   4.973  12.582   4.110 -0.2582  0.1989 -0.3296
 4080W        W23614  15.940   7.093   3.088 -0.0562 -0.0121  0.0978
 4081W        W23615  17.822   7.319   2.575 -0.0557  0.1061  0.1619
 4082W        W23616   0.394  18.296   1.549  0.1877  0.0269 -0.3076
 4083W        W23617   1.514  17.570  10.963 -0.3826  0.3227 -0.0229
 4084W        W23618  17.128  13.891  14.135  0.1528  0.2617  0.0123
 4085W        W23619   4.156  16.414   3.546 -0.0440  0.2254 -0.5201
 4086W        W23620   6.377  19.098  10.740 -0.1047 -0.0629 -0.2001
 4087W        W23621   0.646   4.039  10.372  0.1204  0.3028 -0.2077
 4088W        W23622  16.366   1.653  10.596  0.0637 -0.3048 -0.0745
 4089W        W23623   8.591  14.912   0.540 -0.0353  0.1769 -0.1877
 4090W        W23624  13.861   3.325   3.022  0.1928 -0.0027  0.0951
 4091W        W23625  12.244  15.779  12.117  0.0860  0.0097  0.0082
 4092W        W23626   7.238  13.575   4.103 -0.2297 -0.1203  0.0905
 4093W        W23627  11.361  10.107   1.402 -0.3377 -0.3481 -0.2832
 4094W        W23628   6.188  15.180  12.777  0.3595 -0.0546  0.0669
 4095W        W23629  16.065   0.789  12.003  0.0087  0.0442  0.0802
 4096W        W23630   9.846   7.869  11.131  0.0529 -0.1503 -0.0970
 4097W        W23631   3.987   5.276  11.914 -0.0387 -0.0624 -0.0188
 4098W        W23632   9.565   4.571  11.212  0.0373 -0.0099 -0.1080
 4099W        W23633   4.895   3.176  12.474 -0.0679 -0.1760 -0.0256
 4100W        W23634   7.197  10.540  12.692 -0.1240 -0.0671  0.1468
 4101W        W23635  10.902  12.707   3.434  0.0605  0.2256 -0.0091
 4102W        W23636   0.765   3.769   0.461 -0.1693  0.1465 -0.3229
 4103W        W23637  18.585  17.670  12.997 -0.1697 -0.2006  0.0670
 4104W        W23638  15.307  14.060   2.910  0.1239  0.0585 -0.2122
 4105W        W23639   4.514   9.762   1.616  0.1034 -0.1081  0.0430
 4106W        W23640  12.183   0.969  11.479  0.2383  0.1112  0.2154
 4107W        W23641   9.335   0.217   0.245 -0.0372 -0.0103  0.1764
 4108W        W23642   5.683   5.284  12.518  0.0155  0.1267  0.1963
 4109W        W23643   9.560   7.892  13.122 -0.2968  0.1948  0.0516
 4110W        W23644   3.209   0.642  14.073  0.1929  0.1672  0.1608
 4111W        W23645  17.743  10.350  14.630 -0.0308 -0.1013  0.0107
 4112W        W23646  15.976  13.469   2.176  0.0547  0.0619  0.2579
 4113W        W23647   3.169  11.974   5.526 -0.2011 -0.0916 -0.2364
 4114W        W23648   4.781  13.305  14.134 -0.0579 -0.4785  0.0139
 4115W        W23649   2.545  10.821   1.399  0.2782  0.1408 -0.3197
 4116W        W23650  13.416   7.933   1.157 -0.1545  0.1017  0.2830
 4117W        W23651   8.443   3.387  12.715 -0.2754 -0.2143 -0.0496
 4118W        W23652  12.098  18.667   3.592  0.0428  0.1462  0.0693
 4119W        W23653  17.979  12.943  12.196  0.2935 -0.1583  0.0562
 4120W        W23654   7.176   0.116  11.467  0.0320  0.0552 -0.0584
 4121W        W23655   3.979   9.607   3.788 -0.0274  0.0208 -0.4988
 4122W        W23656  11.935  12.761   0.603 -0.4226  0.1070  0.2707
 4123W        W23657   3.746   5.834   3.807 -0.2146 -0.0137  0.0866
 4124W        W23658   6.776  18.555  13.679 -0.1810 -0.0230 -0.1975
 4125W        W23659  17.040   5.987  11.652 -0.2723  0.0514 -0.0175
 4126W        W23660   6.062   6.480  10.552  0.2580  0.1343  0.0333
 4127W        W23661   2.615  13.752  11.950  0.0868  0.1245 -0.2475
 4128W        W23662   1.541  13.758  11.932  0.0698  0.0712 -0.1710
 4129W        W23663  17.528  13.137   0.560 -0.0031 -0.0474 -0.0367
 4130W        W23664   4.707  18.134  11.351  0.3019  0.0023  0.1310
 4131W        W23665  10.154  15.507  14.135  0.3018  0.0058 -0.1639
 4132W        W23666  15.557   8.025  14.456 -0.0684 -0.1456 -0.1787
 4133W        W23667  10.245   0.735   1.134 -0.3275  0.0039 -0.1617
 4134W        W23668  12.916   4.998   2.343  0.3417  0.1518 -0.2478
 4135W        W23669  12.018   3.766  14.316 -0.0111  0.0669  0.1787
 4136W        W23670   7.631   0.382   0.644  0.0624 -0.0218  0.2076
 4137W        W23671   3.177   0.146   3.325 -0.2032  0.1048  0.0766
 4138W        W23672   8.585  11.139  14.366 -0.1176 -0.1317 -0.2491
 4139W        W23673  13.709  14.623   2.796  0.2114 -0.2685  0.1932
 4140W        W23674  17.796  13.039  12.849 -0.0750  0.0254 -0.0721
 4141W        W23675   8.852   8.921   0.322  0.0649  0.0321  0.3201
 4142W        W23676   3.981   6.197  14.140 -0.3298 -0.2365 -0.0793
 4143W        W23677   1.060  11.929  12.295  0.1615 -0.2562  0.0250
 4144W        W23678  10.524  17.894   4.107  0.1886 -0.3875  0.1505
 4145W        W23679  12.674  13.426  11.297  0.1948  0.2095 -0.0947
 4146W        W23680   5.263   5.607  12.423  0.3531  0.1703  0.4501
 4147W        W23681   2.083   6.839   5.076  0.0157  0.0735 -0.0234
 4148W        W23682   5.286   8.950  10.641 -0.1482  0.0680 -0.1950
 4149W        W23683  16.450  13.536  14.747 -0.1962 -0.1217 -0.2559
 4150W        W23684   9.264  12.702   3.771 -0.0950 -0.0215 -0.0246
 4151W        W23685  14.474  10.049   2.802 -0.1349 -0.1918  0.1448
 4152W        W23686  13.891  12.363  12.593  0.0084 -0.1005 -0.0526
 4153W        W23687   0.002  11.015   3.601 -0.0972  0.3531  0.0690
 4154W        W23688   5.137  17.854  11.402 -0.3448 -0.1631 -0.0439
 4155W        W23689  15.093   7.734  11.261  0.1261  0.2704  0.0773
 4156W        W23690   0.139   0.404  13.437  0.0461  0.1312  0.0787
 4157W        W23691  16.481  11.691  10.401 -0.3106 -0.1321  0.3177
 4158W        W23692  18.389   7.937  11.559 -0.1308  0.2274  0.0188
 4159W        W23693  17.579   6.356   1.220 -0.3224  0.1445 -0.1125
 4160W        W23694  14.215  14.022   2.302  0.2382  0.0517  0.0193
 4161W        W23695   2.377  16.920   0.415  0.1167  0.0368 -0.0125
 4162W        W23696  18.130  11.300   2.652  0.0683 -0.0747 -0.1616
 4163W        W23697  15.173   1.243  11.051  0.4118 -0.0385  0.0593
 4164W        W23698   6.011  15.722  11.423  0.4053 -0.1821  0.4105
 4165W        W23699  16.701   1.572  11.385 -0.3401 -0.0392  0.0373
 4166W        W23700   9.119   5.832  14.579  0.1665 -0.2650 -0.0552
 4167W        W23701   3.913   1.268  10.857  0.0387  0.0531 -0.0933
 4168W        W23702   8.911   0.197   1.880  0.1133 -0.2558  0.0532
 4169W        W23703   6.705  18.334   5.254 -0.0343  0.1637 -0.1896
 4170W        W23704  12.854  12.579  14.319  0.0645 -0.0591 -0.1424
 4171W        W23705   8.557  10.523  11.828  0.0160 -0.0461  0.2672
 4172W        W23706   0.936  14.384  11.543  0.2522 -0.0023 -0.1546
 4173W        W23707  14.009   5.914   2.506  0.1259  0.0426 -0.0652
 4174W        W23708  17.224   3.494   2.064  0.0861  0.0952 -0.0589
 4175W        W23709   4.218  13.539  13.453 -0.0078 -0.4243 -0.1427
 4176W        W23710   3.967   2.714   3.348  0.0609  0.3240  0.2529
 4177W        W23711   7.157  13.928   0.608  0.1454 -0.3359  0.0074
 4178W        W23712   4.525   1.752   1.689 -0.1620  0.0231 -0.0789
 4179W        W23713   2.937  18.025   1.087  0.2087 -0.2402 -0.0023
 4180W        W23714  15.842   2.582   3.318 -0.2572  0.0137 -0.2673
 4181W        W23715  17.795  11.798  11.989  0.1157  0.1296  0.4440
 4182W        W23716  13.101   2.919   3.442  0.3147 -0.1393  0.1087
 4183W        W23717   5.977   9.414  12.115  0.0896 -0.0931  0.1817
 4184W        W23718   6.210  13.080  12.525  0.1201 -0.3115 -0.1141
 4185W        W23719   2.526  14.490   3.099  0.2186  0.0659  0.2294
 4186W        W23720  11.914  16.866   1.836  0.2513 -0.0964  0.0020
 4187W        W23721   2.980  17.551  10.857 -0.2309  0.1231  0.0504
 4188W        W23722   0.514   4.470  10.182  0.3407  0.0021  0.1496
 4189W        W23723   9.369  13.326   9.880  0.2011  0.1816  0.1886
 4190W        W23724  14.284  16.636   9.809  0.2755 -0.3007 -0.1147
 4191W        W23725  14.746   9.260   3.310 -0.1694 -0.1284  0.1505
 4192W        W23726   3.083  10.264   3.944 -0.0693  0.0791  0.1537
 4193W        W23727  16.271  13.132  12.555  0.1476  0.1114  0.1534
 4194W        W23728   8.833   3.840   3.952 -0.1650  0.0151 -0.2943
 4195W        W23729   1.977  15.379   2.297  0.1553 -0.4209  0.2567
 4196W        W23730  18.203   2.559   2.045 -0.0931 -0.0721 -0.0808
 4197W        W23731   4.562   1.922  11.351 -0.0852 -0.0860 -0.1035
 4198W        W23732   1.972   2.745  14.808 -0.0445 -0.0026 -0.3065
 4199W        W23733  13.163  18.856  11.770  0.0420 -0.1464  0.3039
 4200W        W23734  11.298   6.421   1.946  0.1933  0.1589  0.1410
 4201W        W23735   7.726  11.140   1.420 -0.0014 -0.0617 -0.2385
 4202W        W23736   3.084  14.618   5.222  0.1731 -0.0917  0.1469
 4203W        W23737   9.821   5.691   1.129  0.2803  0.0858  0.2977
 4204W        W23738  16.592   2.375  14.808 -0.0598 -0.2141 -0.0275
 4205W        W23739  11.797   4.886   2.969 -0.0381  0.1512 -0.0951
 4206W        W23740  11.187   5.490   4.893 -0.0397  0.0374  0.0570
 4207W        W23741  10.634   4.549  10.277 -0.3400  0.1561 -0.0844
 4208W        W23742  11.306  14.432  10.578  0.0776  0.2046 -0.1650
 4209W        W23743   2.612   8.543  11.061 -0.0018 -0.0294 -0.2705
 4210W        W23744   5.514   8.799   0.013  0.2521 -0.1450 -0.1015
 4211W        W23745   8.867   5.315   1.517 -0.0168  0.1713  0.1937
 4212W        W23746  18.795  11.746   3.775  0.0606 -0.1204 -0.0695
 4213W        W23747  14.004  15.377   2.455  0.3830 -0.2255 -0.0494
 4214W        W23748  19.108  16.025   1.211  0.1173 -0.0797 -0.0522
 4215W        W23749   4.506   7.656  14.267  0.1213  0.0317  0.0796
 4216W        W23750   2.461   9.393  14.524  0.0973  0.2612  0.1174
 4217W        W23751   5.405  17.913  13.487  0.0228 -0.0035 -0.3248
 4218W        W23752   3.418  19.102  12.940  0.0034  0.1976  0.0345
 4219W        W23753  15.244   8.736  14.731  0.0483 -0.3189  0.1785
 4220W        W23754  16.848  13.894  11.594  0.0605 -0.0945  0.2937
 4221W        W23755  15.465   0.317   1.890 -0.1690  0.2894 -0.0254
 4222W        W23756   2.765   8.122   4.629 -0.1668  0.1298  0.2056
 4223W        W23757   8.202  11.389   0.195 -0.1159 -0.1618 -0.1943
 4224W        W23758   6.339  13.003  14.752  0.0285  0.2368  0.1585
 4225W        W23759  15.438   2.591  14.602  0.2079 -0.2308  0.0494
 4226W        W23760   6.761   0.533   3.134 -0.0807  0.0131 -0.2538
 4227W        W23761   2.726  18.589   0.151  0.1918 -0.1627 -0.0981
 4228W        W23762   7.396   1.184  11.966 -0.1206  0.2147  0.2479
 4229W        W23763  18.711  14.388  13.784  0.0904  0.3695  0.0323
 4230W        W23764  11.315   3.112   1.436  0.0641 -0.1575  0.3281
 4231W        W23765   6.647  11.176   1.321  0.1775  0.0523  0.2343
 4232W        W23766  14.323  10.454  13.618  0.1234 -0.2655 -0.0441
 4233W        W23767  16.785  14.455  14.619  0.1029 -0.2351 -0.0931
 4234W        W23768  18.454   0.487   2.676 -0.0596  0.1208  0.0424
 4235W        W23769  15.310  16.455   0.256 -0.0458 -0.1706 -0.0492
 4236W        W23770   0.409  16.555  13.217 -0.2696  0.3710 -0.0244
 4237W        W23771   7.842   2.762   0.094  0.1321 -0.1449 -0.0205
 4238W        W23772   0.234   7.483   0.179 -0.4031 -0.0070  0.2137
 4239W        W23773   7.243  18.360   0.176  0.1010  0.4597  0.2932
 4240W        W23774  11.424   1.081   3.641 -0.2612  0.0562 -0.2041
 4241W        W23775   6.644  18.064   1.686  0.0320  0.0649 -0.1344
 4242W        W23776   3.806   5.797   3.257  0.0852 -0.0441  0.1489
 4243W        W23777   5.143  16.441   3.824  0.2291 -0.3036 -0.0899
 4244W        W23778   6.019   4.310  13.370 -0.0279 -0.0582  0.0713
 4245W        W23779  15.064   7.660  13.889  0.1427  0.1458 -0.0589
 4246W        W23780   7.738   9.908  14.441 -0.1285  0.1036  0.0383
 4247W        W23781  14.282  15.054  12.625  0.1538 -0.0387  0.1646
 4248W        W23782   3.495  16.025   0.733 -0.0844 -0.0207  0.1557
 4249W        W23783   6.655   2.764   1.046 -0.2359 -0.1180  0.0789
 4250W        W23784  12.391  17.885   4.111  0.1842  0.0812  0.0905
 4251W        W23785  18.788  18.792   0.358  0.0054 -0.2375  0.1785
 4252W        W23786  15.584   0.385   4.710 -0.0762  0.1056  0.0152
 4253W        W23787  16.466  11.313   0.988  0.1914  0.2702  0.0551
 4254W        W23788   6.749   8.249   0.781  0.0491 -0.0411 -0.1000
 4255W        W23789   5.222  11.707  14.696 -0.0879 -0.0808  0.1712
 4256W        W23790   2.482   8.809   2.170 -0.2289 -0.1842  0.0981
 4257W        W23791   6.332  18.501   4.038 -0.2366  0.1747  0.2648
 4258W        W23792   6.781   9.465   2.172  0.3257 -0.0471  0.1958
 4259W        W23793   1.378   4.907  11.849 -0.1160 -0.1938  0.3415
 4260W        W23794  12.953   5.323   1.428 -0.1161 -0.0331  0.2804
 4261W        W23795  13.795   7.170   2.596  0.0986  0.1616 -0.1127
 4262W        W23796   7.736  11.752  13.268  0.0784 -0.1338  0.1997
 4263W        W23797  10.798   4.058  12.060  0.2436  0.1776 -0.3778
 4264W        W23798   3.404  13.915   3.280 -0.1535  0.0673  0.2041
 4265W        W23799   5.060  13.517   2.861  0.0526  0.4144 -0.2351
 4266W        W23800   7.255  13.796   1.948 -0.1249  0.1672  0.2442
 4267W        W23801   2.631  18.803  11.883  0.2399  0.0298  0.5295
 4268W        W23802  11.223   9.562   2.065  0.0138  0.1979 -0.0473
 4269W        W23803   2.090  16.329   0.561 -0.0593 -0.2442 -0.0963
 4270W        W23804  14.010  15.538   1.022  0.0706 -0.1336  0.3606
 4271W        W23805  18.973  13.158  12.143 -0.0050  0.2153  0.3388
 4272W        W23806  12.374   6.136  12.926 -0.0181  0.1341  0.1630
 4273W        W23807  14.623  15.647  11.237  0.0011  0.1966  0.0543
 4274W        W23808   5.683   4.244  11.582  0.0856  0.2757  0.0765
 4275W        W23809   3.191   3.553   3.409  0.0718  0.0527  0.1435
 4276W        W23810  14.759  11.540   2.974  0.1245 -0.0072 -0.0864
 4277W        W23811   8.864   1.896   2.645 -0.4338 -0.1870  0.3153
 4278W        W23812  16.345  15.807   3.837 -0.3700 -0.1494 -0.0931
 4279W        W23813  17.461  18.687  13.821 -0.2488 -0.2883  0.1067
 4280W        W23814   3.988   8.822   2.415  0.1599  0.0877  0.0512
 4281W        W23815  11.587   7.581  10.874  0.3851 -0.1484 -0.0602
 4282W        W23816   2.991  13.105  14.052 -0.1434  0.1991 -0.0079
 4283W        W23817   6.736   6.838  13.488 -0.1298 -0.1041  0.0484
 4284W        W23818  13.602  15.988   3.745 -0.0988  0.2344 -0.1190
 4285W        W23819   9.076  18.916  14.699  0.1760 -0.1456 -0.0626
 4286W        W23820   0.239   5.923  10.782 -0.0429  0.0774 -0.1368
 4287W        W23821  18.962   0.509   1.876 -0.0746 -0.3842 -0.0060
 4288W        W23822  16.173   8.484  10.980  0.0776 -0.1393 -0.0398
 4289W        W23823  12.556   9.458   1.645 -0.2051  0.0075  0.0211
 4290W        W23824   5.575   0.591   2.131 -0.1370  0.0491  0.0930
 4291W        W23825  13.887  10.883  12.559 -0.1772  0.2149 -0.0686
 4292W        W23826  13.164  16.052   2.075 -0.0317  0.1195  0.2882
 4293W        W23827  15.627  17.629   1.807  0.1108  0.0909  0.0232
 4294W        W23828   0.652   6.233   1.032 -0.1697 -0.0500 -0.0142
 4295W        W23829  18.847  18.050   1.034  0.1025 -0.0525 -0.1806
 4296W        W23830  17.737   3.501   3.917  0.1124  0.2196 -0.2073
 4297W        W23831   4.166   2.580  11.793  0.0653  0.2277 -0.0222
 4298W        W23832   0.376   1.665   2.457  0.1026  0.2503  0.1503
 4299W        W23833  10.721  10.635  12.780  0.1479 -0.3745  0.2614
 4300W        W23834   7.686   2.545   2.904  0.0284  0.0067  0.0863
 4301W        W23835   0.645  16.571  12.776  0.0836 -0.1270 -0.0162
 4302W        W23836  18.309  15.652  12.777 -0.0988  0.3997 -0.1315
 4303W        W23837  17.591  11.361   2.709 -0.0485  0.1605 -0.1835
 4304W        W23838  13.363  14.727   4.535  0.1161  0.1727 -0.0351
 4305W        W23839  11.806   1.026   0.326  0.0327 -0.1405 -0.0305
 4306W        W23840  17.441  12.000  11.498 -0.1501  0.0664  0.1022
 4307W        W23841  14.896  12.807   2.741  0.1256  0.1031  0.0811
 4308W        W23842  18.980  11.739  14.269  0.3392 -0.3317 -0.0633
 4309W        W23843   8.194  12.949  10.970  0.2273 -0.3376  0.2242
 4310W        W23844  10.260   5.031  13.252  0.1730  0.0585  0.2758
 4311W        W23845  18.296   8.095  13.686 -0.0767  0.0777 -0.1062
 4312W        W23846  12.298  15.487   4.565 -0.1864  0.2677  0.1371
 4313W        W23847   7.058   0.473   0.550  0.1810  0.0606 -0.1671
 4314W        W23848   9.746  15.237  11.650 -0.1880  0.2276  0.0580
 4315W        W23849   1.753  10.202   2.590 -0.4064  0.2318  0.0980
 4316W        W23850   0.626  17.647   5.001 -0.2228  0.0468  0.2250
 4317W        W23851   3.123   2.756   2.933 -0.0763  0.0070 -0.2644
 4318W        W23852   7.410   8.423   3.575 -0.1143 -0.1519 -0.1212
 4319W        W23853   3.793   8.754   4.087 -0.1976  0.2559 -0.0756
 4320W        W23854  13.191   0.366   3.382  0.0939 -0.1686  0.2081
 4321W        W23855   9.903   8.052   4.146  0.2479  0.1710  0.0931
 4322W        W23856  13.322  17.086   0.575 -0.0353 -0.1928  0.1849
 4323W        W23857   9.367   6.896   5.099 -0.0711  0.0243 -0.0053
 4324W        W23858  10.202  17.130   2.133  0.0576 -0.0077 -0.0668
 4325W        W23859  16.637  15.729   2.030 -0.1200 -0.0148 -0.0040
 4326W        W23860   0.389   0.510   4.515 -0.1129  0.0733 -0.0680
 4327W        W23861  11.263  10.094  11.469  0.1473 -0.1759 -0.0093
 4328W        W23862  12.896  10.206  13.875 -0.3307  0.1453  0.1466
 4329W        W23863   6.710   5.388  11.731  0.1305  0.2670  0.2610
 4330W        W23864  10.682  18.111   1.539 -0.3152 -0.2004 -0.1183
 4331W        W23865   6.446   1.284   0.059  0.0485  0.1301 -0.0800
 4332W        W23866   7.903  12.939   1.158 -0.0061 -0.0732  0.2302
 4333W        W23867   4.104   1.825  13.891  0.0977  0.0353 -0.0911
 4334W        W23868   7.829  12.077   0.676 -0.1790  0.1226 -0.0547
 4335W        W23869   2.182  15.238   0.817  0.0236 -0.2411  0.0544
 4336W        W23870  11.970   8.107  11.969 -0.1898 -0.0146  0.3130
 4337W        W23871  15.947  12.235   3.478 -0.0372 -0.1116  0.1450
 4338W        W23872   9.186  18.164   3.427 -0.1912  0.2504  0.2816
 4339W        W23873   8.217   5.606  14.695 -0.0406  0.0565 -0.0682
 4340W        W23874  15.323   7.481   2.468 -0.3904 -0.1648  0.0380
 4341W        W23875  17.683  13.498  13.015  0.1283  0.1476 -0.3097
 4342W        W23876   1.183   1.736  14.674 -0.0521  0.0550 -0.2548
 4343W        W23877  16.476  12.777  12.838  0.1230 -0.0021  0.1865
 4344W        W23878  13.700  18.017   4.290 -0.0520  0.0541 -0.1471
 4345W        W23879   3.044   5.922   2.073  0.0460  0.1440 -0.1060
 4346W        W23880  17.784  11.338   3.694 -0.1203 -0.1384 -0.0392
 4347W        W23881   4.218   3.279  14.398  0.1558 -0.0887  0.0078
 4348W        W23882  14.876  18.443   3.853  0.1135 -0.1913  0.1246
 4349W        W23883  11.417  11.335   3.471  0.0830 -0.0321 -0.3662
 4350W        W23884  11.834  11.266   1.128  0.3660 -0.2083  0.0062
 4351W        W23885   6.205   9.167   0.478 -0.0298  0.0053  0.0878
 4352W        W23886   0.816  10.747  13.891  0.1160  0.3513 -0.1410
 4353W        W23887  15.855  16.613   3.517 -0.1847  0.0837  0.0933
 4354W        W23888  14.607  18.127   0.139  0.3975  0.2050  0.1775
 4355W        W23889  10.351  15.628   0.469  0.0573 -0.1179  0.0364
 4356W        W23890  12.045   6.248   0.899 -0.2701  0.0451 -0.1136
 4357W        W23891   5.602  15.415  11.253 -0.0607 -0.3298 -0.0454
 4358W        W23892  14.427   2.123   2.458  0.1157 -0.0905 -0.0498
 4359W        W23893   5.329   4.088   4.053 -0.0971  0.0296 -0.0973
 4360W        W23894  14.904   8.438   2.607 -0.0286 -0.0087 -0.0287
 4361W        W23895   9.697   0.844   1.886 -0.0270  0.0996 -0.2973
 4362W        W23896   3.754   8.709  10.856  0.1987  0.4426 -0.0717
 4363W        W23897   3.404   3.208  13.473 -0.1697  0.2373 -0.2519
 4364W        W23898  17.909   0.129  13.887  0.0486  0.1920  0.3047
 4365W        W23899  10.355   7.253   1.487  0.0922 -0.1010  0.0562
 4366W        W23900  12.104  10.379  13.095  0.1130  0.0741  0.2166
 4367W        W23901  17.280   3.232  13.898 -0.1405 -0.0923 -0.1825
 4368W        W23902  11.536   3.187  13.766 -0.0235 -0.0671  0.1843
 4369W        W23903  18.436   1.818  11.871  0.0038 -0.7264  0.1920
 4370W        W23904  17.115   8.534  10.944 -0.2203  0.2295  0.0317
 4371W        W23905   6.340  13.970   2.467 -0.0095  0.0776 -0.1795
 4372W        W23906  11.984  14.165   2.833 -0.0513 -0.0610  0.2414
 4373W        W23907   7.955  16.695  13.008 -0.1611  0.0824 -0.1168
 4374W        W23908  12.343  16.791  14.500  0.0411  0.0333  0.0316
 4375W        W23909  14.992   8.171  11.597  0.1349 -0.1806  0.0067
 4376W        W23910   7.529   3.105   4.465  0.1154  0.2686  0.1226
 4377W        W23911  16.491   4.443   3.859 -0.2649  0.0352 -0.0227
 4378W        W23912  16.533   3.626   4.009 -0.0685  0.1697  0.0518
 4379W        W23913  17.941   6.789  14.094 -0.0598 -0.1076 -0.0099
 4380W        W23914  17.633   0.162  14.610 -0.2094 -0.1887  0.1097
 4381W        W23915   4.623   2.105  13.705  0.0729  0.2204  0.0786
 4382W        W23916   4.944   1.868  14.068 -0.1016 -0.2694  0.2184
 4383W        W23917  10.594   4.393   3.009 -0.0276  0.2282 -0.1598
 4384W        W23918   7.432  14.037   3.634 -0.4402 -0.0804 -0.2289
 4385W        W23919  13.194   0.842   1.787  0.0857 -0.2091 -0.0211
 4386W        W23920  10.175   5.332   0.857 -0.1645 -0.3641 -0.3075
 4387W        W23921  17.227  17.191   0.195 -0.1935  0.0330 -0.0409
 4388W        W23922  14.780  10.293  11.327  0.1168  0.1602 -0.2055
 4389W        W23923  11.249   3.996   4.817  0.2257  0.0579  0.2396
 4390W        W23924   4.473  13.950   2.858  0.1782 -0.0498  0.1372
 4391W        W23925   3.722  13.986   1.529  0.1194 -0.2628  0.0725
 4392W        W23926   6.530  16.346  13.382 -0.0149  0.1158  0.2863
 4393W        W23927   7.096   7.439   4.394  0.2054  0.0536  0.2448
 4394W        W23928  13.561   8.684   3.280 -0.0060 -0.0199 -0.1369
 4395W        W23929  16.309   1.366  11.143 -0.0129  0.0479  0.0652
 4396W        W23930   7.766  15.540   0.401  0.0988  0.1591 -0.2472
 4397W        W23931  13.455   2.225   4.054 -0.2209  0.0619 -0.2228
 4398W        W23932   9.285   7.883   3.895  0.0652  0.0105 -0.1025
 4399W        W23933   9.775  11.773  13.333 -0.1112 -0.0196 -0.1001
 4400W        W23934   0.310  14.485   0.302 -0.0726  0.1197  0.1421
 4401W        W23935  15.554   0.211  13.222  0.0495  0.0199  0.0973
 4402W        W23936  14.637  16.493   2.113  0.0560 -0.2744 -0.2035
 4403W        W23937  14.970   2.193  12.059  0.1159  0.1358  0.0256
 4404W        W23938  16.779   6.671  11.228  0.0657 -0.0441  0.1442
 4405W        W23939   8.485  11.042   0.992  0.1650 -0.2721 -0.0626
 4406W        W23940  11.589   6.529   3.752 -0.0713 -0.0386 -0.0657
 4407W        W23941  16.979  10.356   2.568 -0.0351 -0.1535 -0.0399
 4408W        W23942  17.188   2.240   1.290  0.0021 -0.1147  0.1571
 4409W        W23943   0.251   2.291   2.865 -0.1681 -0.0323 -0.1097
 4410W        W23944  16.820  16.817  11.374 -0.0589 -0.0957 -0.1368
 4411W        W23945  17.228   9.897   2.738 -0.3673 -0.1773 -0.4065
 4412W        W23946   3.928   2.688  14.574 -0.1588 -0.0347 -0.2829
 4413W        W23947  17.329   1.387   1.161 -0.1278  0.1961  0.2409
 4414W        W23948  10.032  12.350   3.615 -0.1619  0.0109  0.2340
 4415W        W23949  13.056  14.623  11.005 -0.3088 -0.2398  0.0758
 4416W        W23950  14.078   8.486  12.709  0.2005 -0.0199 -0.1562
 4417W        W23951   5.620  18.675   0.076 -0.1773  0.0530 -0.2116
 4418W        W23952   6.035  17.216   3.228 -0.0734 -0.0684  0.0538
 4419W        W23953  13.361  17.840   1.025 -0.0344  0.1225 -0.0827
 4420W        W23954   8.777   2.134   0.463 -0.0883  0.0209  0.1067
 4421W        W23955   9.294   7.833   4.425  0.0331  0.0968  0.0242
 4422W        W23956   5.178   1.771  11.575 -0.2726 -0.2184  0.1356
 4423W        W23957  13.942  17.010   0.749 -0.1080  0.0014  0.1827
 4424W        W23958   9.069   9.491  12.073  0.3964 -0.0934  0.3939
 4425W        W23959  18.539  15.113  11.658 -0.0816  0.2571  0.0821
 4426W        W23960  16.817   0.779  14.400  0.0582  0.3536  0.5981
 4427W        W23961   1.722   5.645   0.724 -0.1802  0.0731 -0.2137
 4428W        W23962  15.968   9.817   1.750  0.0632 -0.1057 -0.0955
 4429W        W23963   7.235   4.228   3.825 -0.0003  0.1199  0.4918
 4430W        W23964  16.304   6.567   1.926 -0.0288 -0.1921 -0.0140
 4431W        W23965  13.268  17.590   1.829  0.2490  0.0051 -0.1286
 4432W        W23966   4.217  14.997  13.755 -0.0144  0.2394  0.2473
 4433W        W23967  15.849  14.131   0.581  0.3034  0.1642  0.0939
 4434W        W23968  18.530  15.942   1.316  0.2198  0.3264  0.0944
 4435W        W23969   2.728  14.808  12.947 -0.2425  0.0307  0.0926
 4436W        W23970  14.827   2.479   3.403  0.0259  0.0267  0.0767
 4437W        W23971   1.285  11.684   1.859  0.2603  0.1218 -0.0221
 4438W        W23972   8.699   8.277   3.268  0.1171 -0.1629 -0.1774
 4439W        W23973  11.614  17.445  13.682  0.2557  0.1861  0.2023
 4440W        W23974   1.081  10.313   1.202 -0.0442  0.1968 -0.5845
 4441W        W23975   0.623  12.843   3.248 -0.0530 -0.0653 -0.2670
 4442W        W23976  11.933  16.248   0.372 -0.1378  0.0465  0.3273
 4443W        W23977  14.907  17.983  13.474  0.1215  0.0942  0.0416
 4444W        W23978   4.894  14.143   3.834  0.0314 -0.1296  0.2541
 4445W        W23979   8.577   0.349  12.152 -0.0286  0.1655 -0.1154
 4446W        W23980   9.351  17.711  14.314 -0.2565 -0.0160 -0.0019
 4447W        W23981   7.440  13.544   3.374 -0.0611 -0.0597  0.0883
 4448W        W23982  15.225   7.999  12.121  0.1123 -0.0298 -0.2591
 4449W        W23983   6.905   0.407   2.630 -0.0669 -0.0638 -0.0117
 4450W        W23984   9.132  12.927  14.500 -0.1613  0.0903 -0.2654
 4451W        W23985   0.608   4.441  11.399 -0.1325 -0.0940 -0.1396
 4452W        W23986  17.389   4.030   4.480  0.2417 -0.0280 -0.0811
 4453W        W23987  18.222   1.859  13.530 -0.0675 -0.0690 -0.2797
 4454W        W23988  13.010  17.823   0.082 -0.0512  0.0701  0.1681
 4455W        W23989  12.560   9.616  12.685  0.1750  0.0385  0.0768
 4456W        W23990  18.819  15.175  13.957  0.1815  0.4901 -0.0552
 4457W        W23991   2.651  10.567  12.550 -0.0882 -0.1446  0.2827
 4458W        W23992   2.985  10.277  11.981  0.1013 -0.2787  0.3404
 4459W        W23993  12.808   6.182   1.511  0.0717 -0.0571 -0.4045
 4460W        W23994   9.957  15.659   1.185  0.1634  0.0781 -0.0615
 4461W        W23995   9.209   4.977   1.270 -0.1787  0.0081  0.0037
 4462W        W23996  10.093   2.000   1.696 -0.2367 -0.0233  0.2848
 4463W        W23997   8.154   9.094   2.861  0.0018  0.0235 -0.0997
 4464W        W23998  17.739  13.696   2.209 -0.0167  0.0717 -0.1453
 4465W        W23999  13.735  14.963  11.715 -0.1478  0.3285  0.0252
 4466W        W24000   1.464   6.305  14.060 -0.3396  0.1139 -0.1196
 4467W        W24001   3.321  16.885  13.518 -0.2661  0.1711  0.1260
 4468W        W24002  17.759   4.833   2.329 -0.2170 -0.2471  0.2733
 4469W        W24003  12.488  12.689   0.411  0.2616  0.0797 -0.0354
 4470W        W24004  12.387   5.422  11.329  0.2239  0.2803  0.1970
 4471W        W24005  17.524  11.805  14.770 -0.0641  0.3433 -0.0953
 4472W        W24006   6.512  10.944  13.377 -0.3876 -0.2812  0.2256
 4473W        W24007  13.272   6.129  14.056 -0.0369  0.1143 -0.2454
 4474W        W24008   2.711  18.323   1.963  0.0299 -0.1418 -0.0533
 4475W        W24009   1.809   2.384   3.593  0.0372 -0.3469 -0.2064
 4476W        W24010  13.682   8.324  10.785  0.1234  0.0282 -0.0046
 4477W        W24011  12.069   4.504  11.413 -0.0861 -0.3518  0.0201
 4478W        W24012  14.046  11.558  11.629 -0.1355 -0.1651  0.1023
 4479W        W24013  18.407   2.566  10.593  0.3165  0.0432 -0.2931
 4480W        W24014  18.192   5.460  13.705  0.1430 -0.0979 -0.1100
 4481W        W24015  12.403   6.197   1.849 -0.0426 -0.0462 -0.0473
 4482W        W24016  11.224   9.063  10.848 -0.0661  0.0781  0.1314
 4483W        W24017   6.079   4.573   2.051 -0.0740 -0.0284  0.1018
 4484W        W24018  10.116  17.082   3.686  0.1121  0.0216  0.1461
 4485W        W24019   6.216   8.278   0.835 -0.2307 -0.0203 -0.4350
 4486W        W24020   5.431  15.874  11.766 -0.1137 -0.1090 -0.1041
 4487W        W24021  11.571  17.130   2.688 -0.0678  0.0162 -0.4781
 4488W        W24022   8.368   9.620   0.379  0.2047  0.0210  0.0219
 4489W        W24023   2.597   1.984  13.183 -0.3822  0.1281 -0.0508
 4490W        W24024  18.473  11.099   0.772  0.0734  0.1992 -0.2009
 4491W        W24025   3.410   5.604   3.509  0.0855 -0.1769 -0.0609
 4492W        W24026  16.544  12.502  11.859 -0.0541 -0.2604 -0.0755
 4493W        W24027   6.769  10.935   0.715  0.2980  0.2497  0.1745
 4494W        W24028  12.594  18.811   2.783 -0.0814  0.0756  0.1820
 4495W        W24029   2.556   4.888  10.938 -0.2300  0.1938  0.1230
 4496W        W24030   0.447   6.899   3.964  0.1711 -0.0850 -0.0375
 4497W        W24031   6.004   2.729   4.171  0.1342  0.0281  0.1328
 4498W        W24032  16.231  19.056  10.731  0.1694 -0.1058  0.1178
 4499W        W24033   1.920  10.437   0.093 -0.0877 -0.2446  0.2730
 4500W        W24034  12.746  14.779   3.457  0.0364  0.2796 -0.1753
 4501W        W24035   0.302  12.495  11.084  0.0927 -0.4089 -0.1952
 4502W        W24036   4.861  14.962  13.233 -0.0595  0.0219  0.1247
 4503W        W24037  17.320   1.423  13.939 -0.0465 -0.3509  0.1195
 4504W        W24038  18.488  11.043   0.012 -0.1835 -0.1193  0.2949
 4505W        W24039  13.019  13.321   0.998  0.2763  0.2006 -0.1597
 4506W        W24040  15.467  18.302  10.939 -0.1350  0.1512 -0.0089
 4507W        W24041  16.442  17.053  11.926 -0.0907 -0.0082 -0.0259
 4508W        W24042  11.509  11.672  12.933  0.0455 -0.0142  0.0739
 4509W        W24043  10.542  11.932  13.528  0.2042 -0.2997 -0.0226
 4510W        W24044  15.633  14.051   4.929 -0.2509  0.1799  0.1077
 4511W        W24045   6.145   1.061  13.943 -0.3715 -0.0176 -0.0828
 4512W        W24046  16.184  16.467  14.240 -0.0132  0.1037  0.2398
 4513W        W24047   6.652   8.798  14.738  0.1830 -0.0394 -0.1600
 4514W        W24048  16.674   2.093   2.470  0.1170  0.1533  0.2019
 4515W        W24049   4.845   8.598  14.353 -0.2048  0.1897  0.2342
 4516W        W24050  13.970  12.585   2.095 -0.4743  0.2260 -0.0271
 4517W        W24051   8.442  11.343  10.465 -0.1315 -0.2177 -0.2088
 4518W        W24052   9.321  12.281   3.041  0.0884  0.1204  0.0575
 4519W        W24053   9.788   0.583  12.945 -0.2817  0.1703  0.1186
 4520W        W24054   1.686  17.134  12.202 -0.1388 -0.0616  0.5097
 4521W        W24055   2.648  14.073  13.803  0.1519  0.5960  0.2824
 4522W        W24056  17.175   8.080  12.169 -0.0944  0.0605  0.2275
 4523W        W24057   6.089  12.265  10.908 -0.1889 -0.0568 -0.0310
 4524W        W24058  14.057   3.423  13.456 -0.1699 -0.0855 -0.0882
 4525W        W24059  17.002   7.164  10.417  0.0922  0.0399  0.1471
 4526W        W24060  17.881   3.884   4.248  0.0413  0.1798 -0.1652
 4527W        W24061   0.199   9.623  12.696  0.0238  0.0946  0.0438
 4528W        W24062  11.580  12.415  12.579 -0.0471  0.3568  0.1305
 4529W        W24063  18.297  17.070   2.142 -0.1188  0.0131 -0.2073
 4530W        W24064  15.496  12.366   0.981  0.0216  0.1083 -0.0714
 4531W        W24065   9.650  18.762   2.344 -0.0109  0.1384 -0.1267
 4532W        W24066   9.210  11.461   1.208  0.0675 -0.5001  0.0848
 4533W        W24067   5.256   7.061  13.029 -0.2394  0.0416 -0.1803
 4534W        W24068   4.258  19.001   0.408  0.0543  0.1948  0.2453
 4535W        W24069   2.315  16.607   3.686  0.2263  0.4395 -0.1925
 4536W        W24070  13.754  16.923   2.828 -0.0694 -0.1729  0.2585
 4537W        W24071  10.648   9.418  10.796 -0.0209 -0.0410 -0.1884
 4538W        W24072  10.538  11.559   3.817  0.1192  0.0064 -0.0266
 4539W        W24073  18.347  18.590   0.528 -0.0140  0.3039  0.2745
 4540W        W24074  17.772   0.305   1.185  0.1922  0.3002  0.0181
 4541W        W24075  10.665  15.865   3.211  0.0647 -0.5871  0.2240
 4542W        W24076   0.477  17.201  10.738  0.1545 -0.1680  0.2206
 4543W        W24077   3.076  10.153   2.791  0.0336  0.1696 -0.3693
 4544W        W24078   9.879  11.362   1.796  0.0426  0.0749 -0.1387
 4545W        W24079   0.747  18.226   4.256 -0.1053 -0.3127 -0.1467
 4546W        W24080   3.510  15.913  12.945  0.1477 -0.0572 -0.0963
 4547W        W24081   7.688   2.653  13.659 -0.0667 -0.1554  0.2122
 4548W        W24082   8.882  17.227   4.438  0.1637  0.0176  0.1309
 4549W        W24083   5.707  14.430  12.642  0.0550  0.0150  0.4858
 4550W        W24084   2.542  13.268  13.751 -0.1285  0.1179 -0.1483
 4551W        W24085   4.598  15.663   3.783 -0.2641 -0.1963 -0.1624
 4552W        W24086   8.971  15.034   3.891 -0.0447  0.0444  0.1539
 4553W        W24087   8.755  17.629  12.891 -0.2498 -0.1760  0.1406
 4554W        W24088   8.274  11.877   3.663  0.0144 -0.0085 -0.1029
 4555W        W24089  13.355   6.862   3.682 -0.1380 -0.3690  0.1568
 4556W        W24090  12.960  18.471  14.270  0.1777 -0.0125 -0.3781
 4557W        W24091  13.336  14.795   2.508 -0.2438 -0.0755  0.0500
 4558W        W24092   2.139   6.158  13.571  0.1618 -0.0404  0.0026
 4559W        W24093  17.086   6.016   5.212 -0.0000 -0.1636  0.3918
 4560W        W24094   5.751   2.527  13.504  0.1492  0.1417 -0.1362
 4561W        W24095  14.903  19.006  10.653 -0.0169  0.2906 -0.0390
 4562W        W24096  11.437  17.391  12.274  0.0254  0.1232 -0.0848
 4563W        W24097   0.008  14.398  11.831 -0.0647  0.3176 -0.3844
 4564W        W24098  15.838  17.007  10.561 -0.2187  0.1827 -0.0276
 4565W        W24099  13.836   0.519   3.824  0.3931  0.2714 -0.2652
 4566W        W24100  19.114   9.719   1.146 -0.1180 -0.2416  0.0678
 4567W        W24101  10.042  12.910   4.316 -0.1264  0.2361 -0.2027
 4568W        W24102   0.031  11.870  11.782 -0.0396 -0.1401  0.0008
 4569W        W24103  11.941  11.285   2.625 -0.2271 -0.1844 -0.1289
 4570W        W24104   0.543   9.115  11.086 -0.1531 -0.1450 -0.0105
 4571W        W24105   3.810  19.049   3.799 -0.0647  0.0926 -0.1717
 4572W        W24106  17.669  18.058  10.370  0.1822 -0.1505  0.1572
 4573W        W24107  15.381   0.358   0.120  0.3238  0.0556 -0.1879
 4574W        W24108   2.250   2.076  10.041  0.1183  0.1710  0.0939
 4575W        W24109  16.520   2.183   0.563  0.0980 -0.0257  0.0324
 4576W        W24110   7.390  11.679  10.645 -0.0038  0.3187 -0.0924
 4577W        W24111   8.243  10.974   0.512  0.2221  0.2793 -0.2397
 4578W        W24112   3.980   8.081   9.793 -0.2169 -0.3486  0.0221
 4579W        W24113   8.209   1.977   1.344 -0.0210  0.3488  0.0666
 4580W        W24114   6.838  14.113  11.780 -0.0244  0.1507  0.0674
 4581W        W24115   0.570  14.983   4.035  0.0766  0.1301 -0.0822
 4582W        W24116   3.427   1.128  10.950  0.2816 -0.0922  0.0066
 4583W        W24117   5.548  12.672  13.860 -0.1852  0.1355  0.1470
 4584W        W24118  10.811   9.219  12.778 -0.2172 -0.1046  0.2707
 4585W        W24119  18.607  16.657  10.983 -0.0234 -0.0732 -0.0291
 4586W        W24120   8.209   3.324  10.940 -0.1481  0.0458 -0.0614
 4587W        W24121  17.033   1.676   0.288 -0.0552 -0.2521 -0.1729
 4588W        W24122  14.455   6.175   0.885 -0.2871  0.1636  0.0775
 4589W        W24123   0.674  17.449  12.085  0.2288  0.0268 -0.0379
 4590W        W24124   1.325  18.688   9.721  0.1613 -0.0526 -0.1185
 4591W        W24125  11.031   0.540   5.680  0.0298 -0.0693  0.1356
 4592W        W24126  13.989  16.712  12.141 -0.0899 -0.1329 -0.2117
 4593W        W24127  12.100  10.054  11.290 -0.2140 -0.2156 -0.2840
 4594W        W24128  14.467   5.606  13.233 -0.1354 -0.0232 -0.0810
 4595W        W24129   8.611  18.943   2.027 -0.2154 -0.2964 -0.2596
 4596W        W24130   8.101   9.233  13.309  0.0509 -0.0705  0.3253
 4597W        W24131   5.748   2.781   2.267 -0.2249 -0.0867 -0.2981
 4598W        W24132   9.033  12.431  14.012 -0.0008 -0.1842  0.0842
 4599W        W24133  18.748   6.728  14.016 -0.2065 -0.2415 -0.2155
 4600W        W24134  17.139   7.577   0.159  0.1759  0.3456 -0.1020
 4601W        W24135  14.270   4.191   2.068 -0.0949  0.1513 -0.4621
 4602W        W24136  18.393  11.388   3.071  0.3019  0.1034  0.2602
 4603W        W24137   6.311   0.198  14.760 -0.0900 -0.2493 -0.0744
 4604W        W24138   5.414   4.130   3.176  0.1886  0.0390 -0.1064
 4605W        W24139   3.223   6.099   1.631 -0.0314 -0.2981 -0.2893
 4606W        W24140  18.569   2.552  12.939  0.0332 -0.1265  0.0514
 4607W        W24141   0.257  12.752  11.522 -0.0618  0.0610  0.0895
 4608W        W24142   4.612  15.305  13.552 -0.0231  0.0037  0.2899
 4609W        W24143  13.382   3.849  14.495 -0.0164 -0.0007 -0.2556
 4610W        W24144   1.074  17.573   3.493  0.0624  0.2075  0.2285
 4611W        W24145  15.333  18.967  12.437 -0.2611  0.1447  0.2427
 4612W        W24146  13.663   5.971  14.709 -0.2118  0.0767  0.0586
 4613W        W24147  15.476  13.057  13.782 -0.0404  0.2140 -0.1550
 4614W        W24148  12.972  18.883  14.631 -0.2489 -0.2326 -0.2148
 4615W        W24149  10.295   8.500  13.008 -0.0230  0.2321  0.1881
 4616W        W24150   5.727   9.936  13.780  0.2146  0.1492 -0.0683
 4617W        W24151  12.553  17.491   4.310 -0.0329 -0.3381 -0.0031
 4618W        W24152  15.727  16.014  10.434  0.0788 -0.3024  0.0755
 4619W        W24153  18.785   6.865   3.851 -0.2445  0.2713 -0.2510
 4620W        W24154   7.707   6.360   3.586 -0.0164  0.0621 -0.0934
 4621W        W24155  18.031  17.715  12.237  0.1750 -0.1561 -0.2876
 4622W        W24156  18.905  11.408  13.925 -0.3097  0.3287 -0.1656
 4623W        W24157  13.851   1.461   1.199 -0.1136 -0.0831 -0.1846
 4624W        W24158  15.622   5.660  14.356 -0.1095 -0.1473 -0.1807
 4625W        W24159   0.879   7.468  10.621  0.0466 -0.0537  0.1251
 4626W        W24160  13.133   1.435  12.068 -0.0478 -0.1690 -0.0467
 4627W        W24161  13.137  18.729   4.787 -0.1047  0.0013 -0.2315
 4628W        W24162  10.912   4.488  14.343 -0.1750  0.2495 -0.2527
 4629W        W24163  15.951   8.003  12.561 -0.2429 -0.2785  0.0231
 4630W        W24164  17.877  16.264  13.514  0.0814  0.2366  0.0090
 4631W        W24165   2.113   6.447   0.631  0.1082  0.0165 -0.0983
 4632W        W24166  16.421   5.843  13.997 -0.0848  0.0196  0.2362
 4633W        W24167   3.044  16.249   0.724  0.1424  0.0423  0.2533
 4634W        W24168  12.229   0.215  13.311  0.0461 -0.0191  0.0424
 4635W        W24169   1.519   2.041  14.558  0.2261  0.1233  0.0756
 4636W        W24170  12.401   6.994   0.993 -0.1985  0.3677 -0.0770
 4637W        W24171   8.641  13.128   2.410 -0.0490  0.1218  0.4952
 4638W        W24172  12.403   0.700   2.874 -0.0476 -0.0935  0.1480
 4639W        W24173   7.095  12.736   3.755  0.1442 -0.0423 -0.0706
 4640W        W24174  10.881   7.247  11.247  0.1782 -0.3503  0.1934
 4641W        W24175   3.223  17.799  14.383 -0.1010 -0.3385 -0.2799
 4642W        W24176  16.358   3.632  11.153 -0.1248 -0.0656 -0.0570
 4643W        W24177   0.679   0.417   2.442  0.0294 -0.1017  0.0418
 4644W        W24178   2.111  12.375   3.800  0.3633  0.0663 -0.2006
 4645W        W24179   9.227  18.919   4.452 -0.0620 -0.0602 -0.1806
 4646W        W24180   3.795  15.880   4.058  0.0030  0.3270  0.1336
 4647W        W24181   6.633  10.067   1.645  0.0617  0.2279  0.0916
 4648W        W24182  16.475   8.177   3.733  0.1574  0.1411 -0.0881
 4649W        W24183  16.797  10.676  12.908  0.2361 -0.1255  0.0432
 4650W        W24184  15.160   2.923  14.839  0.2645 -0.0114 -0.0797
 4651W        W24185  14.096   3.835   9.628  0.1242  0.2466  0.0567
 4652W        W24186   7.930   1.800   4.216 -0.0170 -0.1310  0.2367
 4653W        W24187  16.181  15.043  13.177  0.1734  0.1289  0.1070
 4654W        W24188   5.445   5.226   3.359 -0.0242 -0.2742 -0.1689
 4655W        W24189   8.202  10.381   1.428  0.1263 -0.2833  0.1021
 4656W        W24190  14.494   2.146  11.140  0.1230 -0.0350  0.0732
 4657W        W24191  16.211  13.787  10.799  0.4347 -0.2603 -0.2431
 4658W        W24192   9.303  11.867   3.582  0.1571 -0.0423 -0.1552
 4659W        W24193  15.651   4.360   9.778 -0.1579 -0.2202  0.1025
 4660W        W24194  10.505   8.957   1.878 -0.1562  0.1917 -0.0856
 4661W        W24195  14.834  11.669   1.789 -0.2950  0.1170  0.3477
 4662W        W24196   3.811  18.216  12.785 -0.0268 -0.1181 -0.0832
 4663W        W24197  13.465   4.892  14.094 -0.1216  0.0641  0.2655
 4664W        W24198   7.777   0.653  14.185 -0.0102 -0.1321 -0.2089
 4665W        W24199   0.845   8.967   2.301  0.1992 -0.4049  0.0278
 4666W        W24200  14.963  10.073  12.869 -0.1304 -0.0686  0.2671
 4667W        W24201  14.892  16.363  14.601 -0.1388  0.0744  0.1657
 4668W        W24202  13.199  12.554  10.398 -0.2170 -0.1468 -0.2342
 4669W        W24203  16.041  17.029   2.587 -0.1065  0.0706 -0.0945
 4670W        W24204  16.538   3.542  11.685  0.0429  0.0930  0.1526
 4671W        W24205  11.568  11.124   3.937  0.0352 -0.2189  0.2030
 4672W        W24206   7.905   0.977  11.357  0.2443  0.1527 -0.0528
 4673W        W24207  18.366   6.146  14.466 -0.0932  0.0587  0.0056
 4674W        W24208   2.154   0.225  13.547 -0.2434 -0.1480 -0.0377
 4675W        W24209   3.973   5.131  13.220  0.1008  0.2086 -0.0790
 4676W        W24210   2.698   1.855  14.742 -0.0132  0.0460  0.0720
 4677W        W24211   0.818  15.641  11.005  0.1735  0.1087  0.1037
 4678W        W24212  12.485  19.121   2.433 -0.1222  0.2380  0.1916
 4679W        W24213   9.366  10.322  11.603  0.1936  0.3047  0.0053
 4680W        W24214  13.380  13.681   0.158 -0.0204 -0.1672  0.2722
 4681W        W24215   6.154  15.082   3.396 -0.0105 -0.0989  0.1558
 4682W        W24216  15.888  12.823   4.374 -0.3191  0.2338 -0.0062
 4683W        W24217   1.214  10.617  14.247 -0.1765  0.0247  0.2646
 4684W        W24218   2.735   8.055  13.056  0.0157  0.2292  0.3183
 4685W        W24219   3.592   0.385   3.776  0.0864  0.0536  0.1345
 4686W        W24220  17.893   7.457  10.773  0.1268 -0.1295 -0.2696
 4687W        W24221   3.959   6.633  12.914 -0.2029 -0.3764 -0.0389
 4688W        W24222  16.733   4.759  12.416 -0.1324  0.0453  0.2032
 4689W        W24223  17.377   1.712   3.856  0.2101  0.1456  0.3920
 4690W        W24224  17.110   6.442   1.330 -0.3045 -0.0382 -0.1811
 4691W        W24225  11.356   4.073  10.878  0.1240 -0.1364  0.1553
 4692W        W24226   2.042   2.252   3.163 -0.2193 -0.0033  0.0464
 4693W        W24227  12.778  11.230  14.184 -0.0050 -0.1210  0.1838
 4694W        W24228  17.934  17.076  11.670  0.2692 -0.1887 -0.1095
 4695W        W24229  15.417  16.984   3.349 -0.1071 -0.0680 -0.4700
 4696W        W24230  11.058   1.439   3.608 -0.0546  0.2753 -0.0801
 4697W        W24231  17.911  15.923  13.947  0.3959 -0.4223 -0.0321
 4698W        W24232   7.741   9.083   9.793  0.0349  0.2040 -0.0104
 4699W        W24233  14.092  13.706  11.021 -0.0748 -0.0955 -0.1790
 4700W        W24234  14.486   6.521   3.069 -0.0644 -0.1224  0.0075
 4701W        W24235  12.623  12.715  12.618  0.0952 -0.2177  0.0396
 4702W        W24236  14.585   4.340   2.765  0.1138 -0.1914 -0.4416
 4703W        W24237   7.648   4.528   3.458  0.0385 -0.1733 -0.2096
 4704W        W24238  14.163  16.195  12.308 -0.0048 -0.4664 -0.2492
 4705W        W24239   7.820   7.999  11.625 -0.0474  0.0058 -0.0169
 4706W        W24240  18.641  12.113  14.511  0.0839 -0.2204  0.1927
 4707W        W24241   8.292  12.910   3.533  0.1562 -0.2506 -0.1030
 4708W        W24242  17.999   2.999  10.744  0.2150 -0.0805  0.1180
 4709W        W24243  12.295   7.343  12.048 -0.1571  0.1947  0.1972
 4710W        W24244  18.054  15.663   0.736  0.0834 -0.1028  0.0400
 4711W        W24245  11.526  14.026  12.841  0.1167  0.1944  0.0164
 4712W        W24246  11.752  12.727   3.477 -0.1116  0.2510  0.0118
 4713W        W24247   5.591   9.783   2.162  0.0292  0.1883 -0.1029
 4714W        W24248  11.267   2.134   2.693  0.0698 -0.0328  0.0350
 4715W        W24249   3.263  18.782   4.592  0.1208 -0.0817  0.0977
 4716W        W24250  13.825   9.862  11.624  0.0104 -0.1811 -0.2732
 4717W        W24251  15.495  11.024  11.865  0.1195 -0.0506  0.0528
 4718W        W24252   4.462  18.777   4.249 -0.1651 -0.1177  0.2609
 4719W        W24253  12.582   3.811   3.096 -0.0542  0.2590 -0.1093
 4720W        W24254  15.842   2.598  12.303  0.1362 -0.2827  0.0469
 4721W        W24255   7.232  14.868  11.376  0.0418 -0.2668 -0.0146
 4722W        W24256  15.884  17.777  11.102  0.2588  0.0339 -0.1275
 4723W        W24257  16.458  16.733  14.665 -0.0200 -0.4040 -0.0864
 4724W        W24258  10.860   3.911  11.543  0.2295  0.2154  0.0634
 4725W        W24259  13.908  18.223  13.044 -0.3237 -0.1801 -0.2056
 4726W        W24260  10.545  13.110   2.276  0.1202 -0.1076  0.0119
 4727W        W24261   9.366   6.037  11.406  0.1176 -0.3238  0.3051
 4728W        W24262   1.659  16.675   3.693  0.0895  0.0604  0.3029
 4729W        W24263  10.049   1.419   3.999  0.1400  0.0923 -0.3441
 4730W        W24264  15.044  10.000   1.570 -0.0428  0.2626  0.2939
 4731W        W24265   1.877  15.521  14.157  0.1860 -0.1290  0.0498
 4732W        W24266   3.589   5.963   1.987  0.1077 -0.1336  0.0478
 4733W        W24267   8.486   3.119   0.807 -0.0235  0.3195 -0.2029
 4734W        W24268   2.206   6.826   0.991 -0.0027  0.0562 -0.0896
 4735W        W24269  14.967  12.421   3.532  0.2671  0.3822  0.7936
 4736W        W24270   8.114  11.302  12.489  0.0208 -0.1202 -0.0947
 4737W        W24271  18.927   8.692  12.409 -0.1539 -0.2349  0.0253
 4738W        W24272  12.142  17.312  13.859 -0.0316  0.0532  0.1874
 4739W        W24273  11.051  10.130  13.170 -0.1299 -0.2033 -0.1278
 4740W        W24274  15.397  10.280  12.420 -0.0594 -0.0322  0.0423
 4741W        W24275  16.313  10.785  10.869 -0.2139 -0.5265  0.0052
 4742W        W24276  14.715   6.995   3.155  0.0107  0.0114 -0.2617
 4743W        W24277   9.859   3.273  11.755 -0.2335  0.0822  0.2398
 4744W        W24278   9.857  13.376   3.820 -0.1678 -0.2102 -0.5189
 4745W        W24279   4.673   6.506  11.883 -0.0558  0.1682  0.0422
 4746W        W24280  13.720   5.349  14.151  0.0156  0.1134 -0.1025
 4747W        W24281   1.048  15.177  12.327 -0.3536 -0.3453  0.2441
 4748W        W24282  13.837   9.222  13.844  0.1388  0.1299  0.2604
 4749W        W24283  18.302  16.845  14.568 -0.0058 -0.0245 -0.2005
 4750W        W24284  12.956   1.948   0.537 -0.0509 -0.0725 -0.3844
 4751W        W24285  10.602  10.425  14.619  0.1969 -0.0502 -0.1836
 4752W        W24286   3.779   5.104   2.419 -0.0906 -0.2109 -0.1176
 4753W        W24287   4.721   4.602  11.015  0.3205  0.0025 -0.1165
 4754W        W24288  15.700   8.150  12.150 -0.1401 -0.1741  0.1091
 4755W        W24289  15.061   6.130   3.746 -0.0718 -0.2169 -0.1660
 4756W        W24290   8.829  10.223   3.981  0.0021  0.1246  0.0231
 4757W        W24291   1.043   2.893  11.273 -0.2886  0.3998 -0.1154
 4758W        W24292   0.332  12.844  13.776  0.0344  0.1964  0.4408
 4759W        W24293   0.121  12.103   0.405 -0.0144 -0.1040 -0.1477
 4760W        W24294  13.335  16.528  12.832  0.1613 -0.0207 -0.0975
 4761W        W24295  17.120  12.943  11.109  0.1792 -0.1203 -0.1389
 4762W        W24296   2.321   3.688   3.277 -0.4309 -0.1089 -0.0974
 4763W        W24297   1.512  17.519  11.791  0.1196  0.0610 -0.0613
 4764W        W24298  17.762   0.344   5.132 -0.1262 -0.1989 -0.1278
 4765W        W24299  12.045  10.642   3.361 -0.2547 -0.0033 -0.1571
 4766W        W24300   5.858   7.729   5.003 -0.0574 -0.1196  0.2669
 4767W        W24301  12.163   9.335  12.610  0.2200 -0.1321  0.2454
 4768W        W24302   1.909  18.046   1.834  0.1410  0.0949 -0.0380
 4769W        W24303   4.933  19.001  11.854  0.2619 -0.0200 -0.3120
 4770W        W24304   0.144   7.997   0.062 -0.4971 -0.2700  0.5004
 4771W        W24305  10.048  18.224  13.014 -0.0511  0.0414  0.2341
 4772W        W24306  18.064  12.739   0.650  0.1187  0.1193 -0.0682
 4773W        W24307  14.292  13.742  13.359 -0.1759  0.2331 -0.1673
 4774W        W24308  12.064  12.717   3.869  0.0256 -0.1571  0.1894
 4775W        W24309  13.078   8.512  11.544 -0.0039  0.0131  0.1030
 4776W        W24310   2.841   7.955   1.252  0.0460  0.2095  0.1589
 4777W        W24311   9.038  11.581   3.985 -0.2923  0.1412 -0.1726
 4778W        W24312   2.955  16.380   3.013  0.4964 -0.3053  0.3689
 4779W        W24313  14.701   1.927  12.895  0.1759 -0.1882 -0.3794
 4780W        W24314   6.473   5.895   3.775 -0.2074 -0.1561 -0.1553
 4781W        W24315  14.463   2.635   1.156 -0.0545 -0.0672  0.0291
 4782W        W24316   9.863  17.805  11.724  0.0316 -0.2693 -0.0261
 4783W        W24317  16.828   9.123  12.480 -0.1760 -0.0011  0.1967
 4784W        W24318  13.146  13.997  13.230 -0.2390  0.3177  0.1755
 4785W        W24319   2.708  17.312  12.642  0.2423 -0.3935  0.2129
 4786W        W24320   2.352   3.486  12.693 -0.1856  0.0823 -0.2542
 4787W        W24321   6.903  13.881   4.479  0.3978  0.0316 -0.2316
 4788W        W24322  14.719  11.172   5.319  0.0744  0.0354  0.2828
 4789W        W24323  11.093  16.148   0.399  0.0471 -0.1986  0.0740
 4790W        W24324   7.950  10.715   4.047 -0.1339 -0.1500  0.2227
 4791W        W24325  12.824  13.786   1.264 -0.5350  0.0499 -0.1664
 4792W        W24326  17.910  18.295   0.042 -0.1546  0.0651 -0.1247
 4793W        W24327  10.355   6.555  11.512 -0.2345  0.0253 -0.1341
 4794W        W24328  17.385  16.468   0.680 -0.0105 -0.3375  0.2781
 4795W        W24329  11.901   8.508  10.798 -0.3167 -0.1871 -0.0913
 4796W        W24330   8.746   2.151   3.186  0.0500 -0.1733 -0.0784
 4797W        W24331  18.141   9.488   0.981  0.0780 -0.1292 -0.1299
 4798W        W24332   1.470   0.412  12.423  0.0167 -0.0323  0.0701
 4799W        W24333   0.120   1.131   0.130 -0.0567  0.0522 -0.1676
 4800W        W24334  18.707   6.194  11.764 -0.0291 -0.0237  0.1049
 4801W        W24335  10.849   7.201  12.144  0.0556  0.2357  0.1247
 4802W        W24336  15.427   5.642  14.821  0.3602 -0.0399  0.0084
 4803W        W24337   3.090  12.528   2.263 -0.1831  0.0041  0.2878
 4804W        W24338   3.695   3.662  10.166 -0.2335 -0.0638 -0.0255
 4805W        W24339  17.793   6.418   2.900 -0.0776  0.1140  0.2977
 4806W        W24340  10.567  13.991   0.859 -0.0185  0.3578  0.0499
 4807W        W24341   2.277  11.984  11.561  0.1027 -0.1072 -0.0564
 4808W        W24342   1.758  16.794   5.071  0.2530 -0.1561 -0.1343
 4809W        W24343   9.919   6.038   1.689 -0.0952 -0.1195  0.2746
 4810W        W24344  15.467  17.745   0.012 -0.0323 -0.0890 -0.0686
 4811W        W24345  14.854  12.484  13.514 -0.3055  0.2097 -0.1513
 4812W        W24346  11.321  12.797  13.823  0.3425  0.0556  0.0085
 4813W        W24347   6.566   6.853   3.153 -0.1194  0.1527 -0.0153
 4814W        W24348  18.144   0.597  13.895  0.1505  0.3095 -0.0314
 4815W        W24349   2.629   0.053  12.335  0.0769  0.2312 -0.0870
 4816W        W24350  12.670  15.290   0.866 -0.1723  0.3447  0.0966
 4817W        W24351   4.084   3.985   0.117 -0.1581 -0.1771 -0.2547
 4818W        W24352   6.017   6.408   0.143 -0.2625  0.1600  0.1039
 4819W        W24353  18.057  18.577   1.548  0.1817 -0.0253  0.0195
 4820W        W24354  15.261  10.245   0.380 -0.2580 -0.0861 -0.0020
 4821W        W24355   6.040  18.451  11.821  0.2156  0.1700 -0.3886
 4822W        W24356   5.668   3.778  11.262 -0.4232  0.1951  0.0426
 4823W        W24357  11.994  14.105   5.576  0.2713  0.1209  0.0232
 4824W        W24358   1.490   4.487  11.600  0.0741  0.1384  0.0349
 4825W        W24359   8.696  15.571   2.624  0.1422  0.1714 -0.1969
 4826W        W24360  12.441  11.773  13.387 -0.2243  0.1432 -0.1245
 4827W        W24361  18.037   8.619   2.441  0.4606 -0.0493  0.2367
 4828W        W24362  11.935   0.754   3.174  0.0397 -0.0643 -0.0468
 4829W        W24363   3.550  18.149   2.433  0.0094 -0.2135  0.1387
 4830W        W24364   7.737   5.560  12.144  0.0938  0.0429  0.2816
 4831W        W24365  12.855   6.206  12.748  0.1364  0.1704  0.4635
 4832W        W24366   6.712  17.943  13.057 -0.1432 -0.4713 -0.4218
 4833W        W24367   7.140  12.566  12.999  0.1895  0.2652  0.1511
 4834W        W24368   4.104   6.529   3.801  0.0425  0.0898  0.2743
 4835W        W24369  16.324   1.119  14.238  0.0670 -0.0888 -0.0298
 4836W        W24370  12.447  16.590  13.549  0.0354 -0.0613 -0.1310
 4837W        W24371  18.107   2.526  10.951  0.0031 -0.1486 -0.1253
 4838W        W24372   2.119  15.218  14.486  0.1144  0.1162 -0.1158
 4839W        W24373   3.511  12.277  10.506 -0.3081  0.0973  0.0836
 4840W        W24374   1.468   2.385   0.078  0.2686  0.1189 -0.3137
 4841W        W24375  18.375   6.876  12.383  0.0736 -0.0748 -0.2366
 4842W        W24376  17.575  17.607   9.507  0.3137 -0.3251  0.0810
 4843W        W24377  14.892   9.026  13.869  0.1794 -0.0668  0.1782
 4844W        W24378   1.549   9.042   1.266  0.3045 -0.3066 -0.4212
 4845W        W24379   7.442   8.719   1.022 -0.2147  0.0599 -0.2010
 4846W        W24380  18.670   3.068   0.681  0.2510 -0.2082 -0.2832
 4847W        W24381   8.515   9.801   3.901  0.0020 -0.0072 -0.3955
 4848W        W24382   6.467   6.668   0.528 -0.3632  0.1458 -0.0648
 4849W        W24383   8.049   4.088   2.896  0.1035  0.3904  0.2149
 4850W        W24384   1.625  12.433   1.806 -0.2139  0.1220  0.0297
 4851W        W24385   9.554  12.980   4.184 -0.1573  0.0437 -0.2860
 4852W        W24386  12.258  16.738  11.151  0.0841  0.0948 -0.0736
 4853W        W24387   3.379  14.662   1.342  0.1822 -0.0186 -0.0731
 4854W        W24388  16.778  10.206  13.186  0.0273 -0.0562  0.2277
 4855W        W24389   4.654  13.535   2.550  0.0794  0.4137  0.2170
 4856W        W24390  14.838   5.846  10.365 -0.0994  0.2141 -0.0226
 4857W        W24391   1.893  17.031  12.773 -0.2188  0.3412  0.0706
 4858W        W24392  12.829   4.110  11.791 -0.1962 -0.0064 -0.0976
 4859W        W24393   3.657  18.019   3.654 -0.0346 -0.0574  0.0229
 4860W        W24394   7.893   9.839  11.397 -0.0555  0.1992  0.1287
 4861W        W24395  10.599   6.029  13.936 -0.0283  0.2404 -0.0386
 4862W        W24396  10.162  18.102   4.546  0.0080  0.0655 -0.4740
 4863W        W24397  18.402   2.928  14.689 -0.0045 -0.2435 -0.1635
 4864W        W24398   7.003  12.687   5.083  0.1823  0.0867  0.0453
 4865W        W24399  14.893   9.770  11.278  0.0288  0.0575  0.1668
 4866W        W24400   2.908  15.421   3.649  0.1146  0.0083  0.0610
 4867W        W24401  13.622  10.221   0.517 -0.0196  0.1930  0.1798
 4868W        W24402   0.836   6.533   2.226 -0.4156  0.2067  0.1989
 4869W        W24403   9.968   4.788   0.920  0.1823 -0.2454  0.0138
 4870W        W24404   4.981   1.610  14.679  0.0703 -0.0714  0.1269
 4871W        W24405  12.311  11.073  14.515 -0.1506 -0.0283 -0.0033
 4872W        W24406  10.792   8.097   2.004 -0.2950  0.0036  0.0944
 4873W        W24407  12.306   8.593   3.960 -0.1989 -0.3918  0.0966
 4874W        W24408  18.327  18.949  13.579  0.1733 -0.2924  0.2364
 4875W        W24409  10.739  11.128  11.843 -0.0515  0.0696 -0.0192
 4876W        W24410   4.503   2.647  13.902 -0.2949  0.0547 -0.0365
 4877W        W24411   3.539  11.916  12.715  0.0882  0.1001 -0.1550
 4878W        W24412   2.623  13.935   3.808  0.2890 -0.2106 -0.2194
 4879W        W24413  13.233  14.804   3.041  0.2233  0.0607  0.0565
 4880W        W24414   4.535   3.830   0.462  0.1953  0.1086  0.1402
 4881W        W24415  17.931  11.948  11.442  0.3027 -0.0698 -0.3170
 4882W        W24416  10.993  13.368   2.106 -0.1940 -0.2304 -0.0554
 4883W        W24417   7.641  16.431  12.681 -0.0448 -0.2124 -0.2171
 4884W        W24418  15.528   6.434  14.236 -0.0053 -0.2224 -0.1400
 4885W        W24419   1.680   1.641  12.607  0.0408 -0.0233  0.1664
 4886W        W24420   8.652  12.047  11.816 -0.1417 -0.0918 -0.1438
 4887W        W24421   7.295   6.193  11.548 -0.3184 -0.0630  0.2339
 4888W        W24422   0.694   9.298   2.715  0.0193 -0.2468  0.2498
 4889W        W24423   3.443  15.188   1.244  0.1074 -0.0566 -0.0339
 4890W        W24424   9.273  15.794  13.099  0.0606 -0.1750  0.1812
 4891W        W24425  13.609   3.070  14.364 -0.1739 -0.0097  0.1003
 4892W        W24426   3.485   8.848  14.617  0.0157  0.0033 -0.0987
 4893W        W24427  15.953   5.676  13.878  0.0385 -0.3960 -0.0775
 4894W        W24428   6.575  16.737  11.704 -0.1207  0.1039  0.1521
 4895W        W24429  10.844  18.643   3.861 -0.1593  0.0581  0.1844
 4896W        W24430   2.896   1.050   1.067 -0.0844  0.0219  0.1173
 4897W        W24431   1.357   9.630   2.384 -0.2949 -0.0003 -0.2721
 4898W        W24432  18.057  10.243  13.749 -0.2308  0.3006  0.0541
 4899W        W24433   9.143   5.833   1.547 -0.1312  0.0475  0.1606
 4900W        W24434   2.862  17.530  14.155 -0.2952  0.0641 -0.0789
 4901W        W24435   1.727  18.888  14.820  0.2456 -0.0827  0.1386
 4902W        W24436   7.547  18.322  13.114  0.2769 -0.1344 -0.0356
 4903W        W24437   4.254   9.268  12.726 -0.1577 -0.0704 -0.0770
 4904W        W24438  13.898   3.020  13.068  0.0955  0.0661 -0.1656
 4905W        W24439   3.921  17.062   4.076  0.1948 -0.0404  0.2146
 4906W        W24440   2.737   4.461  11.204  0.1580  0.0583 -0.3541
 4907W        W24441   7.308  17.820  13.768  0.2040  0.0537 -0.2028
 4908W        W24442  18.003  10.060   2.068  0.2338  0.1391  0.3953
 4909W        W24443   1.046   4.245   1.431 -0.3735 -0.0827 -0.1199
 4910W        W24444   4.469  17.195   1.028 -0.1090  0.2815  0.0196
 4911W        W24445  17.668  14.891   1.564 -0.1412  0.1625 -0.2863
 4912W        W24446   6.392   6.162  10.796 -0.0547  0.0380 -0.1402
 4913W        W24447   7.268   3.637   5.209  0.1547 -0.3209 -0.2290
 4914W        W24448   3.551   7.365   1.232 -0.0238  0.2362  0.3945
 4915W        W24449   7.133   1.945  14.640 -0.3171 -0.0453 -0.2480
 4916W        W24450  13.608   5.285  11.558  0.4617  0.0490 -0.2861
 4917W        W24451  15.222  11.580   2.635  0.0640 -0.1640  0.0374
 4918W        W24452  17.363  15.067  11.225 -0.0700 -0.2738  0.1009
 4919W        W24453  14.714  15.828   3.020 -0.1165 -0.1832  0.2794
 4920W        W24454  11.900  14.090  14.529  0.0734 -0.1180 -0.1164
 4921W        W24455   0.588  12.264   0.424  0.2966  0.2748 -0.0788
 4922W        W24456   3.381  14.318  14.015  0.3371  0.3434  0.1742
 4923W        W24457  11.595   3.071  12.169  0.2481  0.2545  0.1381
 4924W        W24458  17.691   9.212   3.859  0.1523  0.0072 -0.3233
 4925W        W24459  11.665   5.860   3.276  0.0770 -0.0788  0.2935
 4926W        W24460   9.672   0.179   3.263 -0.1842  0.0491 -0.2105
 4927W        W24461   3.571   8.294  11.526  0.1589 -0.1632  0.1420
 4928W        W24462   0.341  17.530  11.053  0.1666  0.0615 -0.2785
 4929W        W24463   2.252   0.132   0.832  0.1332  0.2808 -0.1682
 4930W        W24464  13.269  10.860  14.685 -0.1014  0.0808 -0.2786
 4931W        W24465  15.646  13.383  12.004 -0.2303 -0.2683  0.0731
 4932W        W24466   2.465   2.669   0.315 -0.2097  0.0045  0.1189
 4933W        W24467   4.627  15.224   2.487  0.0041 -0.0371 -0.3775
 4934W        W24468   7.895   1.223   0.019  0.0879 -0.1772  0.0732
 4935W        W24469   3.353   7.255  14.807 -0.1365  0.3128  0.0229
 4936W        W24470   5.438  10.752   0.517 -0.2037  0.3812 -0.0005
 4937W        W24471  18.069  13.023   1.260  0.0602 -0.3023 -0.0516
 4938W        W24472  13.593  13.910   3.287 -0.3107  0.3567  0.2054
 4939W        W24473   4.136   4.206   4.847  0.0980  0.0377  0.1401
 4940W        W24474   3.650  12.923   1.517  0.0959 -0.4297 -0.2303
 4941W        W24475   9.262   8.733   1.237 -0.2295  0.1695 -0.1681
 4942W        W24476  17.353  11.449   4.831  0.2162 -0.1220  0.1684
 4943W        W24477  11.828  18.874  11.652  0.1160  0.1835  0.1435
 4944W        W24478   3.320   8.390   4.102 -0.0465  0.2320  0.2849
 4945W        W24479  19.017  14.903  11.635  0.0548  0.0061  0.0949
 4946W        W24480  16.171  14.791  10.654 -0.1325  0.0636  0.2748
 4947W        W24481  13.573   5.360   0.265 -0.0747 -0.2120  0.1565
 4948W        W24482   0.959   0.608  11.766 -0.2650  0.2617 -0.2531
 4949W        W24483   9.777   7.859  13.963 -0.0809 -0.0674 -0.0127
 4950W        W24484  10.285   2.683   3.641 -0.1508 -0.1373  0.0096
 4951W        W24485   5.132  10.794   0.947 -0.0235  0.2397 -0.2894
 4952W        W24486  12.781  16.465   0.062 -0.0221  0.0757  0.2656
 4953W        W24487  16.489  14.687   2.744 -0.4600 -0.2695 -0.3340
 4954W        W24488  13.728   3.263  10.625  0.1620 -0.0057  0.3822
 4955W        W24489   1.362   0.664   4.901  0.1358  0.0403 -0.2452
 4956W        W24490  13.536  18.600  12.829  0.1328 -0.1496 -0.1610
 4957W        W24491   9.298   1.968   5.199 -0.0767  0.5041 -0.0750
 4958W        W24492  17.827  10.233   3.464 -0.0697 -0.0340 -0.0209
 4959W        W24493   1.946  12.705  11.186  0.2689  0.3445 -0.3078
 4960W        W24494   7.296   8.318  13.343 -0.0494  0.2209  0.2509
 4961W        W24495   2.653   7.131   1.951  0.0445  0.1904 -0.0614
 4962W        W24496  15.990   4.202  14.059 -0.0003 -0.4379  0.0752
 4963W        W24497  12.131  12.856  10.848 -0.1130  0.0339  0.1612
 4964W        W24498  16.227   9.436   1.328  0.2990 -0.1092  0.1416
 4965W        W24499   8.102   2.954  13.865 -0.1754 -0.2296  0.4300
 4966W        W24500   8.892  10.305  13.165  0.1854 -0.0116 -0.0884
 4967W        W24501  12.675  18.846  12.013  0.1808 -0.1491 -0.0776
 4968W        W24502  15.566  15.344   2.015  0.0292 -0.0053  0.1033
 4969W        W24503  14.079   6.901  14.434  0.1582  0.0134 -0.0939
 4970W        W24504  10.580   0.750   0.373  0.1461  0.0078  0.1455
 4971W        W24505   4.088   9.671  13.669  0.3514 -0.1623  0.2344
 4972W        W24506   6.543   5.597   4.717 -0.0580  0.4956 -0.2264
 4973W        W24507   8.074   0.618   2.411  0.2287 -0.2616  0.2917
 4974W        W24508   7.606  13.070  12.563 -0.2969 -0.0662 -0.0444
 4975W        W24509   8.484   4.671   2.086 -0.0804 -0.3549  0.1543
 4976W        W24510  16.273  10.208  11.231  0.2605 -0.1537  0.0686
 4977W        W24511  12.558  17.208  13.534  0.2934  0.0933  0.0003
 4978W        W24512  17.900  18.477  11.017 -0.4255  0.1213 -0.0547
 4979W        W24513   3.836   6.801  12.270 -0.1757 -0.3524 -0.1552
 4980W        W24514  10.805  17.603  13.041 -0.1559 -0.0288 -0.0331
 4981W        W24515   1.934   2.198   2.519  0.2699  0.0209 -0.0780
 4982W        W24516   2.912  18.052   0.081 -0.2385 -0.0839 -0.1856
 4983W        W24517   7.450   6.510  13.167  0.0455 -0.0929 -0.0958
 4984W        W24518  16.879  15.155   2.820  0.1318 -0.5970 -0.1387
 4985W        W24519  13.058   7.680  13.365 -0.1116 -0.1462 -0.0681
 4986W        W24520  10.129   0.018  14.192  0.0561  0.0491 -0.0346
 4987W        W24521   7.311  16.964   3.833 -0.0846 -0.0976  0.1629
 4988W        W24522  10.350  18.068   2.337  0.0244 -0.2342  0.1429
 4989W        W24523  16.053   5.210   3.599 -0.0390 -0.0447  0.0458
 4990W        W24524  15.460   5.960  12.943 -0.1947 -0.0336  0.1492
 4991W        W24525  17.897   8.947  12.464 -0.0942  0.1129  0.0458
 4992W        W24526   4.861   9.176   4.097  0.1898  0.3560  0.0259
 4993W        W24527  11.711   4.853  10.450  0.2500  0.4087  0.0964
 4994W        W24528   5.862  17.166   3.754  0.1504  0.5921 -0.0549
 4995W        W24529   3.315   9.577  11.326 -0.1632  0.1034  0.3686
 4996W        W24530   5.653   9.601  10.260 -0.0655 -0.1329 -0.1572
 4997W        W24531   6.328  13.031   2.576 -0.0769  0.0337  0.0849
 4998W        W24532   0.945   3.902  13.624  0.0432 -0.1001  0.1180
 4999W        W24533  10.689   1.684  14.684  0.1783  0.1275 -0.0221
 5000W        W24534   3.177   8.239  14.477  0.2559  0.2295 -0.1111
 5001W        W24535   4.412  17.764  13.049  0.0085 -0.3763 -0.3329
 5002W        W24536  12.318   5.590   2.501  0.0876 -0.3287 -0.1556
 5003W        W24537   6.575  13.113  13.482  0.0962 -0.1920 -0.0650
 5004W        W24538  12.526   4.085   1.145  0.0826  0.1377 -0.3883
 5005W        W24539   0.241   7.576  10.957 -0.1864 -0.1502 -0.1174
 5006W        W24540   0.954  11.975  14.110 -0.0940 -0.1403  0.0973
 5007W        W24541  13.763   4.851   2.573 -0.1367 -0.1298 -0.1579
 5008W        W24542   1.372   4.324  13.668 -0.4730 -0.1741 -0.0784
 5009W        W24543   7.036   5.691  11.488  0.1977  0.2321  0.2157
 5010W        W24544  16.954  12.470  11.257  0.4475 -0.0454 -0.1390
 5011W        W24545  15.613   3.274   1.042 -0.3670 -0.1434 -0.3828
 5012W        W24546   4.723  17.703   3.406  0.0264 -0.0590  0.1225
 5013W        W24547   3.260   5.289  12.081 -0.0179 -0.2894  0.3276
 5014W        W24548   1.132  10.865   3.693  0.1597  0.0060  0.0046
 5015W        W24549   5.122  10.641  13.349 -0.0864 -0.0724 -0.0861
 5016W        W24550   1.253  10.558   5.701  0.2340 -0.0886  0.3794
 5017W        W24551   4.071  15.935   3.170 -0.1156 -0.3662  0.2024
 5018W        W24552   4.696  18.230  14.002  0.1167  0.1365 -0.2337
 5019W        W24553   7.534   7.845  14.014 -0.0096 -0.2281 -0.2698
 5020W        W24554   4.093   5.903   2.860 -0.0621  0.0378  0.1262
 5021W        W24555   2.661  17.082  13.968 -0.2493 -0.0832  0.3089
 5022W        W24556  13.460  11.964  11.627 -0.2017 -0.1031  0.1927
 5023W        W24557   0.965   2.370   2.369 -0.0029 -0.0356 -0.1222
 5024W        W24558   4.635  18.473   2.868 -0.0411 -0.1673 -0.1676
 5025W        W24559  11.416  16.038   2.089 -0.0603 -0.1823  0.1947
 5026W        W24560   4.165  14.945  12.425  0.0765 -0.0193  0.0288
 5027W        W24561   2.126   1.305   0.186  0.1473  0.0585 -0.3295
 5028W        W24562  14.748   5.003  12.755 -0.4188  0.3248  0.2001
 5029W        W24563  18.356   9.298  13.097 -0.3821 -0.3646 -0.1764
 5030W        W24564   3.399  14.740   2.043  0.0793  0.0813 -0.0433
 5031W        W24565   2.463   4.178   3.032 -0.2556 -0.1787  0.1446
 5032W        W24566  14.971   8.001   0.695  0.0735  0.1257 -0.1589
 5033W        W24567   4.228   2.304  11.279  0.0722  0.0290  0.0499
 5034W        W24568   5.388  16.479  11.243 -0.1874  0.0765 -0.0780
 5035W        W24569  15.359  18.625   3.921  0.2102 -0.1959 -0.1069
 5036W        W24570  12.870  17.436  14.584  0.3963  0.1743 -0.0414
 5037W        W24571  10.893  16.805  13.710  0.1635 -0.0174 -0.3989
 5038W        W24572  16.757  18.207   3.175  0.0053 -0.1333 -0.2976
 5039W        W24573   5.683   0.916  12.554 -0.1012  0.4655  0.4538
 5040W        W24574   9.211  17.663   0.063 -0.1577 -0.0513 -0.0619
 5041W        W24575  15.325   1.259  11.591  0.1100  0.1738  0.2392
 5042W        W24576  10.230  14.233   1.175  0.0447 -0.1644 -0.1678
 5043W        W24577   3.303  14.188   1.414 -0.2701  0.0439 -0.0753
 5044W        W24578  18.409  18.057   0.867 -0.0753 -0.1361 -0.0952
 5045W        W24579   6.860  15.305   3.998  0.0719 -0.0196  0.0202
 5046W        W24580  15.054  15.310   1.940 -0.2828  0.0765 -0.0378
 5047W        W24581   9.323   1.801  14.838  0.0995  0.0889  0.2169
 5048W        W24582   1.541   2.012   3.872  0.1180 -0.0217 -0.0620
 5049W        W24583  11.481  11.941  11.687  0.0215 -0.2159 -0.0352
 5050W        W24584   0.275  11.943   9.878 -0.2048 -0.3111  0.2101
 5051W        W24585   2.775   6.622  11.645  0.1192 -0.3540 -0.1293
 5052W        W24586  11.939  14.064   0.172  0.1861  0.2217  0.1068
 5053W        W24587  15.870  14.714  13.380 -0.0087  0.0284  0.1373
 5054W        W24588   9.142  18.941   3.292  0.1967  0.0770  0.1848
 5055W        W24589  18.288   2.266  13.231  0.2294  0.0418 -0.1158
 5056W        W24590  15.297  17.125   4.673  0.1458 -0.2028  0.0389
 5057W        W24591  17.625  17.416  11.393  0.0187 -0.4215  0.0991
 5058W        W24592  11.126  11.042  11.513  0.0420 -0.2101  0.0587
 5059W        W24593  13.039  11.475  12.862  0.0122 -0.0982 -0.1584
 5060W        W24594  10.610  17.720  13.495  0.0188  0.2595 -0.0161
 5061W        W24595   9.188  17.121   3.343  0.0220 -0.1012  0.0865
 5062W        W24596   6.266  14.708  12.521 -0.0034  0.1393 -0.1210
 5063W        W24597   9.402   2.695   0.107  0.1794 -0.1617  0.0333
 5064W        W24598   9.929  15.764   1.736  0.2824 -0.0029 -0.0868
 5065W        W24599   9.774   7.228   4.584  0.4716  0.2857  0.0252
 5066W        W24600   4.286   8.387   0.649  0.1726 -0.1338  0.1122
 5067W        W24601  18.925   2.841  12.629  0.0259 -0.0146  0.3398
 5068W        W24602  11.052  12.437  13.492 -0.1205 -0.0729  0.1233
 5069W        W24603   1.757  15.131  11.738 -0.2540  0.0436 -0.2332
 5070W        W24604  12.393  14.620  10.362 -0.0977 -0.0597  0.1518
 5071W        W24605   6.405   4.280  13.712 -0.1310 -0.3275 -0.1834
 5072W        W24606  17.418  11.829   2.662  0.0355 -0.1307  0.0041
 5073W        W24607  15.977  18.163   0.507  0.1536 -0.0864  0.3601
 5074W        W24608   8.990   5.094   2.976  0.0642 -0.0134 -0.3452
 5075W        W24609  16.017  14.736   0.259  0.0927  0.1304  0.1513
 5076W        W24610  15.471   0.839   2.033 -0.0337 -0.0987 -0.2664
 5077W        W24611   1.503  11.289  12.986  0.1446 -0.0699  0.0343
 5078W        W24612  16.448   6.082   1.669  0.1532  0.1570 -0.1083
 5079W        W24613  14.580  16.643  14.392 -0.2645 -0.0468 -0.3232
 5080W        W24614   3.314   7.709   0.213 -0.0987 -0.0572 -0.0680
 5081W        W24615   6.603  17.230  11.740 -0.0831  0.0736 -0.0231
 5082W        W24616   7.429  10.800  12.343 -0.4332 -0.1356 -0.3364
 5083W        W24617  11.498  15.450  11.321  0.2574  0.0036  0.1421
 5084W        W24618   8.051  16.562  13.623  0.0357 -0.2012  0.0767
 5085W        W24619  10.528  14.945  13.842  0.0615  0.3948 -0.1504
 5086W        W24620   8.715   4.318  12.591  0.0827 -0.2331  0.0797
 5087W        W24621   8.999  10.193   3.080  0.0078 -0.1311  0.1209
 5088W        W24622   5.368   0.268   2.672  0.0440 -0.2066 -0.1792
 5089W        W24623   2.363  16.561   0.045 -0.1997 -0.0811 -0.3774
 5090W        W24624  19.072   1.699   3.452  0.0699  0.2516 -0.0522
 5091W        W24625   9.378   1.871   1.052 -0.0851  0.1268 -0.1997
 5092W        W24626   9.940   2.171   4.515  0.0431  0.1162  0.0183
 5093W        W24627   1.643  16.044   0.814 -0.0443  0.1937  0.3683
 5094W        W24628   3.874   3.423   1.643  0.0715 -0.0175 -0.1779
 5095W        W24629   9.355  18.480   0.391 -0.1553 -0.1839  0.2644
 5096W        W24630   5.127   6.320   3.917 -0.0415 -0.0361 -0.1130
 5097W        W24631   1.258  13.562  12.654 -0.1310  0.0229 -0.2320
 5098W        W24632   8.386  16.742   1.932  0.0587  0.0378  0.1751
 5099W        W24633  11.818   1.095   1.847  0.1320 -0.0261 -0.0559
 5100W        W24634   6.184   3.767  10.488 -0.2254 -0.0890 -0.1658
 5101W        W24635  18.341  18.398  14.120 -0.0278  0.2019 -0.1321
 5102W        W24636  10.539  18.999   1.250  0.1097 -0.0824  0.0531
 5103W        W24637   4.294   5.306   1.556 -0.0296 -0.2225  0.3411
 5104W        W24638   1.770   0.629  13.343  0.4657  0.3134 -0.0341
 5105W        W24639  18.875   8.998   4.375  0.1740  0.0579 -0.1395
 5106W        W24640  14.233   4.452  10.689  0.1482 -0.0756 -0.3695
 5107W        W24641   6.781   4.729   0.476 -0.1360  0.0736  0.1782
 5108W        W24642  10.760  16.693   2.004 -0.1634  0.1135 -0.2034
 5109W        W24643   0.115  14.576  12.302 -0.0395  0.0276 -0.1380
 5110W        W24644   1.260   8.331   0.203  0.2275  0.1535  0.2937
 5111W        W24645   7.399   4.879  12.884  0.0185 -0.1212  0.1785
 5112W        W24646  18.970  16.314   3.048 -0.4083 -0.0240 -0.3984
 5113W        W24647  17.431  10.301   1.432 -0.5529 -0.3391  0.2025
 5114W        W24648   6.037   9.822   0.260  0.1199  0.0810  0.0976
 5115W        W24649   5.933  12.021   5.253 -0.0081 -0.0160  0.2148
 5116W        W24650  14.260   5.854  13.639  0.1869  0.3862 -0.4155
 5117W        W24651   1.555   4.997   1.654 -0.1198  0.0601 -0.3310
 5118W        W24652   9.454  10.040   0.219 -0.0252  0.1644 -0.3755
 5119W        W24653  10.692  10.717   1.230  0.0792 -0.0667 -0.0502
 5120W        W24654  16.423  13.036  14.596 -0.2830  0.2888 -0.1647
 5121W        W24655  10.572  16.761  14.629 -0.2467 -0.1946 -0.1242
 5122W        W24656  11.360   7.498   0.619 -0.1287  0.3602 -0.2146
 5123W        W24657   1.486  16.901   0.257  0.3522  0.4248  0.2330
 5124W        W24658   5.188  12.222  12.828 -0.0358  0.3363 -0.0850
 5125W        W24659  14.234   1.293   4.349 -0.1864  0.0837  0.3376
 5126W        W24660  10.378  11.093  14.040 -0.2304  0.0015  0.1589
 5127W        W24661  19.026   1.613   4.286 -0.0740  0.0588  0.1393
 5128W        W24662   8.405   1.512   3.196 -0.3941 -0.0815  0.1599
 5129W        W24663   4.664  14.351   1.999 -0.0103  0.3939  0.1016
 5130W        W24664  16.731  15.377  12.256  0.2256 -0.0282  0.1107
 5131W        W24665  12.577  18.077  12.853 -0.1262 -0.2871 -0.0463
 5132W        W24666   7.554  12.132   1.657  0.0765  0.1878 -0.3197
 5133W        W24667  12.124   9.348  14.750  0.4915  0.0636  0.0017
 5134W        W24668   7.284   6.887  12.031 -0.0061 -0.0475 -0.2596
 5135W        W24669  10.073  14.087   4.918 -0.0769  0.2864  0.1104
 5136W        W24670  10.361   7.523  14.358  0.0882 -0.1761 -0.0088
 5137W        W24671   6.573  17.246  14.199  0.0289  0.0007  0.2419
 5138W        W24672   7.303   0.244  10.859  0.2459 -0.1856 -0.1520
 5139W        W24673   6.366   1.927   3.998  0.0247 -0.1012 -0.1439
 5140W        W24674   3.220  14.443  14.489  0.0773  0.0481 -0.2100
 5141W        W24675   6.561  11.861  14.146 -0.1152 -0.3836  0.0762
 5142W        W24676   1.133   3.818   1.664  0.1357 -0.1783  0.0692
 5143W        W24677  14.201   2.961   0.195  0.2106  0.0257 -0.0582
 5144W        W24678   1.676   2.709  11.669  0.0723  0.0419  0.2212
 5145W        W24679  11.771  15.909   2.441  0.1592  0.1439 -0.0649
 5146W        W24680   8.853  13.956   3.969 -0.0367 -0.1333 -0.2933
 5147W        W24681   7.334   5.347  14.006 -0.0179 -0.0779 -0.3607
 5148W        W24682   7.007   0.762  11.755  0.1711  0.0838  0.0365
 5149W        W24683   5.326  12.059   3.006  0.1039 -0.2630 -0.0479
 5150W        W24684  13.974  17.436   3.598 -0.1565 -0.2618  0.1231
 5151W        W24685   8.873   0.595   1.023 -0.2109  0.0522 -0.0347
 5152W        W24686   0.532   4.924  11.255  0.0770 -0.0647  0.1729
 5153W        W24687   6.880   8.831   4.028 -0.2384 -0.1323 -0.0262
 5154W        W24688  11.885   5.848   1.494  0.1544  0.0280  0.0350
 5155W        W24689   5.333   3.861  12.172  0.0490  0.1484  0.0521
 5156W        W24690   9.025  15.637   1.645 -0.1827 -0.1771  0.0629
 5157W        W24691   6.974  17.806  11.393 -0.1427 -0.0894  0.1214
 5158W        W24692   5.601   6.766  12.051 -0.1749 -0.2622 -0.2420
 5159W        W24693  12.139   0.813   0.078 -0.1967  0.5446  0.2833
 5160W        W24694  10.291   9.673   4.296 -0.0678 -0.4064 -0.1840
 5161W        W24695   9.911   6.960   1.757 -0.1925  0.2095 -0.0470
 5162W        W24696   7.418   3.410   2.208  0.2321  0.2468 -0.1856
 5163W        W24697   8.182  10.416  14.095 -0.1915  0.1060 -0.0311
 5164W        W24698   3.165  10.649   0.586 -0.3806  0.2669 -0.3574
 5165W        W24699  11.536   6.361   2.363 -0.2259 -0.0035  0.1752
 5166W        W24700   1.257  18.966  13.450 -0.0391 -0.1570  0.2399
 5167W        W24701   3.025  15.590   1.808 -0.2261 -0.0760  0.0895
 5168W        W24702   8.028   9.992   0.033  0.0042 -0.1357  0.0214
 5169W        W24703   3.375   7.909  10.684  0.2621 -0.0037  0.0070
 5170W        W24704   3.821   1.178  12.892  0.2262  0.1819 -0.2346
 5171W        W24705  17.912   4.521   2.767 -0.1359 -0.1711 -0.0519
 5172W        W24706   0.522   7.439   3.806 -0.1234  0.0861 -0.2944
 5173W        W24707  16.880  11.104  12.606  0.2320  0.0987 -0.1200
 5174W        W24708  14.951   3.918  12.717  0.1596 -0.1522 -0.2670
 5175W        W24709   6.238   7.922  12.446  0.2928 -0.0411 -0.0703
 5176W        W24710   8.479   4.914   3.221  0.1872 -0.3066  0.0523
 5177W        W24711   6.469   2.384   3.270 -0.1064  0.0861 -0.0906
 5178W        W24712  11.409  18.330  12.773  0.1595 -0.0890  0.1853
 5179W        W24713  14.090   1.624  12.188  0.1560  0.0962 -0.0058
 5180W        W24714   3.563   1.894   2.884  0.0494  0.2717  0.1830
 5181W        W24715   8.389  10.761   3.837  0.0270  0.0574  0.0647
 5182W        W24716   7.564   9.137  11.835 -0.2289  0.0206 -0.1153
 5183W        W24717   4.628  10.991   2.502  0.1199  0.0462 -0.1093
 5184W        W24718   5.722  16.312   4.163 -0.2802 -0.2424  0.0503
 5185W        W24719  14.182  17.190   1.797 -0.2184 -0.0253 -0.1635
 5186W        W24720   3.225   4.034   3.478 -0.2013  0.1417 -0.0135
 5187W        W24721  10.579   0.693  14.692 -0.1349  0.2371  0.0555
 5188W        W24722   6.721  11.052   3.544 -0.4025  0.0238  0.0652
 5189W        W24723  14.090  18.882  14.676 -0.3972 -0.2128  0.1031
 5190W        W24724  17.788   9.210   0.679  0.0026 -0.2883 -0.0483
 5191W        W24725  18.691   6.289  11.167  0.1545  0.4934 -0.0339
 5192W        W24726   8.843   2.602   3.874  0.1833  0.0266  0.2935
 5193W        W24727   6.068  16.048  12.715  0.1692 -0.0879  0.0251
 5194W        W24728  11.168  12.885  13.330 -0.0326  0.0355  0.2262
 5195W        W24729  14.274   8.145  10.605 -0.2847  0.4904  0.2588
 5196W        W24730   0.919   0.865  10.764  0.1679 -0.0266  0.0030
 5197W        W24731  11.967   8.569  12.239  0.0702  0.0161  0.0640
 5198W        W24732  11.794   8.413   3.123 -0.0101 -0.0661 -0.0301
 5199W        W24733  19.021  16.852  10.158  0.3079  0.0917  0.0449
 5200W        W24734   8.932  10.420  12.640  0.0053 -0.2740  0.4523
 5201W        W24735   8.719  14.233   2.387  0.3305 -0.0408  0.0543
 5202W        W24736  15.489  12.879   4.049  0.0435  0.0920 -0.1492
 5203W        W24737   0.670   4.386   3.471 -0.1112 -0.4501  0.0758
 5204W        W24738  17.618  14.058   4.119 -0.0197 -0.1455 -0.1305
 5205W        W24739  11.277   4.169   2.726  0.2286 -0.0643  0.1267
 5206W        W24740   6.718  16.202  13.790  0.1191 -0.1953  0.1668
 5207W        W24741   3.750  18.507   0.561  0.1378  0.1472  0.1354
 5208W        W24742  10.331   9.623   3.394  0.0715 -0.1739  0.1581
 5209W        W24743   2.910   4.874  13.697 -0.1637  0.2484  0.0041
 5210W        W24744  17.966   0.298  10.212  0.3007  0.0360 -0.0334
 5211W        W24745  11.783   5.461  10.491  0.1961 -0.0117 -0.0882
 5212W        W24746   0.911  15.479   3.143  0.0004  0.1647 -0.0640
 5213W        W24747  16.168  17.199  13.573  0.2588 -0.0377  0.1647
 5214W        W24748   8.240   0.884   1.994  0.1986 -0.0672  0.0441
 5215W        W24749   5.024   8.298   0.066  0.0629 -0.2071 -0.3125
 5216W        W24750   0.197   9.530  13.920  0.4057  0.0506 -0.0179
 5217W        W24751   1.411  14.333   1.504  0.1770 -0.1513  0.1791
 5218W        W24752   8.303  14.066  13.321  0.0542 -0.0355  0.1709
 5219W        W24753  11.102  16.318  13.663  0.0504 -0.0780 -0.0283
 5220W        W24754  11.616   3.588   0.572 -0.0927 -0.1705 -0.0684
 5221W        W24755  15.595  17.520   4.044  0.4454  0.2286  0.2185
 5222W        W24756   4.212  19.093  13.238 -0.0528 -0.0805  0.3912
 5223W        W24757   2.210   4.040   0.119  0.0616 -0.3711 -0.2752
 5224W        W24758   3.101   6.409   3.251  0.3115 -0.0141  0.4532
 5225W        W24759  16.425   9.793   3.930 -0.2044 -0.4715 -0.2362
 5226W        W24760  10.277   7.736  13.578 -0.1506 -0.0134  0.0844
 5227W        W24761  16.627  12.407   2.242  0.1848 -0.0404  0.1319
 5228W        W24762  18.672   9.365  10.593 -0.2194 -0.2829 -0.0589
 5229W        W24763  16.322   6.814  13.807  0.0053  0.2228  0.1946
 5230W        W24764  18.870  16.719  14.623 -0.0943 -0.1118  0.0146
 5231W        W24765   8.479  11.444   2.753  0.0273  0.1368  0.2066
 5232W        W24766  11.589  10.225   2.250 -0.0001  0.2046 -0.0974
 5233W        W24767   3.755  11.456   4.344 -0.2602 -0.4527  0.1738
 5234W        W24768   1.251  15.235   2.826  0.3855 -0.1716 -0.3793
 5235W        W24769   9.643   1.939   1.495  0.1192 -0.0715 -0.1462
 5236W        W24770   0.521   3.023  14.699 -0.1172 -0.1433 -0.2709
 5237W        W24771  18.780   7.359   4.221 -0.0564 -0.0863 -0.0250
 5238W        W24772   1.392   6.907  13.007 -0.0541 -0.0943  0.1129
 5239W        W24773   8.798   1.030   2.814  0.4424  0.1992 -0.2448
 5240W        W24774   6.755  16.776  12.935  0.1392 -0.2747 -0.1833
 5241W        W24775  10.012  12.316   1.219 -0.1121  0.0768 -0.2218
 5242W        W24776  16.496   0.554  14.720 -0.0157 -0.2234 -0.0378
 5243W        W24777   1.752   1.477  13.118  0.1463  0.0047  0.1095
 5244W        W24778   5.249   4.995  14.264 -0.1220  0.1269  0.1734
 5245W        W24779   8.948   6.843   1.736  0.1932  0.1931  0.2119
 5246W        W24780  17.414  13.998   0.441  0.2859  0.0809 -0.3938
 5247W        W24781  17.718  10.713  12.129 -0.2995 -0.0586 -0.0161
 5248W        W24782   2.030  17.511  12.808 -0.2028 -0.0473 -0.0664
 5249W        W24783  12.714   1.014   4.573  0.0166 -0.4259  0.0602
 5250W        W24784   5.792   2.438  14.052  0.0462 -0.1780  0.2692
 5251W        W24785   1.862  14.157  11.976 -0.2431 -0.0186  0.1591
 5252W        W24786  16.183   0.065   1.270  0.1864  0.5066 -0.1697
 5253W        W24787  11.584   1.041  11.464  0.0905  0.1581  0.5536
 5254W        W24788   2.833   8.516  14.740 -0.0104  0.0199  0.0787
 5255W        W24789  16.306  18.328  12.044 -0.3676  0.2294  0.0280
 5256W        W24790  13.414  15.549  12.410  0.1059  0.1340  0.0557
 5257W        W24791  10.016  13.619  11.496 -0.0120 -0.0074 -0.4596
 5258W        W24792   6.777  15.004  11.518 -0.2749  0.3254  0.0989
 5259W        W24793   8.074   0.528   4.333 -0.0029  0.2376 -0.1866
 5260W        W24794  18.395  11.819  13.195 -0.0996 -0.0088 -0.3350
 5261W        W24795   1.443  10.130  12.680 -0.2545 -0.0873  0.1970
 5262W        W24796  15.566   9.652   0.386  0.0957  0.1311  0.0040
 5263W        W24797  14.208   7.984  13.041  0.2219  0.1386 -0.2277
 5264W        W24798   7.542  13.413  13.736  0.2438 -0.0062 -0.0920
 5265W        W24799   7.296  13.060  13.935  0.1117 -0.0181  0.2632
 5266W        W24800   3.918  18.758  14.187  0.0188 -0.1707 -0.1441
 5267W        W24801   8.713  17.975  12.554 -0.2894  0.1014 -0.0952
 5268W        W24802  18.684   4.319  14.740  0.2072 -0.0340 -0.0003
 5269W        W24803   0.831  11.076   4.184 -0.0163 -0.1381 -0.0382
 5270W        W24804   5.429  16.405   1.605 -0.0097  0.0201  0.2026
 5271W        W24805   5.320  17.451   0.026 -0.0214  0.0836  0.1871
 5272W        W24806  16.088  13.918   3.640 -0.3278  0.1112  0.1605
 5273W        W24807   2.337  17.108  12.967  0.0028  0.2027 -0.2884
 5274W        W24808   9.619   9.371  11.915  0.0904  0.0517 -0.3036
 5275W        W24809   1.605   6.958   3.475 -0.1595  0.0755  0.0870
 5276W        W24810  14.558   1.720   2.744  0.2017  0.3163  0.0310
 5277W        W24811  14.225   3.833   1.606  0.0095  0.3151  0.0278
 5278W        W24812   3.071   6.864  14.356 -0.2151 -0.1312 -0.0507
 5279W        W24813   3.350   3.456   1.715 -0.0857 -0.0621 -0.0461
 5280W        W24814   0.320  10.227   5.213 -0.2106 -0.1855  0.0585
 5281W        W24815   9.890  11.515  10.703 -0.1550 -0.0776 -0.0108
 5282W        W24816  16.381   2.734   1.384 -0.1421  0.0651  0.0297
 5283W        W24817   3.980  15.621  14.731  0.1443  0.1138 -0.3483
 5284W        W24818   1.628   8.367   0.989  0.1008 -0.4398  0.1487
 5285W        W24819  10.552   9.545  14.315 -0.0276 -0.0233  0.2033
 5286W        W24820   3.245  15.719  13.762 -0.0103  0.2165  0.1172
 5287W        W24821   6.285  12.282  13.300  0.3192  0.0780  0.3375
 5288W        W24822  14.955  10.862  14.229  0.1715  0.0744 -0.2831
 5289W        W24823  10.502  17.965  10.889  0.0186  0.1847 -0.0249
 5290W        W24824  18.619  15.105   3.629  0.0477 -0.0858 -0.1279
 5291W        W24825  17.038   7.915  11.655  0.1531 -0.0026  0.4046
 5292W        W24826  14.827   8.111  12.465 -0.0787 -0.1817  0.0114
 5293W        W24827  13.106   7.969   2.155  0.1679  0.0377 -0.1862
 5294W        W24828  15.871   6.785   1.789 -0.2820 -0.0494 -0.2584
 5295W        W24829  18.310   2.883  14.216  0.0434  0.1899 -0.1289
 5296W        W24830  11.302   1.490  14.469 -0.0680  0.1795  0.0770
 5297W        W24831   2.854  10.624   3.152  0.3129 -0.2004  0.0380
 5298W        W24832   3.928  17.509   2.724 -0.4054 -0.2519  0.0651
 5299W        W24833   6.250   2.949  12.275  0.1845  0.0432  0.0535
 5300W        W24834   2.868   5.521  12.238  0.2897  0.1422 -0.1328
 5301W        W24835  17.830   5.847  11.221 -0.1018  0.1778 -0.0191
 5302W        W24836   0.484  10.287   2.728 -0.0467 -0.0174  0.1025
 5303W        W24837   8.210  10.699  13.594 -0.2184  0.1535 -0.3046
 5304W        W24838  16.201   0.255  14.336  0.0372  0.1074 -0.2599
 5305W        W24839  16.074   0.633   3.925  0.2915 -0.0485 -0.2661
 5306W        W24840  18.803   6.774  11.246  0.0690  0.4241  0.4087
 5307W        W24841  14.327  14.556  12.946  0.0204  0.0827 -0.1918
 5308W        W24842   7.797   6.530  14.559  0.2129 -0.2500 -0.0702
 5309W        W24843   2.096  14.946   0.165 -0.2070 -0.0056 -0.1067
 5310W        W24844   7.451   9.107   0.775  0.1874  0.0818  0.0987
 5311W        W24845  18.014  18.166   0.489  0.1563 -0.0008 -0.1387
 5312W        W24846   1.888   2.742   2.423 -0.1572 -0.2282  0.0946
 5313W        W24847   7.850  10.365  13.630  0.1292  0.3085  0.0074
 5314W        W24848  18.704   6.600   2.858  0.2373 -0.2996 -0.2239
 5315W        W24849  15.272   2.272   3.597  0.3759 -0.0548 -0.2328
 5316W        W24850  14.409   3.902  13.003  0.2631  0.0712 -0.0368
 5317W        W24851   0.265  18.492  14.137 -0.1484 -0.1589  0.2058
 5318W        W24852  17.982   1.919  13.008 -0.3348  0.1519 -0.2645
 5319W        W24853   5.110  15.311  10.928  0.0132  0.0624 -0.1343
 5320W        W24854  18.996  17.551   2.701 -0.0618 -0.0500  0.2868
 5321W        W24855  14.361  10.212   1.953 -0.2357  0.1624 -0.3599
 5322W        W24856   6.403   8.405   3.451  0.1132  0.0709  0.0036
 5323W        W24857   9.840   4.816  11.685  0.0010 -0.1435 -0.0037
 5324W        W24858   8.068   4.698  10.519  0.2603  0.0505 -0.1374
 5325W        W24859   6.407   5.521  14.505 -0.0258  0.0905  0.0280
 5326W        W24860   1.074  17.046   2.310  0.2358 -0.0126 -0.1403
 5327W        W24861   9.068  11.235  11.811 -0.0659  0.2563 -0.1496
 5328W        W24862  15.029  15.197  13.190  0.2968  0.1167 -0.2332
 5329W        W24863   1.929   7.844  13.450 -0.3463  0.0888  0.3526
 5330W        W24864  15.059   2.403  13.066  0.2823  0.0500 -0.4057
 5331W        W24865   2.937   8.665   1.734  0.1309  0.1729 -0.0490
 5332W        W24866   5.180   6.782   1.180  0.3597 -0.3775 -0.1322
 5333W        W24867   2.442  10.956   2.632  0.1662 -0.3832 -0.4379
 5334W        W24868   6.168  17.914   3.991 -0.0972  0.1546 -0.2099
 5335W        W24869  11.654   2.841   1.022 -0.3465  0.2348  0.0256
 5336W        W24870   0.952   2.537   4.088  0.0075 -0.1984  0.4857
 5337W        W24871   1.185  17.919   3.911 -0.1706 -0.0103  0.1661
 5338W        W24872  12.984  17.570   3.493 -0.1410  0.1641  0.0279
 5339W        W24873   9.290   2.952  10.589  0.1341  0.0477  0.1712
 5340W        W24874  15.888  10.261   1.504  0.1831  0.3035 -0.0697
 5341W        W24875   3.627  17.795   0.523  0.1750 -0.1121 -0.0280
 5342W        W24876  15.848   9.747   2.844 -0.2893  0.1855  0.0401
 5343W        W24877  11.448   0.725   3.283  0.3367 -0.0501 -0.0183
 5344W        W24878   9.119   5.506  13.401 -0.2045  0.2087  0.1877
 5345W        W24879  14.378   2.398  14.795 -0.2523 -0.0960 -0.0856
 5346W        W24880   7.842   9.437  12.137 -0.0683 -0.0604  0.1937
 5347W        W24881   5.448   1.976  10.863 -0.0077  0.1302  0.0433
 5348W        W24882  16.948  12.450   0.798  0.0224  0.1360 -0.2944
 5349W        W24883   7.186   5.527   2.611  0.0885 -0.1931  0.0773
 5350W        W24884  10.560  12.304   5.147 -0.1447 -0.2072  0.1090
 5351W        W24885   1.150   7.570  11.735 -0.3114  0.1915  0.4007
 5352W        W24886  14.398  16.577  13.544  0.2310 -0.3406  0.1533
 5353W        W24887  15.626   8.207   1.351  0.3292 -0.1088  0.0270
 5354W        W24888  14.897  13.058  11.023 -0.0911  0.4777 -0.1585
 5355W        W24889   0.989  18.277  12.779  0.0301  0.0564 -0.2016
 5356W        W24890  15.754   5.341   2.267  0.0270 -0.2289  0.0176
 5357W        W24891  15.809  16.860  13.227 -0.0771 -0.2449  0.0662
 5358W        W24892   1.653   1.580  14.700  0.1022  0.1141 -0.0236
 5359W        W24893   2.337  18.501  13.413 -0.1477  0.1448 -0.1560
 5360W        W24894  19.118  18.871  14.417  0.0318 -0.3183 -0.0864
 5361W        W24895  10.192   7.900  12.343  0.1590 -0.1288 -0.0059
 5362W        W24896   5.052  15.122  14.194  0.1265 -0.0271  0.3286
 5363W        W24897   1.637   1.726   1.373  0.4507  0.1722 -0.0424
 5364W        W24898  10.433   7.160  14.781  0.2148 -0.1284  0.1275
 5365W        W24899   9.272  10.104  12.842 -0.1991  0.2078 -0.1570
 5366W        W24900   3.560  12.613   0.610 -0.2429 -0.0380 -0.0749
 5367W        W24901  18.580   9.346   3.574  0.1147 -0.0224  0.1589
 5368W        W24902   6.822  11.662   0.877  0.0118 -0.1327 -0.0247
 5369W        W24903  15.256  13.346   4.004 -0.1713 -0.1404  0.0616
 5370W        W24904   0.783  14.289   0.156  0.0045  0.2386  0.1371
 5371W        W24905   2.099   4.736  10.991  0.0136  0.1354  0.0342
 5372W        W24906  12.842  13.529   3.802  0.1863  0.2355 -0.1688
 5373W        W24907   1.854  17.487  13.737  0.2358  0.3214 -0.1627
 5374W        W24908  15.990   0.970   4.373 -0.1950  0.0292  0.1873
 5375W        W24909   5.909  14.378   2.570 -0.0430  0.2736 -0.0133
 5376W        W24910   2.937  13.962   0.582 -0.0139 -0.0110  0.0762
 5377W        W24911   4.780   6.834  11.512  0.0494  0.0981  0.1769
 5378W        W24912   6.522  18.762  11.250  0.6703 -0.1021 -0.1258
 5379W        W24913   5.844   6.119  11.459 -0.1336  0.1652 -0.0798
 5380W        W24914   8.688  17.862  11.487 -0.0923 -0.1671 -0.3265
 5381W        W24915  13.101  10.581  11.679 -0.1274 -0.0843  0.2534
 5382W        W24916   4.793   1.285   1.895 -0.1773  0.1011  0.2346
 5383W        W24917   9.030   2.776  12.960  0.0886 -0.1706 -0.0139
 5384W        W24918   0.111  15.061   2.262 -0.0107 -0.0919  0.0588
 5385W        W24919  17.672   9.413   3.362 -0.2966 -0.1595  0.2800
 5386W        W24920  10.026   9.912  12.902  0.0810 -0.2340  0.0502
 5387W        W24921   9.748   7.575  11.558 -0.0621  0.0551 -0.1486
 5388W        W24922  11.625  18.340  10.919 -0.2084  0.0626  0.2410
 5389W        W24923  11.073  16.949  11.467 -0.1601  0.0846  0.0926
 5390W        W24924  13.599  11.398  11.496 -0.0831  0.1609 -0.0623
 5391W        W24925   7.844   3.661   3.655 -0.0948  0.2402 -0.0642
 5392W        W24926   3.130   3.428   2.194 -0.2880 -0.1529 -0.1309
 5393W        W24927   1.034  11.664   0.802 -0.2015 -0.1014  0.1402
 5394W        W24928   6.631   0.102  13.028 -0.3355 -0.0365  0.1615
 5395W        W24929   1.671   4.776   2.102  0.0825  0.0552  0.1083
 5396W        W24930  17.465  18.644   3.772 -0.0387 -0.1873 -0.1888
 5397W        W24931  19.044   2.955  13.076 -0.0085  0.0157 -0.2676
 5398W        W24932   3.479  12.578   3.715  0.0565 -0.0188  0.1159
 5399W        W24933  11.243   5.313   0.927  0.2619  0.0271  0.4675
 5400W        W24934  11.029   0.399  14.538  0.0082 -0.0423 -0.0501
 5401W        W24935   4.521  14.030   1.553 -0.0410 -0.1045 -0.1365
 5402W        W24936   9.526   2.380   1.583 -0.5490 -0.0957 -0.1252
 5403W        W24937   8.765  10.940  13.597  0.0306 -0.1337  0.1054
 5404W        W24938   7.239  12.582  14.031 -0.0003  0.4424  0.2249
 5405W        W24939   1.180   6.103   9.493 -0.1783  0.5172  0.1499
 5406W        W24940   8.796   1.000  12.874 -0.0796  0.2592 -0.2531
 5407W        W24941  14.081  17.677  11.839 -0.2483 -0.1050 -0.0725
 5408W        W24942   3.351   9.862   0.261 -0.0947  0.0105  0.0504
 5409W        W24943   2.280   7.494   2.719 -0.0865 -0.1358  0.1412
 5410W        W24944   4.498   3.583  10.323  0.0901 -0.2703  0.3490
 5411W        W24945   2.029  10.268  13.519 -0.1751  0.2036 -0.1090
 5412W        W24946  14.946   6.661  12.708 -0.0346  0.0339 -0.1039
 5413W        W24947   2.300  12.246   0.994  0.2151 -0.1977 -0.1217
 5414W        W24948   0.996   8.457   1.617  0.0769 -0.3925  0.0975
 5415W        W24949   4.969   6.284  11.564 -0.1184 -0.2045 -0.0966
 5416W        W24950   5.255  18.034  10.642  0.0575 -0.0709  0.1378
 5417W        W24951   8.519   6.662  12.150  0.3909 -0.2997  0.1111
 5418W        W24952  12.264  13.030  13.353 -0.4221  0.0555  0.1619
 5419W        W24953  18.405   7.127  14.162 -0.0171  0.3590  0.0661
 5420W        W24954   2.000   2.149  13.575 -0.1386  0.0129  0.0192
 5421W        W24955   0.705   5.966  12.663  0.2223  0.0781  0.1548
 5422W        W24956  14.372  18.266  14.002 -0.0424  0.2587 -0.0289
 5423W        W24957  10.528   9.199   4.777 -0.0926 -0.0028  0.0416
 5424W        W24958  12.720  10.745   2.625 -0.1219  0.0622  0.3396
 5425W        W24959  18.646   0.111   2.128  0.2854 -0.0227 -0.1887
 5426W        W24960   0.980  14.992   1.352 -0.1990  0.0374 -0.0638
 5427W        W24961   9.938   1.728   2.758  0.1730 -0.4301 -0.0914
 5428W        W24962  18.796   4.139   1.545 -0.2796 -0.0692  0.0769
 5429W        W24963   3.917  17.495  11.333 -0.1190  0.2314  0.0237
 5430W        W24964  15.020   0.716   5.211 -0.2833  0.0409  0.3094
 5431W        W24965  13.483   8.083   4.250  0.1968  0.0516  0.0866
 5432W        W24966  17.030   7.054   0.306 -0.1582 -0.0075  0.0858
 5433W        W24967  15.769  18.727   1.380  0.1327 -0.0410 -0.2158
 5434W        W24968   1.547   3.133   1.179 -0.1705 -0.1658 -0.2914
 5435W        W24969   1.634   5.780  14.294  0.0917  0.0214  0.2056
 5436W        W24970   8.602   5.942  14.471 -0.0258 -0.1131  0.1285
 5437W        W24971  16.272   4.849  12.270 -0.0568  0.1646 -0.0662
 5438W        W24972  12.958  14.469   2.703  0.1551  0.1254  0.1249
 5439W        W24973  18.665   6.251   2.528 -0.1985  0.1581 -0.1129
 5440W        W24974  11.151   1.989  14.686 -0.1471  0.2820  0.0294
 5441W        W24975  12.904  14.736  12.749 -0.0091  0.2324  0.2711
 5442W        W24976  12.370   5.779  10.886 -0.0090  0.0034 -0.1142
 5443W        W24977  10.418  18.859  13.603 -0.1601  0.0428  0.0973
 5444W        W24978  15.005  16.885   3.061 -0.2622 -0.3422  0.0246
 5445W        W24979  18.401  18.848   1.354  0.1072 -0.0651  0.0715
 5446W        W24980   6.355  11.001  11.148  0.1455 -0.1348 -0.2246
 5447W        W24981   0.964   1.578   0.678 -0.0262 -0.0524 -0.2857
 5448W        W24982   5.006   8.192   2.016 -0.2081 -0.2875 -0.3368
 5449W        W24983  10.988  14.691  11.344 -0.0268  0.0226 -0.0892
 5450W        W24984   2.559  14.294  13.222 -0.0861  0.0922  0.1133
 5451W        W24985  11.921  11.511  12.499  0.0732 -0.1827  0.0546
 5452W        W24986   0.849  12.599   2.367  0.0712 -0.1557  0.1116
 5453W        W24987  10.921  18.963   2.882 -0.0360 -0.0245 -0.1135
 5454W        W24988  16.666  15.791  14.449 -0.0951  0.0164 -0.0171
 5455W        W24989   7.968   7.402  13.107  0.2248  0.0739 -0.0002
 5456W        W24990   5.039  10.850   2.697  0.0720 -0.1115 -0.3117
 5457W        W24991   7.283   9.809  10.704  0.0652 -0.2120 -0.2575
 5458W        W24992   8.141  13.130  14.421 -0.1137 -0.1282  0.1036
 5459W        W24993   2.691   4.676   3.949  0.0125 -0.2648  0.2250
 5460W        W24994   7.794   0.687   0.211  0.2618 -0.1726 -0.0019
 5461W        W24995   6.020   9.107   3.631  0.1599 -0.1405  0.2064
 5462W        W24996   4.209   5.928   2.339  0.1522  0.3434  0.0492
 5463W        W24997   9.279   6.092   4.800  0.1488  0.0600  0.4103
 5464W        W24998   5.325   8.922   2.263 -0.1376  0.1234 -0.5229
 5465W        W24999  16.915   9.491  11.064  0.1984 -0.3664  0.3908
 5466W        W25000  18.134   3.080  13.779  0.0786  0.0016 -0.4395
 5467W        W25001   0.537  10.665  12.765  0.0212  0.1244 -0.3413
 5468W        W25002   8.046   8.000   2.637  0.0471 -0.1627  0.1849
 5469W        W25003  14.299   3.979   2.560  0.2914  0.0647  0.0751
 5470W        W25004  15.458  11.788   0.307  0.0287 -0.0244  0.0641
 5471W        W25005  10.469  18.846   1.759 -0.2720 -0.0748 -0.0191
 5472W        W25006  14.290   0.227   2.530  0.0920 -0.0821  0.2352
 5473W        W25007  15.908  18.195  12.422 -0.0116  0.1451  0.2467
 5474W        W25008   1.067   2.464   2.838 -0.0839  0.1977 -0.1043
 5475W        W25009  15.819   8.022   4.147  0.1809  0.0056  0.0034
 5476W        W25010  11.789  16.358  12.393 -0.1549  0.0931  0.1305
 5477W        W25011  12.622  12.448  11.673  0.0682  0.0407 -0.2635
 5478W        W25012   9.725  10.721   1.058 -0.1410  0.0086 -0.2415
 5479W        W25013  10.462   8.076  12.777 -0.1854  0.0792 -0.1034
 5480W        W25014   8.320   7.614  12.874  0.0827  0.0340 -0.1791
 5481W        W25015   6.144   5.902  14.276 -0.1134 -0.1259  0.1920
 5482W        W25016   6.421   7.317   0.495  0.0619 -0.0974 -0.2059
 5483W        W25017  12.154  16.914   3.604  0.0822 -0.1601 -0.1149
 5484W        W25018   6.792   9.650  14.247  0.0189 -0.2065 -0.0083
 5485W        W25019  10.283  17.080  13.621  0.1906  0.3752  0.0638
 5486W        W25020   0.117   4.173  10.161  0.1834  0.2205 -0.0703
 5487W        W25021   5.547  16.937  13.023 -0.0114  0.2020  0.0349
 5488W        W25022  16.496   7.796  12.788 -0.3280 -0.0119 -0.0290
 5489W        W25023   3.962  13.426   0.261  0.0137  0.2477  0.4855
 5490W        W25024   2.518  11.899   2.154  0.0788  0.1845 -0.3744
 5491W        W25025  15.396  12.947  10.914 -0.2658 -0.2880 -0.1007
 5492W        W25026   1.420   4.308   1.955 -0.1445  0.0049 -0.0491
 5493W        W25027  17.169  17.321  10.628 -0.1387  0.0265 -0.1371
 5494W        W25028   9.223   6.953   0.672 -0.0613 -0.1132  0.0301
 5495W        W25029  18.003   4.912  14.299 -0.1121 -0.3124  0.2261
 5496W        W25030  11.264  12.420  14.763  0.4384 -0.0799  0.0048
 5497W        W25031   6.154   0.127   4.036  0.0685  0.0989 -0.0374
 5498W        W25032   0.951  17.276  13.857 -0.1482  0.0863 -0.0225
 5499W        W25033  11.617  13.588   3.962 -0.2087  0.2104  0.1821
 5500W        W25034   6.997   6.780   2.892 -0.1262 -0.1496 -0.2260
 5501W        W25035  13.215   3.058  10.862  0.0701  0.1135  0.0788
 5502W        W25036  16.433   7.424  12.488  0.1820  0.0997 -0.3484
 5503W        W25037  15.769   2.425  10.772 -0.1748  0.3598 -0.1633
 5504W        W25038  17.772  11.399   4.365  0.1230 -0.0360 -0.0435
 5505W        W25039   6.917   3.249  11.483  0.3009  0.0264 -0.1790
 5506W        W25040   0.218  14.030   1.907  0.3756  0.0587 -0.0114
 5507W        W25041   2.092  18.453   1.325 -0.1984 -0.1103 -0.2193
 5508W        W25042   5.238  10.838  14.373 -0.2413  0.1102 -0.2417
 5509W        W25043   4.238  10.059   1.980  0.1771 -0.1939 -0.2380
 5510W        W25044   4.205   1.901  12.370 -0.1052  0.0944  0.1670
 5511W        W25045  14.820   5.579   3.882 -0.2624  0.0735  0.1251
 5512W        W25046  11.179  14.952   0.682  0.3069  0.4017  0.1389
 5513W        W25047   3.085  12.627  14.126 -0.1021  0.0842  0.0189
 5514W        W25048  10.705  11.576  11.703 -0.0075 -0.1673 -0.0785
 5515W        W25049  12.480   9.022  11.897  0.1618  0.0745  0.0499
 5516W        W25050   4.214  14.948  13.184 -0.2030  0.2365 -0.1971
 5517W        W25051  16.059  13.408  11.754  0.1904 -0.1136 -0.2166
 5518W        W25052  10.403   9.936   3.844  0.0233 -0.1563  0.3727
 5519W        W25053   7.763   5.915   2.110  0.1400  0.1018  0.2838
 5520W        W25054  10.889  15.747   0.700  0.3354 -0.3250 -0.2335
 5521W        W25055   0.565   6.670  14.757  0.1648 -0.0865  0.1245
 5522W        W25056  13.990   9.733   3.032  0.1072  0.1581 -0.1635
 5523W        W25057  18.993  13.861  14.081 -0.0714  0.0569 -0.0642
 5524W        W25058   4.264  13.655   3.367 -0.1214 -0.1810  0.2095
 5525W        W25059   6.001  16.136  13.235 -0.0472 -0.0055 -0.3112
 5526W        W25060  14.071  11.614   1.684  0.0816  0.3870  0.2862
 5527W        W25061  12.501   7.654  13.909 -0.0310 -0.1135  0.1304
 5528W        W25062   9.586  19.016  14.575  0.0704 -0.3028  0.0745
 5529W        W25063  17.259  18.209   1.325  0.0751 -0.0729 -0.0498
 5530W        W25064  17.808  18.358  10.006 -0.3486 -0.1112  0.0805
 5531W        W25065  12.403  10.694   0.000 -0.0184 -0.0021  0.4413
 5532W        W25066  12.000   4.944   1.981 -0.1203  0.0392 -0.2762
 5533W        W25067   1.981   3.773  10.022 -0.3345  0.2394 -0.0205
 5534W        W25068  12.646  12.512   2.988  0.1570 -0.0670  0.0046
 5535W        W25069   2.044   0.342  11.205 -0.1869 -0.0833 -0.1596
 5536W        W25070  18.050  14.283   2.581 -0.0154  0.2717  0.0038
 5537W        W25071   6.399   9.149  12.305 -0.1451  0.0953 -0.4777
 5538W        W25072   8.001  16.092  14.064 -0.0369  0.0414 -0.0078
 5539W        W25073   9.059  11.337  14.328  0.0136  0.0803 -0.0614
 5540W        W25074  15.287   7.064   3.982 -0.2400 -0.1996 -0.0959
 5541W        W25075   5.947   8.130  12.092  0.1936  0.2910  0.2271
 5542W        W25076   4.106  13.130   4.030 -0.2842  0.6266 -0.1710
 5543W        W25077   5.600  12.325  12.456  0.0136  0.0564 -0.1046
 5544W        W25078  15.677   6.321  12.116  0.0236 -0.0000  0.2218
 5545W        W25079  17.729  16.800  11.279  0.1784 -0.0918  0.1591
 5546W        W25080   6.000   2.205   4.293  0.2216  0.3017 -0.2195
 5547W        W25081  10.552  17.241   0.169  0.0339  0.0732 -0.0670
 5548W        W25082   4.057   7.178  14.240 -0.0358  0.0764  0.1433
 5549W        W25083  19.018  10.661  14.809 -0.0610 -0.0804 -0.1189
 5550W        W25084  17.313  14.598  11.423  0.0317 -0.1623  0.1569
 5551W        W25085  11.054  16.932   2.313  0.0661 -0.0344 -0.1784
 5552W        W25086  10.616  17.264   1.770  0.2283 -0.0989  0.0691
 5553W        W25087  11.681  13.702   0.986  0.0137  0.0075  0.1944
 5554W        W25088   8.729  11.941  12.285 -0.1269  0.1417 -0.3734
 5555W        W25089   7.896  13.116   0.314 -0.1790  0.1420 -0.3700
 5556W        W25090  11.553   6.737   2.754 -0.4419  0.0481 -0.0708
 5557W        W25091   2.285  16.923  10.680 -0.3335  0.0284 -0.2147
 5558W        W25092   0.988   6.763  12.243 -0.4246  0.1474  0.2437
 5559W        W25093  11.807   6.349   4.913  0.3623  0.3529 -0.1344
 5560W        W25094  16.618   7.810  11.254 -0.0213  0.2820  0.0346
 5561W        W25095   4.599  15.343  13.035  0.0271  0.1792 -0.1079
 5562W        W25096  13.888   8.811   1.380  0.1479  0.0579  0.2247
 5563W        W25097   3.905   3.140   0.824 -0.3456  0.0809  0.0537
 5564W        W25098   6.104  13.129  11.562 -0.0499 -0.0369 -0.3893
 5565W        W25099   7.581  12.046  12.570  0.2439  0.2275 -0.2135
 5566W        W25100  12.117  17.027   0.044 -0.1607 -0.0135  0.3263
 5567W        W25101   5.966   1.136  11.018  0.1189 -0.0146 -0.1477
 5568W        W25102  13.808  14.311   2.357 -0.0506 -0.0925 -0.0691
 5569W        W25103   7.488  18.988  14.170 -0.3291 -0.0501 -0.3399
 5570W        W25104  18.515   1.634   4.612 -0.0224  0.0559  0.1453
 5571W        W25105   3.717   8.497  14.330  0.0067  0.0219  0.1518
 5572W        W25106  15.447  10.235   1.302 -0.0932 -0.2548 -0.0531
 5573W        W25107   5.118  12.769  13.489 -0.2170  0.1099 -0.0087
 5574W        W25108   6.949   8.647   3.494  0.3066  0.0564  0.0600
 5575W        W25109  13.152   0.464   4.140 -0.3090 -0.1031  0.0825
 5576W        W25110   9.023  15.104   3.402  0.4759  0.0062 -0.1035
 5577W        W25111   4.809  13.451  11.527 -0.0624 -0.0102 -0.0453
 5578W        W25112   9.932  18.358   2.442  0.0524 -0.0953 -0.0217
 5579W        W25113   4.980  17.415   0.394  0.0866  0.0309  0.0296
 5580W        W25114   1.310   5.503  11.188  0.1498 -0.0810  0.0771
 5581W        W25115  12.727   9.440   4.358 -0.1907  0.0855 -0.0229
 5582W        W25116  12.417   6.034   4.171 -0.0565  0.1486 -0.0201
 5583W        W25117  19.121   6.427   2.232 -0.1797 -0.1675 -0.0596
 5584W        W25118   0.587   8.219   1.766 -0.1785 -0.1294 -0.0600
 5585W        W25119   5.973   1.799  11.733 -0.0580 -0.0674 -0.0842
 5586W        W25120  11.063   0.835  13.731  0.1290  0.1422  0.0679
 5587W        W25121   8.201  13.372   3.856  0.3033 -0.0552  0.3490
 5588W        W25122  11.206  15.547   0.102  0.1924  0.0056 -0.3330
 5589W        W25123  16.579  17.720   0.967  0.0182 -0.0314 -0.0827
 5590W        W25124   8.256   9.478   1.811  0.0515  0.0122 -0.1250
 5591W        W25125  13.121   4.445   1.769  0.1945  0.0500  0.0306
 5592W        W25126   7.696  12.905   4.611  0.2334 -0.0819 -0.1392
 5593W        W25127   1.359  12.148  14.400 -0.0722 -0.1252 -0.2376
 5594W        W25128   7.071   3.036  12.808 -0.1299 -0.3285  0.0452
 5595W        W25129  13.334   6.927   0.163 -0.0579 -0.0020  0.0899
 5596W        W25130  18.972  10.469  13.980  0.0532  0.0917 -0.1072
 5597W        W25131   4.534  18.995   0.829 -0.1804 -0.2617  0.0702
 5598W        W25132  14.154  13.902   3.958  0.2439  0.0880 -0.0955
 5599W        W25133   5.252  13.508   1.030 -0.1861 -0.0867 -0.3671
 5600W        W25134  12.469   8.872   0.125  0.1928  0.2098 -0.0549
 5601W        W25135   1.537  16.222   3.385  0.1442 -0.0150 -0.0350
 5602W        W25136  10.051  11.835   1.608 -0.0079  0.1287 -0.4112
 5603W        W25137  12.908   0.623   2.792  0.2420  0.1956  0.1569
 5604W        W25138  11.820   8.062   2.163 -0.1856  0.0082 -0.2684
 5605W        W25139  16.607   9.181  11.233  0.1933  0.0899  0.0358
 5606W        W25140  12.821  14.872  13.620  0.0468 -0.1414  0.0001
 5607W        W25141   8.225   4.773   1.472  0.2612 -0.2956  0.5156
 5608W        W25142  12.107   0.324   2.477  0.2917 -0.0011 -0.3601
 5609W        W25143  13.191   5.462  11.836  0.0800  0.2204  0.1904
 5610W        W25144  13.155   6.458   0.285  0.0306  0.1670  0.2414
 5611W        W25145   9.848   4.173  14.151 -0.1498 -0.2250 -0.1198
 5612W        W25146   0.790   3.731  11.627  0.1043 -0.3142  0.2606
 5613W        W25147  15.889  11.865  11.082 -0.0793 -0.3489  0.4230
 5614W        W25148  12.882   8.855  14.063  0.3637 -0.3178  0.0105
 5615W        W25149   3.458   2.247  12.149  0.0198  0.0242 -0.1616
 5616W        W25150  14.996  14.866   0.783  0.1840 -0.2426 -0.2392
 5617W        W25151  16.349  15.440   9.843 -0.3468 -0.0372 -0.1490
 5618W        W25152   0.396   7.943   2.722  0.0339 -0.3405  0.1893
 5619W        W25153   6.708   9.345  11.228  0.1893 -0.3571 -0.1595
 5620W        W25154   1.645   3.782  11.018  0.2207 -0.2450  0.1721
 5621W        W25155  12.030   3.488   1.683  0.1482  0.2080 -0.2237
 5622W        W25156  11.537  12.113   1.131  0.2540 -0.0504 -0.0545
 5623W        W25157  15.414  18.850  13.496 -0.0790  0.0096 -0.0689
 5624W        W25158  17.532   1.499   1.601 -0.0676  0.0020 -0.0555
 5625W        W25159   5.149   4.687  13.680  0.2208  0.1950 -0.1252
 5626W        W25160   6.409  10.032   3.891 -0.3549 -0.0218  0.1656
 5627W        W25161  11.849   7.677  11.277  0.0569  0.0629 -0.1564
 5628W        W25162  15.590   2.171   2.229  0.1043 -0.1700 -0.4808
 5629W        W25163   1.825   3.853  13.474  0.0298 -0.0976  0.0318
 5630W        W25164   5.803   1.852   0.131  0.0527  0.0776  0.2823
 5631W        W25165   3.269  11.826   4.472 -0.3465  0.4403 -0.1285
 5632W        W25166  10.287   7.263   4.552 -0.1889 -0.2363  0.0642
 5633W        W25167  10.956   9.408  11.197  0.1152  0.0822 -0.0095
 5634W        W25168  16.989   3.020   0.051 -0.2046  0.0894 -0.0305
 5635W        W25169   0.840   5.477  10.051 -0.1003  0.2232 -0.0066
 5636W        W25170   1.413   9.626  12.751  0.4624  0.6151  0.1227
 5637W        W25171  17.567  15.291   9.833  0.2524  0.0761 -0.3094
 5638W        W25172  16.141  11.271   4.328 -0.1154  0.0441  0.2180
 5639W        W25173  15.398   2.055  14.265 -0.0614  0.2782 -0.1439
 5640W        W25174   3.982   5.813  11.849 -0.3419 -0.0002 -0.1716
 5641W        W25175  14.216   8.413   1.436  0.3643  0.1454 -0.2334
 5642W        W25176  12.578  12.896  11.227 -0.1221  0.0416 -0.3876
 5643W        W25177  11.674   6.744  14.127  0.0003 -0.1234  0.1268
 5644W        W25178  10.078  16.504   1.372 -0.2835  0.2545  0.1574
 5645W        W25179   1.553   8.284   3.909 -0.0630 -0.0716  0.3115
 5646W        W25180  18.370  16.296  12.325  0.2857  0.0466 -0.3095
 5647W        W25181   3.778   0.765   2.826 -0.0663  0.2077 -0.1966
 5648W        W25182  19.117   7.670   2.846 -0.1700 -0.0771 -0.1434
 5649W        W25183  11.759   0.413   3.510  0.0977  0.0177 -0.1901
 5650W        W25184  10.782   3.094  12.173 -0.2545  0.0440  0.1665
 5651W        W25185  14.355   4.177   0.440  0.1795  0.1913 -0.0153
 5652W        W25186   0.298   0.685  12.658 -0.0736 -0.1261 -0.1483
 5653W        W25187   3.967   8.968   1.451  0.0087  0.0660  0.1300
 5654W        W25188   3.253   5.272  10.291 -0.0224  0.3300 -0.2263
 5655W        W25189   6.331  12.547  10.371 -0.0344  0.3357  0.1671
 5656W        W25190   7.838  14.696  11.009  0.0574 -0.1509 -0.0741
 5657W        W25191   0.737   5.526   2.003  0.3933 -0.1461 -0.0666
 5658W        W25192  13.440   8.520   0.907  0.3173  0.1541 -0.0211
 5659W        W25193   9.998   9.243   3.376 -0.2885  0.1502  0.0974
 5660W        W25194   4.938   6.760   4.092  0.1369 -0.1639 -0.2327
 5661W        W25195  10.095  18.952   1.476  0.1480  0.1048  0.2112
 5662W        W25196  13.365   8.983  11.355 -0.3342 -0.1191 -0.1977
 5663W        W25197   4.867   8.357  11.601  0.1966 -0.0200 -0.2758
 5664W        W25198   7.219   1.804   0.785 -0.0450  0.0073 -0.0579
 5665W        W25199   0.073   7.211  10.622 -0.4981 -0.0937  0.1181
 5666W        W25200   8.592  16.483  14.613  0.0086  0.0535  0.0285
 5667W        W25201   2.726  12.169  11.241  0.1774 -0.1260 -0.1296
 5668W        W25202  13.100   3.478   9.483 -0.0222  0.0103 -0.1096
 5669W        W25203   7.229  14.112   5.158  0.0130 -0.1433  0.1590
 5670W        W25204   5.383   8.749  13.049 -0.1468 -0.0985  0.0174
 5671W        W25205   4.401   2.056   0.339  0.1983 -0.0797  0.4019
 5672W        W25206  15.172   9.136   1.227 -0.3013 -0.2401 -0.2498
 5673W        W25207  15.636  13.776   2.475 -0.1679  0.1173 -0.1309
 5674W        W25208  11.063  10.670  14.658 -0.1325  0.3452 -0.0020
 5675W        W25209   9.209   6.049  12.281  0.0444  0.1464  0.1622
 5676W        W25210  14.091  16.529  11.158 -0.0275 -0.0197  0.3389
 5677W        W25211   1.303  12.488   0.112 -0.2586  0.1410  0.0718
 5678W        W25212  12.167  15.018   1.598  0.0813 -0.2511 -0.0631
 5679W        W25213  13.940  18.622   4.172  0.1003 -0.2098 -0.0469
 5680W        W25214   1.181   3.896  12.730 -0.0141 -0.1852  0.1035
 5681W        W25215  12.519   2.931   4.394  0.0368  0.1948 -0.3251
 5682W        W25216   3.823  13.242  14.075 -0.1420  0.2270  0.0122
 5683W        W25217   0.511  14.410  12.082 -0.1617  0.1013 -0.0776
 5684W        W25218  15.720   0.417   3.640  0.1690 -0.1055  0.3012
 5685W        W25219   8.565   4.977  11.459  0.1177 -0.1006 -0.0534
 5686W        W25220   1.353  11.135   1.524  0.2947 -0.1734  0.2838
 5687W        W25221   6.115   3.671  11.553 -0.0781  0.1472  0.1290
 5688W        W25222  18.944   5.749  10.198  0.1863 -0.0747  0.2575
 5689W        W25223  17.020  13.408  14.141 -0.0502  0.1437  0.0346
 5690W        W25224  12.374   8.482   1.121 -0.1616 -0.1938 -0.0927
 5691W        W25225   6.080   1.857  13.162 -0.1569  0.1005  0.2146
 5692W        W25226   6.234  15.059   0.823  0.1021  0.3826  0.0923
 5693W        W25227  12.902   2.835   4.713 -0.0298 -0.1404 -0.1417
 5694W        W25228   4.700   4.302   2.151  0.1391 -0.2338 -0.0754
 5695W        W25229   8.231   1.334  12.968 -0.3084 -0.0567 -0.0391
 5696W        W25230   7.514  16.180  11.181  0.2581 -0.1552 -0.2909
 5697W        W25231   3.569  17.828  12.503 -0.0345 -0.2353  0.0554
 5698W        W25232  14.654   8.301   1.626 -0.1198 -0.0387 -0.0190
 5699W        W25233   6.612  15.011   3.106  0.1676  0.0086  0.1429
 5700W        W25234   0.908  13.107  12.015 -0.1805  0.1464 -0.0035
 5701W        W25235   8.034   0.905   3.264 -0.1602  0.1758 -0.0419
 5702W        W25236   6.795   2.275   0.102 -0.0146 -0.0729  0.0958
 5703W        W25237   4.356   1.352  10.690 -0.3967 -0.1260 -0.0060
 5704W        W25238   5.029  17.913   0.019 -0.3334  0.0839  0.0715
 5705W        W25239   6.729  10.006   5.090 -0.1226 -0.0661  0.0914
 5706W        W25240   7.267   9.544   3.929  0.0655 -0.0636 -0.2626
 5707W        W25241  14.654   0.442   1.354 -0.0216 -0.1035  0.0705
 5708W        W25242  18.287  16.064   2.366 -0.3112 -0.0720  0.0403
 5709W        W25243  16.760  18.412  14.154  0.1718 -0.1697  0.0509
 5710W        W25244  18.014  10.997  14.074 -0.3520  0.1619 -0.0366
 5711W        W25245   1.165  11.226   1.024  0.0707  0.1741  0.1194
 5712W        W25246   0.389   1.617  14.833 -0.1526  0.0276  0.0910
 5713W        W25247  15.434  14.347  12.314 -0.4828  0.3975  0.0676
 5714W        W25248  14.400  15.482   2.725 -0.2340 -0.1083 -0.1670
 5715W        W25249   8.421   8.201   1.312 -0.3602  0.0122 -0.1325
 5716W        W25250  15.312   0.654   9.500 -0.0577  0.0727  0.1802
 5717W        W25251  17.996  10.579   2.749  0.3148  0.1020  0.0815
 5718W        W25252  16.327   1.068   2.634 -0.2281  0.1247  0.2490
 5719W        W25253   6.388   8.595   9.786  0.3825  0.0125  0.1401
 5720W        W25254   6.158   6.865   2.113  0.1271 -0.2110  0.0967
 5721W        W25255   1.622   9.984   1.787  0.2017  0.1631 -0.0140
 5722W        W25256  14.907  14.462  14.115 -0.4113 -0.0272 -0.2828
 5723W        W25257   8.011  11.792   1.524  0.2251  0.1283 -0.2994
 5724W        W25258   5.727  14.257   0.564 -0.2158  0.0677  0.2665
 5725W        W25259   0.988  15.612  14.506  0.1635  0.1868 -0.0322
 5726W        W25260  11.731   4.628  14.038 -0.2962  0.1614  0.2552
 5727W        W25261  18.163  19.023  14.452 -0.2843  0.0704 -0.4389
 5728W        W25262   0.545   8.964  12.598 -0.0302  0.0983  0.1341
 5729W        W25263  16.041   2.280  11.228  0.3223 -0.2443  0.0034
 5730W        W25264   0.502   8.853   2.712 -0.2081  0.1409  0.0125
 5731W        W25265  16.682   8.699   0.186 -0.1674 -0.3297  0.2441
 5732W        W25266   1.442   8.202  13.710 -0.1618 -0.1090 -0.4112
 5733W        W25267   5.867   9.904  11.936 -0.0614 -0.1024  0.0412
 5734W        W25268  15.038  15.370   1.351  0.1360 -0.3386  0.1393
 5735W        W25269   0.240   7.092   1.103 -0.1519  0.2630  0.0989
 5736W        W25270  13.718   4.041  12.611  0.1743 -0.1828  0.1001
 5737W        W25271   9.870  12.570  13.508 -0.2533  0.0090 -0.0363
 5738W        W25272  14.108  10.073   3.710  0.1868  0.3906  0.2284
 5739W        W25273  17.743   2.029  13.499 -0.0464 -0.0840 -0.0193
 5740W        W25274  16.952   3.422  14.624 -0.0234 -0.1831  0.1646
 5741W        W25275   3.732  12.007   4.283  0.2313 -0.0254 -0.2370
 5742W        W25276   6.937  13.426   2.100 -0.1396 -0.0691 -0.3285
 5743W        W25277   2.217   6.556  11.615  0.1983 -0.1221 -0.3442
 5744W        W25278   5.044  19.089  12.867 -0.1174  0.2554 -0.3409
 5745W        W25279   3.430   3.940   0.580  0.0957  0.1356  0.0201
 5746W        W25280   9.005  17.827  12.063 -0.0587  0.0984 -0.5317
 5747W        W25281  16.326  16.782   1.278 -0.0248  0.1028  0.0472
 5748W        W25282   9.882   5.323  11.561 -0.2152 -0.0898  0.0952
 5749W        W25283   6.476   4.765   0.020 -0.3014 -0.1338  0.0816
 5750W        W25284   8.694   4.705  14.404  0.2134 -0.0565 -0.2820
 5751W        W25285  16.828  14.900   1.335 -0.0117 -0.4862 -0.3157
 5752W        W25286   0.503   4.234  12.347  0.0666  0.3212 -0.2512
 5753W        W25287   7.545   4.645   2.395  0.0510  0.5682  0.0968
 5754W        W25288  18.158   8.678   4.583 -0.1727  0.1906  0.0259
 5755W        W25289  16.754   6.032  12.097  0.2066 -0.1115  0.1790
 5756W        W25290   8.795  18.773   1.047 -0.2161 -0.3735  0.0802
 5757W        W25291  15.918   9.367  14.073  0.4391 -0.3405 -0.1141
 5758W        W25292  17.585  12.017   3.129 -0.1532  0.0687  0.2320
 5759W        W25293   0.545   5.568   0.194 -0.1402  0.4276  0.0159
 5760W        W25294   4.105   4.503   0.729  0.0011 -0.2130 -0.1597
 5761W        W25295  13.180   7.626   0.340 -0.1595  0.0577 -0.1205
 5762W        W25296   5.329  15.353   2.971  0.1000  0.2106  0.1109
 5763W        W25297  15.198  15.010  11.040  0.6279 -0.1047 -0.0489
 5764W        W25298  11.550   5.979   1.072  0.1523 -0.1268  0.0723
 5765W        W25299   0.449   5.890   0.561  0.0682 -0.2410  0.0208
 5766W        W25300   3.575  13.117   3.328 -0.3720 -0.2029 -0.1734
 5767W        W25301  16.205   4.045   3.224 -0.1962 -0.2194  0.3241
 5768W        W25302  10.936  11.293  10.564  0.0562  0.0586  0.1812
 5769W        W25303   2.515  15.058  11.482  0.1288 -0.3965  0.0747
 5770W        W25304  13.474   5.717   2.471 -0.1850  0.1734 -0.0350
 5771W        W25305  17.816   3.966  13.263  0.0806 -0.1092  0.2021
 5772W        W25306   1.871   5.740  13.751  0.1741 -0.0344  0.0315
 5773W        W25307  17.568  16.740  12.437 -0.4490 -0.1490 -0.0177
 5774W        W25308  16.518   3.939  10.703  0.1048 -0.2848  0.1120
 5775W        W25309   1.506  15.335  13.205  0.3192  0.0931  0.0674
 5776W        W25310  14.548   8.354   4.492 -0.0202 -0.0413 -0.4046
 5777W        W25311   2.191   9.821   3.074  0.0690 -0.1023 -0.3219
 5778W        W25312  15.608  13.721   3.793  0.0941  0.2028 -0.0867
 5779W        W25313   4.661  12.440   0.300  0.0986  0.0819  0.2511
 5780W        W25314   3.630   7.358  14.396 -0.2861 -0.0014  0.0016
 5781W        W25315   4.014  13.432  12.974 -0.0471  0.5151  0.0332
 5782W        W25316  10.316  10.530   3.770  0.2001  0.0052 -0.0427
 5783W        W25317  16.640   4.285  11.534 -0.2075 -0.0078 -0.2953
 5784W        W25318   2.944   3.120   2.621  0.2436 -0.0592  0.0930
 5785W        W25319   7.458  17.723   3.840  0.3178  0.3950  0.0565
 5786W        W25320   3.504  11.959  11.902  0.1732 -0.0219  0.1055
 5787W        W25321  13.953   0.212   3.496 -0.2969  0.1399  0.0818
 5788W        W25322   5.318   5.544  10.734  0.2096 -0.0272 -0.0296
 5789W        W25323   8.542   1.682  14.441 -0.2679  0.0842 -0.0203
 5790W        W25324   4.532  14.499  11.107 -0.2643  0.3979 -0.0122
 5791W        W25325  10.842  13.025  12.755  0.1781  0.0984 -0.1488
 5792W        W25326  17.478   4.238   9.852 -0.2915 -0.1888  0.1645
 5793W        W25327  16.821   8.096   2.894 -0.3547  0.2254  0.2283
 5794W        W25328   7.345  14.370   0.805  0.3962  0.1304  0.2160
 5795W        W25329  13.928  15.346   4.467 -0.3217 -0.2210  0.0158
 5796W        W25330   6.758  15.723  12.645  0.0046  0.1027  0.0665
 5797W        W25331   5.740  11.906  10.962 -0.4639  0.0078  0.0939
 5798W        W25332  11.976   0.310   3.076  0.4071  0.1985  0.0647
 5799W        W25333  18.512  12.927   0.406  0.1035 -0.1711  0.0524
 5800W        W25334  18.928   8.143   3.656  0.0599  0.0372 -0.2357
 5801W        W25335   0.788  13.036  10.157 -0.2070  0.0494 -0.0003
 5802W        W25336   1.790  17.571   2.689  0.1404  0.1620 -0.0355
 5803W        W25337   6.640  10.058  13.408  0.0538 -0.0124  0.1552
 5804W        W25338   0.832   5.479   2.559  0.1339 -0.0971  0.1038
 5805W        W25339  13.519  12.261  13.147  0.1295 -0.2413  0.1009
 5806W        W25340   6.545  17.475  11.283  0.0232  0.1672 -0.2212
 5807W        W25341  13.030   9.594   3.340 -0.0189  0.3844 -0.1648
 5808W        W25342  10.593   5.275   3.998 -0.1169 -0.1603 -0.1353
 5809W        W25343   5.286  10.470  12.271  0.2339 -0.3400 -0.1433
 5810W        W25344  16.637  18.775  10.625  0.0365  0.0244  0.0467
 5811W        W25345  13.496   3.889   5.221  0.0048 -0.1521 -0.0852
 5812W        W25346  11.437  15.316  11.780 -0.2299 -0.0212  0.1000
 5813W        W25347  18.004   3.342  12.791  0.0509 -0.0804 -0.0835
 5814W        W25348  17.682  15.590  14.354  0.1901  0.1760 -0.2238
 5815W        W25349  18.878  10.337   0.456 -0.2319 -0.1235 -0.0613
 5816W        W25350  10.072  15.309  12.070 -0.0321 -0.0559 -0.0326
 5817W        W25351   9.107   9.262   0.749 -0.0139  0.0618  0.2280
 5818W        W25352   1.436  16.831  14.028 -0.0560  0.0181  0.0448
 5819W        W25353   5.153   0.696   2.599 -0.1739 -0.1831  0.1266
 5820W        W25354   1.560   5.424   1.920 -0.0612 -0.2438  0.2823
 5821W        W25355  18.664   7.144   2.794  0.1198  0.2371 -0.0940
 5822W        W25356  18.293  14.963  13.983 -0.1760  0.0854 -0.1772
 5823W        W25357   8.225  15.532   3.719  0.3697  0.1730 -0.0508
 5824W        W25358   7.547  18.858  11.489 -0.2412 -0.0657 -0.4414
 5825W        W25359   8.020   3.747  13.589  0.1187  0.1508  0.2666
 5826W        W25360   9.703   1.400  12.454  0.1171 -0.1632 -0.1246
 5827W        W25361  10.721   9.768  12.166  0.1971  0.1187 -0.1085
 5828W        W25362  12.150   2.595  10.746 -0.1634 -0.0103 -0.2001
 5829W        W25363   7.755  14.786   0.499 -0.1353  0.1637 -0.1360
 5830W        W25364  11.305   5.070   3.023 -0.0645 -0.1499  0.0147
 5831W        W25365   6.052   9.286  13.294 -0.1787  0.2375 -0.0918
 5832W        W25366  11.511   6.273  14.105 -0.3877 -0.1518  0.1505
 5833W        W25367  12.555   6.175  11.768  0.0144  0.1504 -0.0530
 5834W        W25368   7.498  16.043  12.168 -0.1080 -0.2248  0.2180
 5835W        W25369   3.030   6.466   5.180 -0.0680  0.0674 -0.1254
 5836W        W25370  11.653  18.856   2.238 -0.1249 -0.1197  0.1401
 5837W        W25371  18.435   7.867  14.640 -0.2362 -0.1773  0.1871
 5838W        W25372  16.734  18.906  12.587  0.0652 -0.0162 -0.0388
 5839W        W25373   1.920   4.283   1.878 -0.2087  0.1468 -0.0538
 5840W        W25374   7.393  17.042  13.090  0.2938  0.0118  0.2019
 5841W        W25375  18.561   1.011  13.940  0.2030  0.0719 -0.3332
 5842W        W25376  12.405   6.933   3.088  0.0599 -0.2293 -0.0684
 5843W        W25377   4.701   3.424   2.460 -0.0179  0.0955  0.2572
 5844W        W25378   8.439   7.537   1.329  0.2195 -0.1166  0.0736
 5845W        W25379   3.288   2.163   3.243 -0.2137  0.1431 -0.0222
 5846W        W25380  16.832  16.597   3.300  0.1556 -0.0918  0.1090
 5847W        W25381   8.393   8.800  11.982  0.0598  0.0710 -0.1014
 5848W        W25382  19.094   9.205   1.091  0.1450  0.0579 -0.2351
 5849W        W25383   9.148   3.538   4.233 -0.0429  0.0689  0.3490
 5850W        W25384   4.220  16.783   0.892  0.1460  0.0649 -0.2352
 5851W        W25385   4.143  11.738  11.316 -0.2057 -0.0454 -0.1741
 5852W        W25386   8.208   6.885  12.954  0.0419  0.0165 -0.1678
 5853W        W25387  17.115  11.144  14.332 -0.0012 -0.2007  0.1960
 5854W        W25388  16.986  11.928   3.849  0.3598  0.1141 -0.0888
 5855W        W25389  17.460   9.727  12.457  0.1637  0.3542 -0.0892
 5856W        W25390   6.167   1.127   0.605 -0.0070 -0.0517  0.0626
 5857W        W25391   8.885   9.111   1.161  0.1395 -0.0564 -0.0120
 5858W        W25392  10.963  12.318  11.338 -0.0753  0.0459 -0.0052
 5859W        W25393  13.786  12.820  13.820  0.0592 -0.1705  0.4052
 5860W        W25394   8.453  10.715  11.270  0.2921  0.2263 -0.1730
 5861W        W25395   6.590   2.397  13.379  0.3891  0.0487  0.0714
 5862W        W25396   9.311  13.052   1.547 -0.3054  0.0145  0.1082
 5863W        W25397  15.138  15.050   3.206 -0.1258 -0.0546 -0.1062
 5864W        W25398   5.425   0.281  11.163  0.0697  0.3146  0.2840
 5865W        W25399  10.091   9.453  12.147  0.0935 -0.1320 -0.1094
 5866W        W25400   5.919   3.427   1.284  0.0475  0.1049 -0.0181
 5867W        W25401   2.553   2.656  10.503  0.0018  0.2383 -0.1855
 5868W        W25402   5.114   0.957   1.652  0.1611  0.0889  0.0383
 5869W        W25403  14.012  18.861   1.619 -0.2591  0.1235  0.0070
 5870W        W25404  14.636   8.871   2.937 -0.2476 -0.4539  0.0292
 5871W        W25405   5.398  10.858  12.593  0.2775 -0.1981  0.0320
 5872W        W25406  12.712   8.567  12.981 -0.1066 -0.1317 -0.1489
 5873W        W25407  12.085  10.697   1.768  0.1188 -0.1947 -0.0341
 5874W        W25408  13.515  16.604  11.846  0.1610 -0.2745  0.2098
 5875W        W25409  15.099  19.116   4.066 -0.0316  0.1846  0.0736
 5876W        W25410   7.691  12.319   4.778 -0.0266  0.0987 -0.0271
 5877W        W25411  15.738   6.680  11.608  0.1826 -0.2137  0.3551
 5878W        W25412   8.019   5.320  14.327 -0.0015  0.1197  0.1592
 5879W        W25413  18.674   1.222  12.966  0.1318  0.0409 -0.4728
 5880W        W25414  17.017   4.820  14.299 -0.2339  0.0530  0.1649
 5881W        W25415  13.424   7.499   3.475  0.1130  0.1068 -0.1447
 5882W        W25416  17.264   6.845  12.223  0.2158 -0.2713 -0.2881
 5883W        W25417   4.054  11.179  14.110 -0.1655 -0.0471 -0.2772
 5884W        W25418   1.788  17.771  14.157  0.0412  0.2300 -0.0548
 5885W        W25419   2.170   8.833   5.077 -0.1548  0.4587  0.0225
 5886W        W25420  12.067  16.356  13.235 -0.2085 -0.2060  0.0853
 5887W        W25421   0.261   8.733  13.769  0.3141  0.2037 -0.2297
 5888W        W25422   7.530   7.514   3.778  0.3990 -0.1568 -0.3555
 5889W        W25423   5.331  12.030   1.136  0.2389 -0.0371  0.0519
 5890W        W25424   1.861  18.432  12.082  0.0221 -0.1154 -0.0232
 5891W        W25425   8.685  10.462  13.713  0.4625  0.0148  0.0098
 5892W        W25426   6.278  10.681  12.946  0.1908 -0.2564  0.3248
 5893W        W25427   0.160   2.431   0.556 -0.2961 -0.0591  0.2178
 5894W        W25428   6.223  14.362   2.075  0.2921  0.1538  0.1132
 5895W        W25429  10.906  12.349   4.221  0.1108  0.1080 -0.1974
 5896W        W25430  16.411  14.767   1.760  0.1122 -0.0011  0.1617
 5897W        W25431   4.409  18.629   3.329 -0.2106  0.2069 -0.2031
 5898W        W25432   8.328   5.256  12.882 -0.1880  0.2364  0.2273
 5899W        W25433   2.294  18.195   3.304 -0.0540 -0.2430  0.2811
 5900W        W25434  15.497   0.496  11.009 -0.2389 -0.1256 -0.1109
 5901W        W25435   2.989   3.530  13.610 -0.0929 -0.1392  0.1498
 5902W        W25436   7.278   3.524  11.087  0.0638  0.0091 -0.0194
 5903W        W25437   4.521   1.197   3.302 -0.0365  0.3071  0.0679
 5904W        W25438   0.852   4.828   1.292 -0.0267 -0.2017  0.1124
 5905W        W25439  10.167  14.510   1.951 -0.0326 -0.1010 -0.0701
 5906W        W25440  14.715   3.703  14.585 -0.0625 -0.1967  0.0167
 5907W        W25441  15.157   5.964  11.206  0.0316  0.0847  0.3174
 5908W        W25442  18.495   0.492   3.840  0.0767  0.1695 -0.4225
 5909W        W25443   1.787   4.608   2.873  0.0011  0.0892  0.0301
 5910W        W25444  11.331  17.796  11.915  0.1816  0.0347 -0.0608
 5911W        W25445  16.248   7.819  13.674  0.0115  0.1531 -0.3127
 5912W        W25446   7.561   2.379   1.318  0.0961 -0.1612 -0.0086
 5913W        W25447   7.233  15.301  13.677 -0.1033 -0.0307  0.0427
 5914W        W25448  15.100   0.407  10.641 -0.0744 -0.1010  0.1420
 5915W        W25449   2.777  11.206  11.395  0.0308  0.0088 -0.0839
 5916W        W25450   3.936   3.142  10.681 -0.0584 -0.0461  0.0101
 5917W        W25451  17.860   5.134  10.216 -0.0152 -0.4518  0.0947
 5918W        W25452   9.037   0.564   4.352 -0.3567  0.0620  0.3828
 5919W        W25453   6.159  15.536  13.696  0.0414 -0.0926  0.0520
 5920W        W25454   6.459  13.703   0.748  0.2092  0.1775 -0.0553
 5921W        W25455  14.112   5.786   1.716  0.2560 -0.4364  0.0886
 5922W        W25456  17.375   7.695   0.617  0.0668 -0.0813  0.1077
 5923W        W25457  10.622  10.159   0.969  0.2939 -0.2756  0.1097
 5924W        W25458  18.285   4.639  13.916 -0.2973  0.1967 -0.0244
 5925W        W25459   8.562  14.609  12.212  0.0874  0.0311 -0.1100
 5926W        W25460  15.899   5.016   0.132  0.1661 -0.1705  0.2054
 5927W        W25461   7.167  17.826   1.536 -0.2007  0.2394  0.2878
 5928W        W25462   8.469   0.225  11.650  0.0591  0.0425 -0.3895
 5929W        W25463   4.018   8.713   2.944 -0.0369  0.0482  0.2282
 5930W        W25464   7.790  11.520  14.528  0.1436 -0.0211 -0.2611
 5931W        W25465   8.356   0.580  14.344 -0.2962 -0.4570  0.1440
 5932W        W25466   3.021  15.312   1.044  0.1124 -0.4618  0.2147
 5933W        W25467   6.652   4.681  12.067  0.0275 -0.0689 -0.1925
 5934W        W25468  17.386  11.811   1.729 -0.1316 -0.3525  0.1382
 5935W        W25469  12.107   9.891  12.910  0.0085  0.1350 -0.2423
 5936W        W25470  14.334   9.598  14.362 -0.1430  0.1201  0.0998
 5937W        W25471  18.166   0.227   2.303 -0.2773  0.1929  0.0699
 5938W        W25472   1.887   2.263   2.033 -0.1899 -0.1002  0.1041
 5939W        W25473   7.894   8.809  13.630 -0.0077  0.1161  0.0085
 5940W        W25474   5.053  12.039   4.472  0.1097  0.2204 -0.0310
 5941W        W25475   3.252  17.853  13.891  0.0737 -0.1454  0.0724
 5942W        W25476  11.601   5.197  10.857  0.1967  0.0139  0.1498
 5943W        W25477  17.082  13.058   0.844 -0.1859  0.1521  0.2006
 5944W        W25478   7.737   4.623  13.154 -0.1079  0.1406  0.1113
 5945W        W25479  10.241   0.230   1.146 -0.0380 -0.0155  0.2477
 5946W        W25480  13.850   4.619   2.148 -0.0127  0.0558 -0.0220
 5947W        W25481  14.803  17.115  14.116 -0.1413 -0.1387  0.4113
 5948W        W25482   1.027  17.354  11.677 -0.4215  0.2727 -0.5709
 5949W        W25483   5.799   9.723   3.146 -0.1160 -0.1122 -0.0074
 5950W        W25484  12.207  18.261  12.541 -0.0357 -0.1552 -0.0650
 5951W        W25485  12.266   3.281  14.442  0.0244 -0.4285  0.4423
 5952W        W25486  14.032   9.770  10.457 -0.3503  0.0608  0.2429
 5953W        W25487   2.782  14.021   1.170 -0.1904 -0.4366 -0.0904
 5954W        W25488   8.601   9.295   0.699 -0.0762  0.3132 -0.1967
 5955W        W25489  15.500  12.075   3.193 -0.1550  0.0568  0.1384
 5956W        W25490  11.148   1.804  11.043 -0.1481  0.0033  0.2103
 5957W        W25491   2.285  13.970   2.144 -0.0669 -0.0645 -0.2187
 5958W        W25492  14.524  11.852  10.676  0.1225  0.0468 -0.1506
 5959W        W25493   1.318   8.841   0.011 -0.4480  0.2778 -0.1403
 5960W        W25494   0.143  16.672  11.447  0.2699  0.2300 -0.0174
 5961W        W25495  12.371   2.411  11.900  0.1297  0.1258  0.0763
 5962W        W25496   2.747  18.530   1.525  0.0413 -0.1817 -0.1206
 5963W        W25497   9.895   2.907  13.299 -0.2279 -0.1641  0.0767
 5964W        W25498  11.437  18.322  11.872 -0.2400 -0.1889  0.0660
 5965W        W25499   1.404   1.076  10.666 -0.3789  0.1851 -0.1587
 5966W        W25500   8.680   9.390  13.308 -0.2974  0.2537  0.2662
 5967W        W25501   8.025   9.524   3.007 -0.2316 -0.0649  0.0164
 5968W        W25502  18.025   8.974  12.952 -0.1777 -0.3482 -0.0210
 5969W        W25503   5.535   1.774   2.806  0.3154  0.1360  0.0564
 5970W        W25504   3.309   8.042   2.270  0.0552 -0.0711  0.3894
 5971W        W25505  17.045   7.203   2.010  0.0505  0.2663 -0.2091
 5972W        W25506   6.615   0.861  12.514  0.0649  0.0765 -0.0881
 5973W        W25507  16.929  13.908  14.611 -0.3264  0.2366 -0.0401
 5974W        W25508  18.320   2.751   3.748 -0.1410 -0.0549  0.1533
 5975W        W25509   4.748   5.654  11.332 -0.1744 -0.0329 -0.0781
 5976W        W25510   6.876   9.372  13.375  0.1831 -0.0092  0.0276
 5977W        W25511  10.286   4.528   3.414 -0.0490  0.0927  0.1890
 5978W        W25512  16.417  12.130   4.331 -0.1039  0.3726 -0.3339
 5979W        W25513  19.001  13.215   0.372 -0.2305  0.0860  0.3241
 5980W        W25514  13.657  16.547   3.989 -0.1516 -0.1771  0.2114
 5981W        W25515  15.415  11.869  14.582 -0.3662  0.0001  0.0670
 5982W        W25516  16.408   0.386   4.200  0.1324  0.0257  0.0094
 5983W        W25517   3.000  14.755  11.722 -0.2243 -0.1756  0.0786
 5984W        W25518  15.623   7.572  12.549  0.0631 -0.0241 -0.5178
 5985W        W25519   1.004   1.421  11.101 -0.0929  0.1967  0.0499
 5986W        W25520   2.958  10.522   1.449  0.0458 -0.0315 -0.2992
 5987W        W25521   5.152  10.358   2.810  0.3366 -0.0343  0.0807
 5988W        W25522  18.814  14.280  12.262 -0.1138 -0.2007  0.1505
 5989W        W25523   8.620  13.855  14.537 -0.0307 -0.1966  0.1360
 5990W        W25524   8.218  11.572  11.259  0.0990 -0.3215 -0.0348
 5991W        W25525  12.694  13.343  12.581  0.0454  0.0605 -0.1639
 5992W        W25526   5.107   7.028   2.144 -0.1697  0.0356 -0.2362
 5993W        W25527  10.820  10.630  11.708 -0.1505 -0.3293 -0.0648
 5994W        W25528   4.922   3.762  14.814 -0.0388  0.1485  0.0302
 5995W        W25529  16.359   0.638   9.452 -0.1839  0.2152 -0.0203
 5996W        W25530   0.575   2.528  14.727  0.0145  0.4207  0.0385
 5997W        W25531   9.260   4.520   3.352 -0.1061 -0.0155  0.0503
 5998W        W25532  15.624   9.483   3.252  0.0361 -0.1680 -0.0059
 5999W        W25533  17.231   0.508  13.687  0.0165 -0.1531  0.2376
 6000W        W25534   2.575   1.609  13.941 -0.1094  0.1712  0.0897
 6001W        W25535   1.833  10.961   2.700 -0.1031  0.2307 -0.0555
 6002W        W25536   4.980   7.178   3.685 -0.1190 -0.0043  0.2723
 6003W        W25537  17.889  18.729  13.524 -0.0216  0.0820  0.1306
 6004W        W25538  18.166   8.805   0.237  0.1743  0.0397 -0.0976
 6005W        W25539  18.852   5.476   1.343 -0.2021 -0.0510 -0.2534
 6006W        W25540   9.419   7.592   3.307 -0.1282  0.1914 -0.1546
 6007W        W25541   5.916   0.197  11.372  0.1133 -0.0410  0.3182
 6008W        W25542  17.164   0.947   1.526  0.0644 -0.2189 -0.0429
 6009W        W25543  13.867   0.717   0.983 -0.0530 -0.0265 -0.0546
 6010W        W25544   6.659   9.861   0.772  0.3803  0.0468 -0.0407
 6011W        W25545   3.133   4.339   2.281 -0.1774 -0.1308  0.0325
 6012W        W25546   5.856   2.115   2.941 -0.0519 -0.2585 -0.0496
 6013W        W25547  14.302  16.827  14.001  0.2051  0.1748  0.1521
 6014W        W25548   7.889   9.310  13.750  0.0629 -0.1177  0.2637
 6015W        W25549   5.180  13.130  13.871  0.1526 -0.0414 -0.2495
 6016W        W25550   3.673  16.092  14.543  0.0227 -0.0229 -0.0542
 6017W        W25551   9.602   7.406   3.796  0.0364  0.0443  0.2986
 6018W        W25552   9.343   7.597  14.161 -0.1204  0.1458  0.5144
 6019W        W25553  12.316  17.195  11.365  0.3418 -0.1966 -0.2394
 6020W        W25554   0.509   2.149   2.472  0.0654  0.0027 -0.0663
 6021W        W25555   7.863   6.131  11.797 -0.3427 -0.0248  0.0466
 6022W        W25556   3.340   7.559   3.044 -0.0134 -0.2171 -0.1049
 6023W        W25557   6.348   4.607   0.767  0.2105  0.1390 -0.5716
 6024W        W25558   1.938  18.064   3.638 -0.1554  0.0978 -0.0645
 6025W        W25559  17.015   8.501   3.356 -0.1351  0.0632  0.1553
 6026W        W25560  12.187   2.612   3.228  0.0433 -0.0983  0.0209
 6027W        W25561   0.105   5.209   0.211 -0.3478 -0.2216  0.1892
 6028W        W25562   2.011  12.388  11.562  0.1069  0.0926 -0.1759
 6029W        W25563   0.584  11.120  14.564  0.2748 -0.0874 -0.2484
 6030W        W25564   0.597   3.763   2.711  0.1289 -0.0267  0.2100
 6031W        W25565   0.342  15.617  10.826 -0.1159  0.0975 -0.0872
 6032W        W25566   6.953  10.229  11.413 -0.0973 -0.3177 -0.0850
 6033W        W25567  10.428  10.158  12.998 -0.0413  0.0713 -0.0780
 6034W        W25568   7.901  17.344  14.565  0.0318 -0.0041  0.0275
 6035W        W25569  11.754   9.382  12.960  0.1598 -0.1475 -0.1957
 6036W        W25570   5.438  15.843   0.352 -0.1705 -0.1756  0.0950
 6037W        W25571  16.060   0.434   2.366  0.0563 -0.0033 -0.1068
 6038W        W25572  15.947   3.318  10.938 -0.2645  0.3000 -0.0111
 6039W        W25573  18.560   0.982   2.771  0.0026 -0.0810 -0.2115
 6040W        W25574  12.837   0.146  11.848  0.0164 -0.0189  0.2416
 6041W        W25575   2.477  12.100   3.969  0.2473 -0.1039 -0.0197
 6042W        W25576  18.058  15.330  13.189  0.3276  0.0498  0.1950
 6043W        W25577  13.108  15.872   2.966  0.1879  0.2199  0.3851
 6044W        W25578  17.196   0.293  14.820 -0.2002  0.1737 -0.3011
 6045W        W25579  16.143   1.048   0.502  0.0387 -0.0378  0.2517
 6046W        W25580   5.544  14.971   4.106  0.2816 -0.0766  0.0102
 6047W        W25581  13.843  11.768  14.831 -0.0422 -0.0425  0.0836
 6048W        W25582  12.111   3.802   2.498  0.1359  0.3114 -0.0455
 6049W        W25583   2.351   9.307  13.281 -0.0763  0.1952 -0.1689
 6050W        W25584  11.466   4.969  12.502  0.0218 -0.0786 -0.3138
 6051W        W25585  11.053  18.501  14.619  0.1951  0.0086 -0.2679
 6052W        W25586   0.421   3.974   3.543  0.1491 -0.1788  0.0880
 6053W        W25587  14.049   2.872  10.392 -0.2873  0.2250 -0.0119
 6054W        W25588   3.314   4.591  13.630  0.0679 -0.0010  0.0281
 6055W        W25589   0.322   3.610  14.430  0.1132  0.2004 -0.1877
 6056W        W25590   8.995   3.308  14.259  0.0521 -0.0561  0.0469
 6057W        W25591  16.166   9.513   3.152  0.4333  0.0897 -0.2331
 6058W        W25592  13.868   1.884   1.471  0.0756 -0.0467 -0.1025
 6059W        W25593  18.330  18.179   3.597 -0.1211  0.1594 -0.2600
 6060W        W25594  12.110  17.360   3.373  0.2944  0.1558 -0.0581
 6061W        W25595   8.569   6.177  12.909  0.2498  0.0150 -0.1315
 6062W        W25596  10.377   5.188   1.306 -0.1671 -0.1782 -0.2371
 6063W        W25597   6.458  18.962   0.240 -0.1721  0.2558  0.0354
 6064W        W25598  14.877  13.653   1.571  0.0909 -0.0190  0.1477
 6065W        W25599   4.638  12.351  14.569 -0.3469  0.2655  0.3808
 6066W        W25600   4.253  17.546   3.612 -0.1296 -0.0947  0.0700
 6067W        W25601  10.561   0.211  11.820 -0.2457  0.0654  0.0626
 6068W        W25602   5.342  15.916  13.899 -0.1286 -0.0995 -0.1645
 6069W        W25603  15.123   2.752   0.551  0.1137  0.2024  0.0644
 6070W        W25604  11.810   2.766  11.414 -0.2667  0.0385  0.0971
 6071W        W25605   0.597  13.060  10.661  0.0014  0.1201  0.1212
 6072W        W25606   4.848   2.370   0.292 -0.1280  0.2238 -0.3003
 6073W        W25607   0.223   7.391  12.986  0.0615 -0.0020  0.1918
 6074W        W25608   4.442  12.791   4.311  0.2521  0.0758 -0.0506
 6075W        W25609  11.218   5.393  11.262  0.2541 -0.0972 -0.1169
 6076W        W25610  10.021  13.370   1.564 -0.0316  0.0397 -0.1082
 6077W        W25611  16.848   4.081   1.532  0.0617 -0.0523  0.1077
 6078W        W25612  14.640   4.361   0.802 -0.1403  0.2093 -0.1107
 6079W        W25613  15.240  18.758  11.075  0.4873 -0.0983  0.4661
 6080W        W25614   2.584   4.677   3.078  0.0976 -0.2038  0.0241
 6081W        W25615   4.683  18.879   3.765  0.1712 -0.0889 -0.0795
 6082W        W25616   3.769   2.827  11.645 -0.0475 -0.0653 -0.0183
 6083W        W25617   6.897  16.330   2.406 -0.2844 -0.0165  0.1467
 6084W        W25618  12.156   4.625  10.558  0.0417  0.1549 -0.0698
 6085W        W25619  11.975  17.819  13.642  0.1857 -0.2274  0.1053
 6086W        W25620  12.651   8.054   0.464  0.2462 -0.0736 -0.1181
 6087W        W25621  14.205   5.536  14.067 -0.1354 -0.0138 -0.0808
 6088W        W25622  10.106   8.963   3.922  0.0962  0.2598 -0.1454
 6089W        W25623   2.093   3.593  13.092  0.0743 -0.0834  0.2479
 6090W        W25624  18.415   1.474  13.814 -0.3000 -0.2610  0.1121
 6091W        W25625  15.175  11.795  12.450 -0.1149 -0.0128  0.1937
 6092W        W25626  13.710  11.781  10.704  0.0489 -0.1370 -0.1911
 6093W        W25627   6.880  12.817   2.448 -0.1253 -0.0376 -0.0906
 6094W        W25628   4.962  17.446   3.739 -0.0788 -0.2094  0.0104
 6095W        W25629  14.129   4.389  14.350 -0.0122  0.1259 -0.2099
 6096W        W25630   5.596   2.798   3.394 -0.1072  0.1842  0.2702
 6097W        W25631   5.317   9.502   0.761 -0.2097 -0.1557 -0.1414
 6098W        W25632  17.190   3.013  11.841 -0.2930  0.1673 -0.3305
 6099W        W25633  13.169  15.230  10.064 -0.1500  0.1406  0.0590
 6100W        W25634  14.522   5.229   1.225 -0.4391  0.0767 -0.1523
 6101W        W25635   4.603  14.747   1.289 -0.2816 -0.1409 -0.1287
 6102W        W25636  10.350   2.284   2.013 -0.3282  0.1159  0.4582
 6103W        W25637   1.022   0.322  12.175 -0.0522  0.0399  0.1366
 6104W        W25638   9.818   6.321   2.696 -0.0497  0.0865  0.1067
 6105W        W25639   5.569   4.652  11.270  0.2901  0.0343  0.1524
 6106W        W25640   2.465  14.836   2.433 -0.1194 -0.0384  0.0433
 6107W        W25641  17.117   5.356   0.258  0.1863  0.0081  0.1063
 6108W        W25642   6.910  14.647   3.312 -0.4502 -0.2104 -0.0160
 6109W        W25643  10.785   2.417   3.470 -0.0408 -0.1104  0.1230
 6110W        W25644   3.354  10.738  14.388 -0.1547  0.0112  0.2691
 6111W        W25645   0.887  12.500   3.077  0.0136  0.2466 -0.2756
 6112W        W25646  12.998   7.520   2.437 -0.0773 -0.2304 -0.0014
 6113W        W25647   0.249  13.221  13.459 -0.3333  0.3031 -0.3342
 6114W        W25648  18.268   6.785  13.678 -0.1180 -0.3376 -0.2901
 6115W        W25649   7.739  16.481   3.090  0.0412  0.2973 -0.3604
 6116W        W25650  17.571   0.567   3.773 -0.0185  0.1274 -0.0609
 6117W        W25651  14.276   7.658  13.402 -0.0841  0.0215 -0.2396
 6118W        W25652   6.271  11.058   2.153  0.1060  0.0207  0.0026
 6119W        W25653  16.253   8.286  14.018  0.0013  0.1176 -0.0316
 6120W        W25654  12.826   9.841  14.230 -0.2202 -0.2036 -0.0235
 6121W        W25655  13.016  10.074  11.746 -0.2343 -0.0589 -0.0034
 6122W        W25656  17.453   3.451   1.444 -0.2214 -0.0021  0.0697
 6123W        W25657   2.737   5.711   1.305  0.0303 -0.0406 -0.3578
 6124W        W25658  10.363   1.940   4.633  0.0111  0.3361 -0.2648
 6125W        W25659  14.704   8.356   0.239  0.1428 -0.0116  0.1675
 6126W        W25660  11.557   5.785   5.111  0.3266  0.2858 -0.2830
 6127W        W25661   5.605  10.131  12.724  0.3533 -0.2695 -0.1723
 6128W        W25662   1.824  15.408   0.094  0.1726  0.1504  0.2837
 6129W        W25663   7.260   6.999   0.487  0.0292  0.0283 -0.3033
 6130W        W25664   5.671  14.456   2.034  0.2201 -0.2399 -0.1538
 6131W        W25665   5.353   9.088   4.181  0.2123  0.0648  0.0470
 6132W        W25666  12.451   8.567  12.233  0.0565 -0.2430 -0.0814
 6133W        W25667   1.175  13.554   3.281 -0.1337  0.2296  0.3224
 6134W        W25668   9.159   0.524  12.932 -0.0725 -0.0352  0.1034
 6135W        W25669   6.114  12.462  12.320 -0.4709 -0.1028  0.0577
 6136W        W25670  14.781   4.594   0.369  0.2172  0.1102 -0.0413
 6137W        W25671   8.627  17.111   3.514 -0.0767 -0.2260  0.1691
 6138W        W25672  15.000  16.783   0.014 -0.0866 -0.0572 -0.2010
 6139W        W25673   8.270   0.847   2.826  0.0744  0.0163 -0.3369
 6140W        W25674   2.783   0.830   0.646 -0.3071 -0.0213  0.1373
 6141W        W25675  15.570  16.266  11.312 -0.7525  0.2889  0.0458
 6142W        W25676   6.562   2.750  11.460  0.1613 -0.1109  0.1850
 6143W        W25677  15.192   4.339  12.988  0.1545 -0.0929  0.3271
 6144W        W25678   9.716   6.251   1.018  0.0613 -0.0870  0.0565
 6145W        W25679   9.107  18.448   0.824  0.0768 -0.3240  0.0520
 6146W        W25680   2.217  16.120   1.833  0.4054 -0.0868  0.2837
 6147W        W25681   3.562  14.927   2.454 -0.0162 -0.0349 -0.2577
 6148W        W25682   8.892  12.492  14.543  0.2441  0.1523  0.1249
 6149W        W25683   6.982  16.505   4.743  0.0947  0.0725  0.0055
 6150W        W25684  15.993  15.169  10.159 -0.0988  0.1909  0.0545
 6151W        W25685  17.462   3.910  10.643  0.2949 -0.0265  0.2636
 6152W        W25686   5.860   4.839  10.907 -0.2507  0.0401 -0.2560
 6153W        W25687  13.151  10.747   1.110 -0.0574  0.0954 -0.0858
 6154W        W25688   5.244   6.705   3.174  0.0117 -0.0100  0.2967
 6155W        W25689  16.060   4.230  10.652 -0.1662  0.1590 -0.1914
 6156W        W25690  12.488   6.509   0.847 -0.0610 -0.2893 -0.0379
 6157W        W25691  16.310  15.644   2.415 -0.0389 -0.1031 -0.0008
 6158W        W25692  12.596   2.305   1.362  0.3106  0.2497 -0.2285
 6159W        W25693  15.936  11.569   0.229 -0.0026 -0.0382  0.0749
 6160W        W25694  18.655   8.256  12.419  0.1045  0.2386  0.0358
 6161W        W25695  19.001   8.532   3.932  0.0071 -0.0120 -0.0407
 6162W        W25696   8.357   6.256   3.897 -0.2198 -0.0268  0.2247
 6163W        W25697  14.532   0.639  10.662 -0.2231  0.1553 -0.1820
 6164W        W25698  18.259  12.091  10.324 -0.2849  0.0146  0.0808
 6165W        W25699   7.074   1.358   2.768  0.0205  0.3279 -0.1535
 6166W        W25700  15.373   4.554   2.434 -0.0639 -0.0810  0.1234
 6167W        W25701   4.487  18.002   5.043 -0.1738  0.3325 -0.1538
 6168W        W25702  16.566   9.585   3.495  0.3827 -0.2168  0.2518
 6169W        W25703   0.134  10.018  11.869  0.1175  0.3709  0.1679
 6170W        W25704   0.654   3.237   2.086 -0.2629  0.0468 -0.1822
 6171W        W25705  16.451   4.486   2.311 -0.0380  0.0728 -0.1588
 6172W        W25706   7.313   8.179  11.101 -0.1074  0.0378 -0.1794
 6173W        W25707  15.562   4.235  10.827  0.0835 -0.0860 -0.2103
 6174W        W25708  15.170   1.954  10.628 -0.0866  0.2322  0.4423
 6175W        W25709  17.508  11.287  13.492 -0.3207  0.4105 -0.1896
 6176W        W25710  16.728   5.081   1.439 -0.1857  0.2088  0.0648
 6177W        W25711  18.430  14.050   2.833 -0.2584  0.2876  0.2452
 6178W        W25712   9.872  15.695  11.627  0.2309 -0.0693 -0.0372
 6179W        W25713   3.228  15.165   3.920 -0.0467  0.1737  0.1844
 6180W        W25714   3.933  10.103  13.051  0.0847  0.0182  0.0478
 6181W        W25715   2.072   2.232  11.951 -0.1898  0.1625 -0.0166
 6182W        W25716   8.114  16.149  12.803 -0.1338  0.0019 -0.0970
 6183W        W25717   8.588  11.328   0.441 -0.1886 -0.2496 -0.0100
 6184W        W25718  13.321   1.619  13.968  0.3031 -0.2474  0.2893
 6185W        W25719   2.017   7.335   0.211 -0.0850 -0.1567 -0.1323
 6186W        W25720   1.235   8.791  14.199 -0.0494 -0.0060 -0.0073
 6187W        W25721  15.716  13.750  10.809 -0.0410  0.2538 -0.2125
 6188W        W25722  14.485   2.456  14.289 -0.2737 -0.3912  0.1989
 6189W        W25723   0.983   6.739   0.954 -0.1727 -0.3018 -0.2179
 6190W        W25724  14.204  18.373  12.224 -0.0132  0.2793  0.0119
 6191W        W25725   1.241   0.332   1.608 -0.3049  0.0046  0.4159
 6192W        W25726   7.500   9.059  11.332  0.1754 -0.0504  0.1114
 6193W        W25727   6.579  10.006  12.443  0.3124  0.2959 -0.0030
 6194W        W25728   5.428  13.266   2.128 -0.1979  0.1512 -0.2572
 6195W        W25729  12.371  13.087  12.846 -0.1843 -0.1519  0.0053
 6196W        W25730  15.583  10.808  13.945 -0.3845  0.0575  0.3177
 6197W        W25731  11.458  16.113  11.193 -0.0588 -0.1330  0.3137
 6198W        W25732   6.330   0.170   0.762  0.2472  0.1410  0.3029
 6199W        W25733   6.417  11.124  12.453 -0.1287 -0.0294 -0.0249
 6200W        W25734  13.325  14.504  11.633 -0.2379 -0.2676  0.0800
 6201W        W25735   7.800   8.141   4.004  0.1811 -0.0018  0.3347
 6202W        W25736   4.582   2.116  12.137  0.2695  0.1186  0.0324
 6203W        W25737  17.352   9.448  14.217  0.1261 -0.0064 -0.1316
 6204W        W25738  16.284   5.368  11.906  0.1187 -0.0081 -0.0629
 6205W        W25739  18.005   7.380   0.093 -0.1086  0.4341 -0.1800
 6206W        W25740   6.664   8.074  11.127  0.1140 -0.0982  0.1071
 6207W        W25741   3.248   2.940   2.216  0.2593 -0.1123 -0.2468
 6208W        W25742   1.475  18.273   3.658 -0.3483 -0.2387  0.0723
 6209W        W25743   1.406   1.492   2.190  0.2194  0.0923 -0.1483
 6210W        W25744   5.366   6.504  10.815  0.0046  0.2469  0.0070
 6211W        W25745   3.519   6.071  11.837  0.1310 -0.0685  0.0641
 6212W        W25746   4.820  13.163  12.393 -0.1281 -0.2045 -0.0689
 6213W        W25747   3.009   4.376   3.732  0.2474  0.3755 -0.3105
 6214W        W25748  14.128   9.165  11.217  0.2850  0.0725 -0.0441
 6215W        W25749  10.974   3.855   3.942 -0.0329 -0.2357 -0.0840
 6216W        W25750  15.859   0.932   2.325  0.4865 -0.0020 -0.1051
 6217W        W25751   4.365  17.330  11.582 -0.2454 -0.0013 -0.0613
 6218W        W25752   3.742   9.423   1.360  0.0499 -0.1394 -0.0352
 6219W        W25753  11.765   6.302   2.841 -0.0201 -0.0412 -0.0460
 6220W        W25754   1.206   2.274   3.519  0.1897  0.0254  0.1191
 6221W        W25755   6.511  17.612   4.236  0.2823  0.3095 -0.0979
 6222W        W25756  16.505   8.424   3.274  0.0096 -0.1596 -0.1185
 6223W        W25757  12.931  14.989   2.653  0.1666 -0.3061  0.3301
 6224W        W25758  12.428  10.257  10.915 -0.0622 -0.4731 -0.0687
 6225W        W25759   3.493  18.861  10.606  0.0912  0.0318 -0.1492
 6226W        W25760  13.404  11.394  13.588  0.2375  0.2944  0.1784
 6227W        W25761   9.172   2.239   2.763 -0.1349 -0.3134  0.1623
 6228W        W25762   7.545   5.074   0.195 -0.0706  0.0904  0.0793
 6229W        W25763   8.143  12.656  14.512 -0.0087  0.1686 -0.2402
 6230W        W25764  14.952  13.534  10.405 -0.1340  0.1736  0.0325
 6231W        W25765  14.125  14.072  12.925 -0.3523  0.1087 -0.2055
 6232W        W25766  17.882   0.320  10.782  0.2745 -0.2268 -0.0524
 6233W        W25767   7.617   0.951   2.974  0.4132 -0.0765 -0.0008
 6234W        W25768   9.684  15.837   3.597  0.2840 -0.0249 -0.1813
 6235W        W25769   8.093  11.345  13.075  0.1112  0.0903  0.1045
 6236W        W25770  14.454   5.577   3.491 -0.2508 -0.1732 -0.0096
 6237W        W25771   6.340   4.127  14.718  0.1539 -0.0129 -0.0326
 6238W        W25772   9.345  18.182  10.357  0.1741  0.0069  0.2236
 6239W        W25773   6.391   1.830   1.333  0.0993  0.2074  0.0357
 6240W        W25774   5.639  14.382  14.491 -0.0260  0.2254 -0.3336
 6241W        W25775   5.332   6.395  13.061 -0.1799 -0.2461  0.2747
 6242W        W25776   9.264   8.649  12.308  0.2167  0.1551  0.3098
 6243W        W25777   4.291  10.978   0.712 -0.1989 -0.1174  0.1701
 6244W        W25778   0.667   7.093   2.085 -0.0786  0.0884  0.0253
 6245W        W25779  13.908  12.683  14.742 -0.0922  0.0658  0.0303
 6246W        W25780   6.713  17.792   1.276  0.1238  0.0408  0.0585
 6247W        W25781   7.648   0.737  13.636 -0.0669 -0.0933 -0.0725
 6248W        W25782   8.912   5.108  13.792  0.0417 -0.3711  0.0101
 6249W        W25783   4.818  10.318  13.071 -0.2382 -0.0047 -0.1005
 6250W        W25784  10.046   8.625   0.120 -0.1078  0.0842 -0.1814
 6251W        W25785   0.053  11.116   0.040 -0.2569 -0.0665  0.0669
 6252W        W25786   3.641  12.846   1.032  0.0015  0.1169  0.0128
 6253W        W25787  17.470   3.085   2.201  0.0375  0.2554  0.1496
 6254W        W25788  15.959   4.428   0.211  0.1045  0.1872 -0.0651
 6255W        W25789  15.269  15.027  11.579 -0.1187  0.2956  0.0423
 6256W        W25790  17.715   1.247  14.165  0.1594 -0.1904 -0.2262
 6257W        W25791   4.948   8.382   0.682  0.1923  0.3036  0.1134
 6258W        W25792  13.422   1.885  12.815 -0.2006 -0.1413 -0.0565
 6259W        W25793   0.357   8.417  11.571 -0.3409  0.2254 -0.2641
 6260W        W25794   0.895   5.782   4.468 -0.1963  0.1294 -0.2786
 6261W        W25795   7.958  12.256   4.009  0.2438  0.1110 -0.1729
 6262W        W25796   5.478  14.396  12.069 -0.0894  0.2709 -0.3503
 6263W        W25797   3.713  16.807   1.343 -0.1386  0.1400  0.2174
 6264W        W25798   3.512   7.647   3.620 -0.0935  0.1015 -0.1676
 6265W        W25799  16.668   1.926  13.424 -0.1243  0.1506 -0.2258
 6266W        W25800   2.077  16.172   2.635  0.1102 -0.2140  0.1117
 6267W        W25801  11.318  17.504  12.926 -0.1102  0.1411 -0.0494
 6268W        W25802  12.069  17.416   4.023 -0.0905  0.1485  0.3772
 6269W        W25803   7.982   2.982   1.227  0.1372  0.1081 -0.0664
 6270W        W25804   5.696   3.928   2.841  0.1843  0.2444 -0.0842
 6271W        W25805  15.406   6.619  12.530 -0.1841  0.4204 -0.2014
 6272W        W25806   8.792   6.846  13.671 -0.2618  0.1834 -0.0045
 6273W        W25807  10.390  10.671  11.480  0.0059  0.2068  0.2860
 6274W        W25808   5.737  11.701   0.687  0.2618 -0.0472 -0.1242
 6275W        W25809  14.167   9.730   1.123  0.0135  0.0111 -0.0990
 6276W        W25810   7.772  10.283  10.107 -0.1448 -0.1628  0.1322
 6277W        W25811  16.735   1.748   3.160  0.0389  0.0015  0.3787
 6278W        W25812  10.166  18.893  12.401  0.0193 -0.0536 -0.0689
 6279W        W25813  10.735   4.109  14.651 -0.3848 -0.0743  0.2434
 6280W        W25814   5.948   6.678   1.739  0.1866  0.3668  0.2947
 6281W        W25815  16.938   4.392  12.157 -0.2263 -0.0215  0.0807
 6282W        W25816   0.019   4.325   1.919 -0.0188  0.0370 -0.0807
 6283W        W25817  15.573   1.858   0.799  0.0414 -0.1357 -0.1723
 6284W        W25818   7.010   9.040  11.446  0.1374 -0.2725  0.2601
 6285W        W25819   1.958  11.664  10.909 -0.0639 -0.0812  0.2477
 6286W        W25820   8.758  14.125   0.189  0.1854 -0.1190  0.0504
 6287W        W25821   4.367  18.591  14.390  0.1087  0.0116 -0.2334
 6288W        W25822  12.010   4.087  12.856 -0.2960 -0.0805 -0.1390
 6289W        W25823  10.515   0.209   3.115  0.0558 -0.3112  0.3517
 6290W        W25824  13.115  13.069  10.583 -0.0711  0.0773  0.0873
 6291W        W25825   1.753   1.249  11.705  0.0875  0.1973  0.0812
 6292W        W25826  16.668   0.826   1.802  0.1267 -0.3663 -0.0002
 6293W        W25827  15.941  10.570  13.744 -0.1132  0.3375  0.0569
 6294W        W25828  12.686   7.252  10.995 -0.2549  0.3801  0.0726
 6295W        W25829  17.508   1.902  11.181  0.0271  0.2877  0.2340
 6296W        W25830  18.798  14.807   1.037  0.0174  0.0742  0.0576
 6297W        W25831   2.056   6.944  13.613 -0.1866 -0.0053  0.0248
 6298W        W25832  15.227   5.011  12.182  0.1664 -0.0726 -0.0494
 6299W        W25833  18.745   9.100  11.002  0.1650 -0.2397 -0.2646
 6300W        W25834   7.422   3.866   2.309  0.0125 -0.3297  0.0504
 6301W        W25835  16.763  17.078  12.328 -0.1302 -0.0197  0.1468
 6302W        W25836  13.773  18.871   1.176  0.2243  0.0327  0.2879
 6303W        W25837   6.477   7.402   3.377  0.2389 -0.1605  0.1687
 6304W        W25838   8.585  14.022   1.935 -0.0924  0.2053  0.2129
 6305W        W25839   2.435  13.045   4.319  0.2400 -0.1950  0.0283
 6306W        W25840  10.186   4.226  13.807 -0.0869  0.1941 -0.1733
 6307W        W25841  18.144   7.509   3.889 -0.2638 -0.2281 -0.0599
 6308W        W25842   4.670   0.857   2.749  0.2499 -0.0037 -0.0250
 6309W        W25843   4.431  15.252   3.332  0.0942 -0.1621 -0.0762
 6310W        W25844  17.441   3.076   0.233 -0.1340  0.2618  0.0916
 6311W        W25845   6.169  11.353  11.500  0.1323 -0.0529 -0.0381
 6312W        W25846  16.868   9.242  12.983 -0.2356  0.1476  0.1975
 6313W        W25847  15.633   4.640   4.836 -0.0307 -0.1842  0.0034
 6314W        W25848   9.271   5.382   3.537  0.1107 -0.1116  0.0226
 6315W        W25849  10.496   5.391  12.216  0.1790 -0.1392 -0.2274
 6316W        W25850  12.150   2.012   1.779  0.1945 -0.0334 -0.0704
 6317W        W25851   7.545  12.830   0.768  0.1202 -0.1273 -0.1130
 6318W        W25852   3.146   6.970  13.878 -0.3620 -0.2347 -0.0406
 6319W        W25853  16.193  10.594   2.666  0.0243  0.2656 -0.0399
 6320W        W25854  10.280   4.170   9.907  0.0693 -0.2324  0.2664
 6321W        W25855   1.929   1.264  14.403  0.0427 -0.1614 -0.1775
 6322W        W25856  10.471   7.328   0.396 -0.1487  0.2002  0.2537
 6323W        W25857   4.409  10.509  11.522 -0.0058 -0.0728  0.0335
 6324W        W25858   0.094  14.787   4.114  0.0255  0.5218  0.1022
 6325W        W25859   4.777   5.013  14.069 -0.2790  0.0392  0.0012
 6326W        W25860   0.873   6.716   0.479  0.1943  0.0804 -0.2586
 6327W        W25861   3.485  12.413  13.773  0.1969  0.0558  0.1466
 6328W        W25862  18.651   2.001   2.696 -0.3307 -0.0569  0.0689
 6329W        W25863   2.470  16.586   4.595  0.2248  0.1677  0.4322
 6330W        W25864  16.253   9.250  12.161 -0.0338 -0.4217 -0.2775
 6331W        W25865   3.188   5.857   4.580 -0.0305  0.1628 -0.1535
 6332W        W25866   8.713   0.818   1.839  0.1253 -0.1577  0.1633
 6333W        W25867  14.236  15.953  12.752  0.1428  0.1246  0.2804
 6334W        W25868   2.762  11.100   3.443 -0.1896  0.2705 -0.1021
 6335W        W25869   7.752  15.069   1.397  0.2855 -0.0292  0.2138
 6336W        W25870  17.779   6.919  13.658 -0.2027 -0.0016  0.1826
 6337W        W25871   8.636  18.800   0.518 -0.1652 -0.0056  0.1307
 6338W        W25872  17.316   6.700   2.812 -0.2387 -0.1431 -0.2457
 6339W        W25873   8.147   2.042   0.478  0.4130  0.2552 -0.0491
 6340W        W25874  10.992   6.234  10.977 -0.0990  0.0021  0.0008
 6341W        W25875   6.535  15.297  11.821 -0.0666  0.2291 -0.1114
 6342W        W25876   1.513  12.183   3.177 -0.1696 -0.5131 -0.0655
 6343W        W25877   3.375  16.836  11.405 -0.0746  0.2167 -0.1091
 6344W        W25878   7.971   5.933   3.639 -0.1435  0.0739 -0.2236
 6345W        W25879   3.104  13.796  11.098 -0.0632 -0.1037  0.1312
 6346W        W25880  12.065  15.122   5.470 -0.1867 -0.0238 -0.1564
 6347W        W25881   6.159   7.683  11.979 -0.2283 -0.1907 -0.0192
 6348W        W25882   3.474  13.571   0.618  0.0764 -0.3021 -0.0379
 6349W        W25883   2.149   2.766  11.856 -0.2188  0.0375  0.2614
 6350W        W25884  17.273   7.507  14.367 -0.1466 -0.1841  0.2166
 6351W        W25885  17.566   9.189   9.636  0.0081 -0.1214 -0.2448
 6352W        W25886  10.243  13.000  13.645  0.1879 -0.2986  0.0513
 6353W        W25887   0.456  18.148   0.206 -0.1886 -0.4224  0.1514
 6354W        W25888  12.386   8.825   2.367 -0.0635  0.2429 -0.0102
 6355W        W25889   8.186   4.482   0.873 -0.0241  0.2090 -0.1400
 6356W        W25890  15.370   9.102   3.536 -0.0345  0.1175 -0.2098
 6357W        W25891  11.395  15.095  14.080 -0.0520  0.0715 -0.0849
 6358W        W25892   9.264  16.999   1.599  0.0420 -0.0246 -0.1413
 6359W        W25893  10.804   9.076   9.786  0.1093  0.3241  0.0745
 6360W        W25894  14.930   4.507  13.397 -0.0645  0.2439  0.0819
 6361W        W25895   7.022   6.432   2.505 -0.1096 -0.1645 -0.0764
 6362W        W25896  14.994   6.407  11.319 -0.0098 -0.1055 -0.2258
 6363W        W25897  11.507  14.462  12.641 -0.1683 -0.2135 -0.2238
 6364W        W25898  15.696   9.110   1.250  0.2723  0.2636 -0.0345
 6365W        W25899   1.414   2.529   3.852 -0.2058  0.0040  0.1542
 6366W        W25900   7.333  10.885   3.583 -0.1811  0.0397 -0.2364
 6367W        W25901   6.456  13.849   1.441 -0.0356  0.0833 -0.0831
 6368W        W25902   1.453   6.536  14.797  0.1083  0.1417  0.0258
 6369W        W25903   9.701  14.237  14.690  0.1474 -0.1129  0.0599
 6370W        W25904   1.517   0.097  14.197 -0.5178  0.1938  0.1148
 6371W        W25905   0.539  13.691   1.622  0.1206  0.0724  0.0315
 6372W        W25906   4.903   5.919  11.911 -0.1274 -0.0772  0.0798
 6373W        W25907  13.086  15.222   4.196 -0.2428 -0.0000  0.1885
 6374W        W25908  11.199  13.302  12.422  0.1715 -0.0733 -0.0061
 6375W        W25909   4.921  10.108   1.578 -0.2016  0.0264  0.1662
 6376W        W25910   9.933   3.183   3.638 -0.2619  0.1915  0.0124
 6377W        W25911  16.422   9.436   0.750 -0.0718 -0.1572  0.2560
 6378W        W25912  16.850   3.511  12.115 -0.0998 -0.3662  0.0928
 6379W        W25913   6.530   3.191   0.805  0.1364  0.1454 -0.1433
 6380W        W25914  10.089  12.171  12.289  0.1202 -0.1743 -0.1719
 6381W        W25915  11.430  16.249  12.047  0.1285  0.2234 -0.2932
 6382W        W25916   3.320   5.324  14.352 -0.2044  0.2025  0.1632
 6383W        W25917   9.597   7.077  11.912 -0.0286  0.0504  0.2055
 6384W        W25918   9.065  10.180  10.914  0.2432 -0.1283  0.0446
 6385W        W25919  13.670  18.033   3.461  0.2522 -0.0321  0.0065
 6386W        W25920   4.570   1.779   1.192 -0.0660 -0.1546  0.4921
 6387W        W25921  11.421  15.566   3.213  0.0384 -0.2772 -0.0489
 6388W        W25922  18.221   2.088   2.209  0.1246 -0.0503 -0.0622
 6389W        W25923  10.331   7.651  11.310  0.0519 -0.2702 -0.2681
 6390W        W25924   2.252   6.005   4.275  0.0052 -0.0048  0.1642
 6391W        W25925   8.516  18.303  14.071  0.2190  0.1842 -0.0087
 6392W        W25926  10.917   6.498   2.449 -0.0384  0.0844 -0.2052
 6393W        W25927  13.655   2.266  10.773 -0.0723  0.1602 -0.0803
 6394W        W25928   5.887   9.718  11.362 -0.1009 -0.1543  0.2257
 6395W        W25929   9.689   5.062  11.078  0.2010  0.1599 -0.0534
 6396W        W25930   7.559   2.452   3.656 -0.1494 -0.2322  0.1005
 6397W        W25931  15.352   1.752   3.469 -0.0556 -0.0945 -0.0319
 6398W        W25932  12.234  13.570   1.320  0.0427  0.4132  0.0454
 6399W        W25933   1.766  10.698  11.445 -0.0783 -0.0789  0.5336
 6400W        W25934  11.372  14.704  11.024 -0.0877 -0.1650 -0.0294
 6401W        W25935   9.829   1.112  12.941 -0.0226 -0.0015  0.0780
 6402W        W25936  17.489   5.435   1.073  0.1303  0.0046 -0.0831
 6403W        W25937  10.904   3.537  12.891 -0.0809  0.1123  0.0112
 6404W        W25938  11.177   5.289  10.501 -0.0039 -0.1909 -0.2765
 6405W        W25939  16.052   4.985  11.243 -0.1260 -0.2979  0.4673
 6406W        W25940   7.844   6.838   1.414 -0.0575  0.0773  0.1943
 6407W        W25941   7.862   8.290   1.006  0.0580 -0.1938 -0.0484
 6408W        W25942   6.064   8.059   3.625 -0.0997  0.1277 -0.1682
 6409W        W25943   8.038  11.050   2.601 -0.1250  0.2598  0.2908
 6410W        W25944  15.163   2.041   1.965  0.0270  0.1078 -0.2689
 6411W        W25945  17.122   4.529  14.690  0.0464  0.0029 -0.2612
 6412W        W25946   3.559   7.415  13.418  0.0427 -0.0955  0.3095
 6413W        W25947   9.029  11.798  14.088 -0.2063  0.2115  0.1898
 6414W        W25948   6.206   2.637   0.228  0.0611  0.1203  0.1951
 6415W        W25949   0.699  15.131   2.806 -0.1687  0.0013  0.0881
 6416W        W25950  10.447   2.342   1.427  0.0370 -0.0905 -0.1240
 6417W        W25951   2.749   8.728   3.266  0.2216 -0.0524 -0.0712
 6418W        W25952   6.001  15.776   5.465 -0.0744 -0.0802  0.1857
 6419W        W25953   4.392   6.196   1.009  0.3150 -0.1235 -0.1103
 6420W        W25954   5.413   7.755  12.655  0.2202 -0.1184  0.0291
 6421W        W25955   7.571  12.287   3.063 -0.1006  0.0016 -0.3243
 6422W        W25956   9.114  15.705  10.779 -0.0549 -0.1887 -0.1787
 6423W        W25957   9.719  11.511   1.358 -0.1556 -0.2412 -0.3176
 6424W        W25958  15.424  16.120   0.613 -0.0008 -0.1992  0.0373
 6425W        W25959  12.275   0.358   0.537  0.1996 -0.0955 -0.0523
 6426W        W25960  14.285  13.824   2.879 -0.0977  0.0616  0.1361
 6427W        W25961   1.287  14.973  13.490 -0.1107  0.2960  0.2937
 6428W        W25962  12.068  11.621   2.255 -0.3310  0.4659 -0.1903
 6429W        W25963   8.003  16.376   1.817 -0.1264  0.2695  0.2130
 6430W        W25964  11.434   1.457   3.251 -0.2791 -0.2431 -0.0379
 6431W        W25965   2.686   9.090   3.686 -0.1143  0.0979  0.1070
 6432W        W25966  18.548  13.116  13.027  0.1713 -0.0296  0.1421
 6433W        W25967  12.856   6.806   0.133  0.0950  0.3866  0.0057
 6434W        W25968  10.167  11.070   4.452  0.2404 -0.0264  0.2645
 6435W        W25969   4.176   4.548   2.960  0.0622 -0.2057 -0.3113
 6436W        W25970   7.680  13.641  12.337 -0.1321  0.0761  0.2614
 6437W        W25971   7.371   9.168   1.808  0.1817 -0.0866  0.1723
 6438W        W25972  15.670  12.222   0.528 -0.0979  0.0601  0.2188
 6439W        W25973   4.625  10.959   3.514 -0.0151  0.1145  0.0749
 6440W        W25974  18.388   0.476   1.891  0.0353 -0.5407  0.0911
 6441W        W25975  19.106   1.532   1.437 -0.1117 -0.0564 -0.3516
 6442W        W25976   3.673  17.452   0.871 -0.1043  0.3177 -0.2109
 6443W        W25977   3.921  16.045   0.157 -0.0346 -0.1778  0.0975
 6444W        W25978  10.073  18.635  11.764  0.5806  0.0905  0.0212
 6445W        W25979   4.572  10.630   9.814 -0.0019  0.1748  0.4640
 6446W        W25980   2.269   7.967  14.724  0.1210  0.0742  0.0215
 6447W        W25981   7.004   0.209  11.952  0.0058  0.0381 -0.0149
 6448W        W25982  15.576   6.277   4.991  0.0625 -0.2759 -0.4310
 6449W        W25983   3.954   9.289   4.328 -0.0387  0.2310 -0.4101
 6450W        W25984   7.841   4.203   2.441  0.2696  0.0341  0.1644
 6451W        W25985   9.100   6.034   2.947  0.0434  0.0582 -0.0771
 6452W        W25986  12.077  11.122  12.774  0.0563 -0.3089  0.1420
 6453W        W25987  16.718   8.455  13.047 -0.1026 -0.1590 -0.2371
 6454W        W25988   2.183   2.028  13.994 -0.0112 -0.1770  0.0644
 6455W        W25989   0.290   4.702  13.683 -0.1124 -0.0915  0.1947
 6456W        W25990   3.220  18.480  10.863  0.1549 -0.0382  0.1230
 6457W        W25991  18.692   3.193  13.425  0.1237 -0.1033  0.0443
 6458W        W25992   7.916  14.213  10.741  0.0711 -0.2473  0.2399
 6459W        W25993   3.271  11.928  13.646  0.0912 -0.0243 -0.4268
 6460W        W25994   8.361  16.074   1.036  0.0515  0.0714  0.2049
 6461W        W25995  13.283   3.292   1.085 -0.1586  0.0414 -0.0378
 6462W        W25996   7.810   3.072   3.007 -0.2573 -0.0889 -0.1558
 6463W        W25997   1.907  14.664   4.623 -0.1716 -0.1645 -0.3411
 6464W        W25998  12.908   8.593   0.236  0.2833 -0.0837  0.1440
 6465W        W25999  11.270   6.154   2.841  0.0200 -0.0202 -0.0407
 6466W        W26000   8.202  13.327   3.271 -0.3691 -0.0280  0.0072
 6467W        W26001  10.977  18.543  11.661 -0.1684  0.0185  0.0560
 6468W        W26002  18.800  10.700   2.239  0.2587  0.1459 -0.2810
 6469W        W26003   5.412  16.556  12.350 -0.1425 -0.0192  0.2075
 6470W        W26004   0.884  17.542   1.384 -0.2682  0.0090 -0.2283
 6471W        W26005   0.517  18.185   1.070 -0.1398  0.0146 -0.0835
 6472W        W26006   3.929  11.707  14.229  0.1128 -0.0872 -0.0842
 6473W        W26007   5.211  10.004   0.643 -0.1884  0.1677 -0.1348
 6474W        W26008  16.747   3.982  13.889  0.2234  0.2206  0.0452
 6475W        W26009   9.354   4.690   0.331 -0.0267 -0.2986 -0.1606
 6476W        W26010   3.960   9.417  12.373  0.0085 -0.2214  0.3227
 6477W        W26011  14.636   1.966  10.696  0.1838  0.1696 -0.3381
 6478W        W26012   9.604  12.848  10.558 -0.1170  0.0755 -0.3360
 6479W        W26013  10.847  17.189   3.152 -0.0608  0.1883 -0.0779
 6480W        W26014  10.003   7.456   1.040 -0.0504  0.0396 -0.0095
 6481W        W26015  14.925   2.447  14.609 -0.0043  0.1013  0.1909
 6482W        W26016   8.573  11.512   4.189  0.0477 -0.0971  0.1207
 6483W        W26017   7.021   8.861  14.290 -0.1253  0.0954 -0.1367
 6484W        W26018   8.194   9.533  10.996  0.1611  0.3375 -0.1558
 6485W        W26019  12.815  14.180  13.711 -0.0393 -0.0680  0.1010
 6486W        W26020  13.174  13.578  10.679 -0.1338  0.1270 -0.2156
 6487W        W26021   4.279  12.515  14.299  0.0949  0.0038  0.0191
 6488W        W26022   6.132  12.778  13.737 -0.1117 -0.2300 -0.0033
 6489W        W26023  10.416   1.548   2.750  0.1355  0.1994 -0.3869
 6490W        W26024  16.485  14.265   3.823 -0.0861  0.2326  0.0189
 6491W        W26025  15.843  12.290  13.253  0.1226 -0.0562  0.1635
 6492W        W26026   0.928   4.185   4.924  0.1033 -0.0252 -0.0709
 6493W        W26027   6.365   2.837  14.176 -0.0801  0.3498 -0.0301
 6494W        W26028  16.577   3.123   1.010  0.0928 -0.3085  0.2521
 6495W        W26029  12.911  15.528  11.323  0.1163  0.0802  0.2379
 6496W        W26030   1.029   0.584   3.834 -0.3329  0.3721  0.4003
 6497W        W26031  15.745  10.772   1.732  0.1080  0.2553 -0.0082
 6498W        W26032  12.884   0.661  12.472 -0.1323 -0.1226 -0.0414
 6499W        W26033  12.210  11.173   0.225  0.0384 -0.1966 -0.4984
 6500W        W26034  11.347   3.935  11.333  0.0014 -0.1804 -0.1149
 6501W        W26035   6.591  10.642  12.062 -0.0483  0.2328 -0.1640
 6502W        W26036  18.872  16.507  12.347 -0.2959  0.3126 -0.0015
 6503W        W26037  15.629  15.020  10.683 -0.0548 -0.1774  0.0471
 6504W        W26038  13.896  12.708   0.904  0.1765 -0.0019 -0.1861
 6505W        W26039   3.244  13.253  14.739 -0.1382  0.2263 -0.0023
 6506W        W26040  11.416   5.604   2.871 -0.2108  0.0903  0.0856
 6507W        W26041  10.653   9.647   5.123  0.3886 -0.1469  0.0663
 6508W        W26042  15.791   1.977   3.662  0.1876  0.1788  0.4029
 6509W        W26043   3.571  14.913   3.660  0.3685 -0.0313 -0.0489
 6510W        W26044   6.560  13.025   2.097  0.2017  0.1064  0.1606
 6511W        W26045   2.613  12.501  13.425 -0.1435 -0.1304 -0.0926
 6512W        W26046  15.086  19.065   2.061  0.0646 -0.2359  0.1914
 6513W        W26047   1.561   7.677   5.161  0.3184 -0.0536  0.3403
 6514W        W26048  18.913  17.794  13.609 -0.2404  0.0599 -0.0127
 6515W        W26049  10.000  13.562   0.361 -0.0426 -0.0339 -0.2000
 6516W        W26050  10.736  12.602  10.983  0.0199 -0.2124  0.0956
 6517W        W26051   0.540   7.813  10.651 -0.2900  0.0682 -0.4121
 6518W        W26052  17.700  12.181   1.486  0.0143 -0.3453  0.1925
 6519W        W26053  13.372  17.847  10.761  0.4610  0.1821  0.1462
 6520W        W26054  12.890   6.297   2.085  0.0835 -0.0534  0.2575
 6521W        W26055   2.333   2.693  14.500 -0.1579 -0.0382 -0.1454
 6522W        W26056   6.981  12.364  10.898 -0.1397 -0.1450  0.0150
 6523W        W26057   5.790   9.552  14.731  0.1004  0.1386 -0.0807
 6524W        W26058  16.370   4.001   2.306  0.0271  0.0404  0.2826
 6525W        W26059   2.719   8.166   1.729 -0.0553 -0.1080 -0.1912
 6526W        W26060  11.339  11.712  12.153 -0.0524  0.4368 -0.0260
 6527W        W26061  15.343  18.258   3.534 -0.0656 -0.2136  0.0868
 6528W        W26062  16.928  10.829  14.005 -0.3590 -0.1497 -0.0743
 6529W        W26063  12.397  16.822  13.999  0.3594 -0.1771 -0.1875
 6530W        W26064   2.542   4.370  13.056  0.2942  0.2827 -0.0357
 6531W        W26065   1.425  18.071  13.187 -0.1826 -0.3002 -0.0780
 6532W        W26066  10.929   4.515  10.764 -0.5228 -0.0106 -0.1568
 6533W        W26067  14.326   4.761  12.643  0.0501 -0.1185  0.1222
 6534W        W26068   2.318   5.156   9.984 -0.1475 -0.0250 -0.0483
 6535W        W26069   4.653  15.469  10.866  0.0847  0.0598 -0.2130
 6536W        W26070  16.394   9.676  10.988 -0.0647  0.1980  0.3564
 6537W        W26071   3.497   8.919   2.264 -0.0516 -0.2832  0.2468
 6538W        W26072  17.474   2.894  10.824  0.1186 -0.2210  0.2657
 6539W        W26073  12.478   4.040  14.257 -0.1376 -0.2703  0.1772
 6540W        W26074  16.814  13.793   3.148 -0.2647 -0.0223  0.1556
 6541W        W26075  14.695  18.092   3.434 -0.0893 -0.1192  0.2421
 6542W        W26076  16.081   9.730  13.551 -0.0863  0.0516  0.2019
 6543W        W26077  11.106   9.614   2.754 -0.0635 -0.0861  0.0985
 6544W        W26078  14.315  13.823   9.904  0.1197  0.0983  0.1604
 6545W        W26079   2.092   7.554  11.927  0.0144  0.1908  0.1232
 6546W        W26080   4.937   1.224  10.705  0.0099  0.0829 -0.4508
 6547W        W26081  12.911   9.369  11.942 -0.2649  0.2114 -0.0231
 6548W        W26082   4.856   7.905   4.724 -0.2724  0.0052  0.1093
 6549W        W26083  12.477  14.686   1.954 -0.2225 -0.3114  0.0191
 6550W        W26084  12.288  11.523  11.130 -0.4084  0.0203 -0.0397
 6551W        W26085   6.624   5.004   3.787 -0.1046 -0.1355  0.1278
 6552W        W26086   6.957   9.247   3.666  0.0447 -0.2518 -0.0625
 6553W        W26087  16.902   4.012   2.538  0.3422 -0.1937 -0.0246
 6554W        W26088  17.716   9.391   2.122  0.0600  0.0886  0.0357
 6555W        W26089  18.255   9.119  13.552  0.2293  0.1379 -0.0663
 6556W        W26090  11.808  18.581  12.635  0.0136 -0.0990 -0.2261
 6557W        W26091  11.651   0.990  12.305  0.0610 -0.1131  0.0034
 6558W        W26092   7.007   3.715   2.077  0.4642 -0.1881  0.3370
 6559W        W26093  16.460  14.066  12.502 -0.1912  0.0777 -0.3178
 6560W        W26094   3.725   1.224   1.402  0.2982  0.1019  0.1487
 6561W        W26095  17.977  17.099   1.353 -0.0816  0.1016 -0.1233
 6562W        W26096  10.027   4.740  12.188  0.2925 -0.1569  0.1456
 6563W        W26097   2.559  16.160  11.913  0.0672  0.1912  0.4985
 6564W        W26098   6.235  12.379   3.458  0.1493  0.3212  0.1068
 6565W        W26099   0.410  13.744   2.269 -0.0949 -0.4542 -0.0921
 6566W        W26100  10.663   4.273   1.709 -0.0758  0.2349 -0.0870
 6567W        W26101  12.469  13.712   2.851 -0.1780  0.0860  0.1452
 6568W        W26102   4.022  14.036   3.674  0.0195  0.0293 -0.2912
 6569W        W26103   7.905  16.202  13.247  0.0675  0.0304  0.0986
 6570W        W26104   4.887   1.588   3.319 -0.1177  0.1710  0.0416
 6571W        W26105  13.328   7.490  10.265 -0.2482  0.0260  0.1164
 6572W        W26106   9.138   1.118  12.432  0.1294  0.0658  0.0663
 6573W        W26107   1.406  18.564  11.088  0.0491 -0.2295  0.1992
 6574W        W26108   9.886   8.858  13.864  0.2363  0.2093 -0.0030
 6575W        W26109   8.533  16.335  11.415 -0.0201 -0.0642 -0.5681
 6576W        W26110   7.337  14.810   0.208  0.1098  0.0372 -0.0853
 6577W        W26111  13.554  10.516   2.096 -0.2616  0.1681  0.0779
 6578W        W26112   4.817   9.069   9.708 -0.3624 -0.2720  0.3187
 6579W        W26113  13.143   6.466  13.690 -0.0585 -0.0020  0.1715
 6580W        W26114  12.690   0.390  12.988 -0.0302  0.1010 -0.3418
 6581W        W26115   0.913   9.187   0.516 -0.0167 -0.2735  0.1043
 6582W        W26116   8.662   0.737  11.702  0.0063  0.1766 -0.1430
 6583W        W26117   8.973   4.275  14.340  0.1548  0.2184  0.2246
 6584W        W26118   9.349   0.436   1.122 -0.0201 -0.0394  0.2050
 6585W        W26119  10.370  15.865  12.888  0.1799 -0.0268  0.0387
 6586W        W26120   5.148   3.720   0.742  0.1522  0.0664 -0.2469
 6587W        W26121  11.614  15.813  13.257 -0.1248 -0.5668  0.0694
 6588W        W26122  17.362  14.763   1.997  0.0778 -0.2197  0.3105
 6589W        W26123   8.126   7.596  14.686 -0.1300  0.2041 -0.0446
 6590W        W26124   6.973   6.767   0.805 -0.1516  0.1171 -0.4117
 6591W        W26125  17.101  11.522  13.260  0.2503  0.0273  0.1261
 6592W        W26126  16.232   5.495  13.484  0.0820  0.3022 -0.1960
 6593W        W26127  13.372   6.023   4.093 -0.1342 -0.0122  0.0620
 6594W        W26128   4.597   2.385   3.434 -0.1547  0.0908  0.1268
 6595W        W26129  15.645   7.836  13.726 -0.0262 -0.1649  0.0098
 6596W        W26130  18.855  11.959  13.036 -0.0469 -0.3533  0.0215
 6597W        W26131  17.261   4.668  11.243  0.1817 -0.2816  0.0820
 6598W        W26132   5.274  13.520   1.668 -0.1370  0.0170  0.0317
 6599W        W26133   2.147  13.476   0.264  0.0233 -0.1280  0.1321
 6600W        W26134  11.612   7.651   1.981 -0.1068  0.0929  0.0861
 6601W        W26135   6.190   2.724   3.089  0.1487 -0.0060  0.1107
 6602W        W26136  12.204  13.362  11.476 -0.0985 -0.0523 -0.0788
 6603W        W26137  10.482   6.875  11.920  0.0564  0.1873 -0.1769
 6604W        W26138  14.903  11.159  10.779 -0.0537  0.1760 -0.1021
 6605W        W26139  13.207  16.653   3.723  0.2582  0.2252 -0.0596
 6606W        W26140  13.875   5.301   3.646 -0.1917  0.0955  0.1125
 6607W        W26141  18.517   8.148   3.266 -0.2502 -0.0053 -0.0923
 6608W        W26142   5.714  13.145  13.629 -0.0823  0.2897  0.1230
 6609W        W26143   7.774   8.250  14.181 -0.1655  0.1666 -0.2169
 6610W        W26144   2.861  11.107   2.851 -0.0202  0.4391  0.1104
 6611W        W26145   3.660   7.840  11.800  0.0096  0.1173 -0.2542
 6612W        W26146  11.527  12.322   4.139 -0.3117  0.0424 -0.2910
 6613W        W26147  13.245  12.904   4.602 -0.0106  0.1233 -0.0533
 6614W        W26148   4.727  13.776  12.300  0.0579 -0.0722 -0.0820
 6615W        W26149   1.334  10.912  13.248 -0.3091  0.0789  0.2578
 6616W        W26150  17.803  17.263  12.936 -0.1282  0.0698 -0.1458
 6617W        W26151   3.834   6.802  11.696  0.0530  0.1944 -0.3599
 6618W        W26152  17.355   0.834  11.350 -0.1244  0.0731  0.0126
 6619W        W26153   4.347  10.627  12.247  0.2346  0.1132 -0.0079
 6620W        W26154  10.251   3.135  11.408 -0.1449  0.1389  0.2727
 6621W        W26155   9.758  11.328  14.620 -0.4705  0.0909 -0.2509
 6622W        W26156   0.357  17.045   4.683 -0.0244 -0.1668 -0.1741
 6623W        W26157   5.425   8.153   2.492 -0.3054 -0.1639  0.0719
 6624W        W26158   6.472   9.326  14.056  0.3168 -0.1708 -0.2037
 6625W        W26159  10.530  12.742   4.357 -0.0228  0.0132 -0.0061
 6626W        W26160  17.343  13.572   0.684 -0.0331 -0.1739  0.3702
 6627W        W26161   7.411  12.348   0.814  0.2729  0.0286  0.1969
 6628W        W26162   6.067  10.997   2.583  0.0496 -0.3165  0.1106
 6629W        W26163  11.940  17.843  11.020  0.0679  0.0121 -0.0886
 6630W        W26164  13.460  14.575  12.572  0.1249 -0.1741 -0.0210
 6631W        W26165   6.806   6.470   3.395 -0.3116 -0.1286 -0.1556
 6632W        W26166   4.292   4.371  10.965 -0.0481 -0.1063  0.3606
 6633W        W26167  13.316   4.010   1.742 -0.2263 -0.1416 -0.1499
 6634W        W26168   7.505   5.839   3.393 -0.0385  0.1697  0.4216
 6635W        W26169  16.770  11.851  14.786 -0.0825  0.0341 -0.2139
 6636W        W26170  10.289   6.617  13.752  0.1623 -0.0002  0.1727
 6637W        W26171   0.089  16.917  14.027  0.1708  0.2620 -0.2183
 6638W        W26172  16.598   8.690  11.125 -0.0576  0.1251  0.1874
 6639W        W26173   8.874   7.877   0.265 -0.2383  0.2418  0.0239
 6640W        W26174   8.983  11.380  12.826  0.0967 -0.1308 -0.0399
 6641W        W26175  12.441  18.398  14.263  0.1258 -0.1091  0.0080
 6642W        W26176  12.683   9.209  12.378 -0.2427  0.2568  0.0319
 6643W        W26177   5.922  15.294   2.060  0.0727  0.1403  0.1453
 6644W        W26178  12.790   9.353  14.129 -0.2241 -0.3942  0.0170
 6645W        W26179   1.800  17.640   5.104  0.0032  0.1520 -0.2104
 6646W        W26180   3.656   0.381  14.653  0.0783 -0.0564 -0.2459
 6647W        W26181   2.614  10.076   1.297  0.3166 -0.0121 -0.1479
 6648W        W26182  16.512   1.369  13.823  0.2432  0.3234  0.1155
 6649W        W26183   7.668  16.255   0.751  0.0908  0.0036  0.0511
 6650W        W26184  18.976  18.582  12.026 -0.0754 -0.1087 -0.1108
 6651W        W26185   5.336   8.591   1.020  0.4546  0.1329  0.1649
 6652W        W26186   5.157   6.746  11.204  0.0278  0.0893  0.3817
 6653W        W26187  18.334   4.431  12.381 -0.2507 -0.1618  0.1573
 6654W        W26188   6.067  18.668  10.719  0.2890 -0.1087 -0.0986
 6655W        W26189   7.796  13.609   1.972  0.1881 -0.2325  0.1220
 6656W        W26190  18.076  14.170  14.104  0.2102 -0.1030  0.1283
 6657W        W26191  12.181  16.440   4.048 -0.1360  0.0412  0.0813
 6658W        W26192  17.631  13.882   1.773  0.0052 -0.1005  0.0126
 6659W        W26193  17.673  17.410  14.385  0.1115  0.0999 -0.0760
 6660W        W26194  12.158  17.767  12.774  0.2331 -0.0419 -0.2422
 6661W        W26195  14.252  10.846  12.228 -0.1024 -0.0866  0.2549
 6662W        W26196  10.466  16.860  14.081  0.2551  0.2531 -0.0419
 6663W        W26197  15.993  17.071  14.548 -0.0070 -0.0464  0.1834
 6664W        W26198   4.307   3.014  13.686  0.0858 -0.4021 -0.1144
 6665W        W26199  16.303   3.524   3.193 -0.4069  0.2206 -0.0626
 6666W        W26200  18.189   3.323   1.788 -0.1636 -0.0223  0.0520
 6667W        W26201  10.304  11.440   0.099  0.2352  0.1008 -0.0081
 6668W        W26202   7.161   8.849  12.003  0.1286 -0.1795  0.4741
 6669W        W26203  11.589   4.469   3.649 -0.0704  0.0668  0.2543
 6670W        W26204   9.961  10.205  10.859  0.2743  0.1246 -0.1209
 6671W        W26205  12.024   7.019   0.652  0.2578  0.3267 -0.1033
 6672W        W26206  12.026  18.188   1.642  0.0960 -0.1891  0.0180
 6673W        W26207   8.093  15.684  14.396  0.0743  0.0269  0.2589
 6674W        W26208   6.183  18.837   2.799 -0.1643  0.0209  0.1957
 6675W        W26209  15.929   2.111   1.782 -0.1216 -0.1228  0.1007
 6676W        W26210   7.949  15.333  14.841 -0.0253  0.1689  0.2340
 6677W        W26211  14.062   0.718  11.279 -0.1291 -0.0235 -0.0330
 6678W        W26212  14.215  15.313   1.655  0.0091  0.1182  0.4392
 6679W        W26213   0.097  16.258   0.662  0.0008 -0.1590  0.1034
 6680W        W26214  15.624   5.049   4.558 -0.2093  0.2111  0.1514
 6681W        W26215   2.490   1.705   0.298 -0.0514 -0.0177 -0.1160
 6682W        W26216  14.134   1.572   3.473 -0.0263  0.1624 -0.0050
 6683W        W26217   7.359  16.268   2.676  0.2669 -0.3438 -0.3623
 6684W        W26218  13.192   1.639  10.555  0.0705  0.0132  0.1291
 6685W        W26219  11.424   0.009  14.127  0.1320  0.1211  0.0088
 6686W        W26220   6.890   7.585  14.501 -0.3145  0.0710 -0.2302
 6687W        W26221  16.249  14.955   9.731 -0.6572 -0.0335  0.1489
 6688W        W26222   1.992   2.419   9.696  0.0122  0.0025 -0.3809
 6689W        W26223   1.759   2.874  14.166  0.2024 -0.1165 -0.2150
 6690W        W26224  17.885  18.901   9.923 -0.2654 -0.1812 -0.3624
 6691W        W26225   1.192   2.606  11.676  0.0790 -0.0274  0.0485
 6692W        W26226  10.030   2.462   0.342 -0.0309  0.0967 -0.0321
 6693W        W26227  18.573  12.331   1.248  0.0302  0.0352  0.2676
 6694W        W26228  11.162   5.579  12.155 -0.0051 -0.0621  0.1809
 6695W        W26229  14.385  15.920   0.705 -0.0406  0.1139  0.2778
 6696W        W26230   3.410  17.674   2.460  0.1920 -0.0708  0.2888
 6697W        W26231  18.182  13.946  10.783  0.0610  0.1028  0.1167
 6698W        W26232  18.141  11.823  13.674  0.0775  0.0470 -0.0978
 6699W        W26233  15.748   9.011   0.578 -0.2742 -0.2530  0.1910
 6700W        W26234   8.828   1.829  13.929  0.1042  0.2297 -0.2569
 6701W        W26235   3.496  13.222   0.284 -0.3036  0.2288  0.1206
 6702W        W26236   0.024  10.838  12.386 -0.1449  0.4141  0.4525
 6703W        W26237   0.190  18.621  11.652 -0.3723  0.0699  0.0318
 6704W        W26238   1.559   5.928   2.924 -0.0231 -0.2551 -0.0425
 6705W        W26239   9.668   1.056   3.922  0.1961 -0.0494  0.1226
 6706W        W26240  10.549   9.331  12.362  0.1319  0.2140 -0.1214
 6707W        W26241  10.612  16.823  11.589 -0.2508 -0.1167  0.0608
 6708W        W26242  11.758  14.408   4.289  0.0401  0.1179  0.3537
 6709W        W26243   5.800   4.697   1.538 -0.0410 -0.3284 -0.3361
 6710W        W26244   2.421   4.154   0.922 -0.0631  0.2412  0.1179
 6711W        W26245  14.409   0.240   3.738  0.2822  0.2618 -0.4378
 6712W        W26246   3.851   2.578  13.114 -0.3369 -0.0046  0.0712
 6713W        W26247   3.400   8.912  12.484  0.0522  0.0092 -0.0967
 6714W        W26248   2.159   0.551   1.648  0.0735  0.0036  0.1665
 6715W        W26249   9.190   8.036   3.360 -0.0802  0.3093  0.2252
 6716W        W26250  13.854  13.833   4.350  0.1486  0.2569 -0.1267
 6717W        W26251  11.293  15.312  10.489 -0.1052  0.1025  0.2111
 6718W        W26252   9.378  17.032   2.092 -0.0231 -0.0444 -0.3301
 6719W        W26253   2.502  13.945  12.677 -0.1744  0.1308  0.1064
 6720W        W26254  14.474  17.578  10.438 -0.0611  0.0675  0.0733
 6721W        W26255  15.299   1.931  13.367 -0.2142  0.3556 -0.1030
 6722W        W26256   4.319  16.021   2.709  0.1420 -0.0828  0.1532
 6723W        W26257   3.227   1.652  13.986  0.0505 -0.2141 -0.3090
 6724W        W26258  18.737   7.111  10.661 -0.2828  0.0617  0.0448
 6725W        W26259   7.244  10.451   4.984 -0.1680  0.1503  0.1610
 6726W        W26260   5.385  14.535  11.524 -0.0865  0.0412  0.1938
 6727W        W26261   4.926  17.554  12.684  0.1637  0.0403 -0.1393
 6728W        W26262  18.014   2.556   0.935  0.1831  0.0778 -0.0501
 6729W        W26263   4.293  13.623   3.856 -0.0143 -0.0276 -0.1851
 6730W        W26264   7.833  17.462  11.027  0.0486 -0.0407  0.0143
 6731W        W26265  18.485   2.877   1.815 -0.0659  0.3414 -0.2960
 6732W        W26266  10.911  10.216   2.755  0.0064  0.2212  0.2617
 6733W        W26267  14.011   8.798   2.260 -0.0921  0.0539 -0.4116
 6734W        W26268   4.065  15.525  10.905 -0.0059  0.0517 -0.0460
 6735W        W26269  12.708  10.702  13.935 -0.0350 -0.1250 -0.1123
 6736W        W26270   8.754   2.342  14.046 -0.2289 -0.0779 -0.1892
 6737W        W26271   3.054  15.773   0.844 -0.3478  0.1418  0.2340
 6738W        W26272  12.084  13.765  12.133 -0.1076  0.1416  0.1646
 6739W        W26273   7.752  15.480   4.140 -0.1183  0.1671  0.2796
 6740W        W26274   6.848  13.735  14.365  0.2650  0.2300 -0.0410
 6741W        W26275  11.480   5.123  11.866 -0.1602  0.3045  0.2236
 6742W        W26276  10.234   4.395   1.992  0.0794  0.1314 -0.1309
 6743W        W26277   3.639  18.863  12.217 -0.3789  0.3993  0.3234
 6744W        W26278   8.192  10.273  11.391  0.0821  0.0468 -0.0590
 6745W        W26279  17.169   1.292  10.558  0.3302 -0.1177 -0.0864
 6746W        W26280   0.419   5.116   2.788  0.0467 -0.0348  0.0218
 6747W        W26281  17.433  13.052  11.562  0.1316 -0.1176  0.0916
 6748W        W26282  16.946   6.122  13.978  0.0088 -0.1570  0.0325
 6749W        W26283   3.130   9.642  10.566  0.0640 -0.0179 -0.3388
 6750W        W26284  16.914  15.099  14.782 -0.0902 -0.0454 -0.2677
 6751W        W26285   5.856   5.200  11.941  0.0075  0.1066  0.1195
 6752W        W26286   0.456  13.667  11.593  0.5328 -0.0253 -0.0164
 6753W        W26287  14.290   7.716   3.966 -0.1480 -0.0178 -0.1315
 6754W        W26288  15.621   9.551  10.241  0.1998  0.2173 -0.1817
 6755W        W26289   9.449   8.386   1.592  0.1812 -0.2203  0.0734
 6756W        W26290   4.652  18.616  11.147  0.0284  0.4899 -0.0692
 6757W        W26291   3.886  15.712   2.668 -0.1500  0.2261 -0.0515
 6758W        W26292  15.783  11.783  13.166 -0.0478 -0.4460 -0.0526
 6759W        W26293   0.097  17.993  14.075 -0.0799 -0.0398 -0.1986
 6760W        W26294  18.091  17.738   0.231 -0.0312 -0.0243 -0.0830
 6761W        W26295  16.547  13.149   0.201 -0.1521 -0.0345 -0.1771
 6762W        W26296   6.746  12.730   1.597 -0.2021 -0.1587  0.3015
 6763W        W26297   6.802  14.203  14.469  0.0107 -0.0431  0.0919
 6764W        W26298  18.624  12.741  13.891 -0.1626  0.0560  0.1246
 6765W        W26299   6.562  17.392  12.251 -0.1359  0.1355 -0.2458
 6766W        W26300   6.417   0.334   2.163 -0.2573  0.1297 -0.0163
 6767W        W26301  10.232   4.811   1.701 -0.2623  0.0808  0.0235
 6768W        W26302  17.130   8.678   2.341  0.1894  0.1363 -0.3237
 6769W        W26303   7.641  12.100   2.158 -0.0738 -0.2289  0.1897
 6770W        W26304  11.652   4.555  11.694  0.2089 -0.0818  0.0610
 6771W        W26305  17.976  10.383  12.438 -0.0491 -0.1268 -0.1414
 6772W        W26306  10.814  17.664  11.199 -0.0746  0.0044  0.3189
 6773W        W26307   7.908  19.073   3.592  0.2719 -0.0043  0.0302
 6774W        W26308  14.295   0.342  12.648  0.2153  0.0653  0.1452
 6775W        W26309   3.850  16.425   4.824  0.2923  0.0069 -0.0110
 6776W        W26310   3.287   2.963  11.151  0.2324  0.1126 -0.2353
 6777W        W26311  18.870   6.171   4.624  0.0963  0.2877 -0.3341
 6778W        W26312  10.595  12.356   3.220  0.2231 -0.3739 -0.2858
 6779W        W26313  10.416   6.454   2.624 -0.5635  0.0114 -0.2798
 6780W        W26314   1.743   3.811  12.641  0.1550  0.2639  0.4709
 6781W        W26315   0.422   2.193   4.841 -0.1339  0.0163  0.1879
 6782W        W26316   5.895   6.935  10.765 -0.0643 -0.2244 -0.0260
 6783W        W26317  15.900   5.187   1.829  0.0387 -0.1428  0.0483
 6784W        W26318  11.687   1.445   0.532 -0.1353  0.1629 -0.2634
 6785W        W26319  15.003   1.567   0.571  0.1054  0.0582  0.1962
 6786W        W26320  17.734  15.635   9.510 -0.1214 -0.0921  0.2333
 6787W        W26321   2.190  12.410  12.030 -0.3277 -0.3485 -0.0264
 6788W        W26322   5.414  11.114   4.931 -0.2307 -0.0886 -0.0177
 6789W        W26323   8.612   6.872   0.228  0.0783  0.0579  0.4408
 6790W        W26324  13.085   4.374  13.199 -0.0652 -0.0729 -0.2580
 6791W        W26325  16.118  14.325  10.861 -0.3543  0.0614 -0.0679
 6792W        W26326   9.767   5.484   0.222  0.1150 -0.0107  0.0207
 6793W        W26327  10.249   2.270   0.834  0.0653 -0.1601 -0.1632
 6794W        W26328  14.604  14.501   1.474  0.0325  0.0714 -0.0242
 6795W        W26329  16.485   1.510  10.103 -0.2471  0.0786 -0.0718
 6796W        W26330   3.900  17.995   0.142  0.1832 -0.4343 -0.2059
 6797W        W26331   7.109  18.739   3.023 -0.1192  0.0341 -0.0545
 6798W        W26332  15.893   0.617   1.861 -0.0359 -0.0795  0.1704
 6799W        W26333   9.857   8.483   3.287  0.0233  0.2080  0.1580
 6800W        W26334  13.604   3.696   4.300  0.2314 -0.1161 -0.0901
 6801W        W26335  14.007  14.304   9.815  0.0188  0.0762 -0.3355
 6802W        W26336  18.185   9.818   0.674  0.3262 -0.1965  0.2005
 6803W        W26337  10.963  18.377  12.134 -0.0692 -0.0416 -0.0448
 6804W        W26338   3.168  17.321  13.749  0.1660 -0.0125  0.2620
 6805W        W26339   1.169   3.101   3.308 -0.0023 -0.0114  0.0031
 6806W        W26340   4.374  12.125   4.908 -0.2746 -0.0409 -0.0125
 6807W        W26341   7.971  17.647   2.185 -0.0706 -0.2822  0.1519
 6808W        W26342  16.818  12.218  14.042 -0.2339  0.2216 -0.2666
 6809W        W26343  15.775  12.509   1.373 -0.2180 -0.6051  0.1120
 6810W        W26344  13.011  13.781  11.128 -0.1938 -0.1122  0.2078
 6811W        W26345   6.165   9.543   1.380 -0.2239 -0.1385 -0.0401
 6812W        W26346  18.949   7.285   2.416 -0.4025 -0.0888  0.3144
 6813W        W26347  15.291   6.002  14.366  0.1679  0.0444  0.1190
 6814W        W26348   9.384  10.707   0.655 -0.0814  0.0930 -0.1787
 6815W        W26349  11.993   5.735   4.027  0.0341 -0.0154  0.0859
 6816W        W26350   8.607   7.925  14.681 -0.0061 -0.2586 -0.0952
 6817W        W26351  14.266  14.624   3.313 -0.2918  0.0445 -0.1134
 6818W        W26352  15.021   0.509  13.434  0.1273  0.0340 -0.0416
 6819W        W26353   2.965  17.612  11.386 -0.0294  0.1889  0.2085
 6820W        W26354  14.547   7.962   2.642 -0.1931  0.0095  0.3741
 6821W        W26355   3.642   5.152  12.776 -0.2794  0.0371  0.0419
 6822W        W26356   9.935  18.299   2.945 -0.1608 -0.3888  0.0969
 6823W        W26357  15.954  10.157  11.651 -0.0459  0.3111 -0.0280
 6824W        W26358  17.180  17.130  11.130 -0.2849 -0.2013 -0.0715
 6825W        W26359  18.795  15.294  11.265  0.0648  0.0160 -0.1499
 6826W        W26360  18.907  17.505   1.323  0.1841  0.2112  0.4105
 6827W        W26361   3.462  10.213  12.207 -0.0734  0.0375  0.2283
 6828W        W26362   2.764  19.094   0.694  0.0270  0.1169 -0.0849
 6829W        W26363  13.628   6.843  13.122 -0.0974  0.0396 -0.0963
 6830W        W26364  11.833  16.394   2.098 -0.4454 -0.1564  0.1993
 6831W        W26365  16.168   5.054   3.127 -0.1278  0.0716  0.1914
 6832W        W26366  17.071   2.229   0.139 -0.2425  0.0804  0.1607
 6833W        W26367   4.329   8.914   4.089 -0.1080 -0.4160  0.0227
 6834W        W26368  14.766   4.299  14.831 -0.1043 -0.0989 -0.1311
 6835W        W26369  18.845  15.541   1.134 -0.1240  0.1354  0.0513
 6836W        W26370  10.512   2.448  13.613 -0.0693 -0.3192 -0.2945
 6837W        W26371   5.346   0.238  12.570  0.0847  0.1572 -0.0705
 6838W        W26372  15.294  11.561  13.512  0.0251  0.0502  0.2558
 6839W        W26373  12.825   8.882   1.598 -0.0418  0.1133 -0.0262
 6840W        W26374   7.652  10.386  12.187 -0.0188  0.0153 -0.1191
 6841W        W26375  11.923  15.248  11.456  0.0779 -0.1272  0.1710
 6842W        W26376   9.782   1.646   0.115 -0.0328 -0.0405 -0.0845
 6843W        W26377  11.811  14.071   4.672  0.0359  0.0961 -0.0176
 6844W        W26378  14.276   1.300  11.878 -0.0995 -0.5478 -0.0963
 6845W        W26379   6.476   3.935   2.730  0.1148 -0.3296 -0.1716
 6846W        W26380   4.922  12.637  12.554  0.2349 -0.0142  0.0219
 6847W        W26381   4.714  18.387  14.729 -0.0914  0.0931  0.3315
 6848W        W26382  13.554   3.381  13.262 -0.2074  0.0330  0.0811
 6849W        W26383   4.539  18.938  11.585 -0.0592 -0.1807  0.2111
 6850W        W26384  11.946   5.819  12.347 -0.2661 -0.0043 -0.3335
 6851W        W26385  13.829   6.743   1.447  0.0492  0.1473  0.0371
 6852W        W26386   0.128   6.836  14.781  0.2173  0.1307  0.0944
 6853W        W26387   3.757   6.093   2.459 -0.3560 -0.0455  0.0245
 6854W        W26388  10.100   0.414  11.647  0.1284  0.4015  0.1776
 6855W        W26389   8.509  15.441  11.231 -0.3177 -0.0643 -0.1214
 6856W        W26390   7.972   9.459   1.118  0.0846  0.2448  0.0116
 6857W        W26391  18.873  18.539  14.775  0.0662 -0.2140 -0.2981
 6858W        W26392   5.879  12.856  14.752 -0.1515 -0.0790 -0.2273
 6859W        W26393   3.247   3.030  14.436 -0.1184  0.1111 -0.1253
 6860W        W26394  10.895  16.924  14.302  0.2477 -0.2142 -0.0972
 6861W        W26395   6.341  11.890  13.722 -0.0690  0.1259  0.1238
 6862W        W26396  17.989   3.077   2.146  0.0442  0.3670 -0.3888
 6863W        W26397  15.980  18.517  14.753 -0.0994  0.0835 -0.2238
 6864W        W26398  12.434  17.212   0.368 -0.3554 -0.0890  0.2518
 6865W        W26399   6.847  15.410   0.083  0.0154  0.1273 -0.2420
 6866W        W26400  18.523   3.068  10.735 -0.1573  0.0584  0.0049
 6867W        W26401   5.555   7.354  14.051  0.0241  0.0919  0.2888
 6868W        W26402   3.326  14.788  12.748  0.1730  0.0559 -0.2098
 6869W        W26403  10.396   7.742   1.174 -0.0304 -0.0659 -0.0873
 6870W        W26404  14.193  14.684  11.962  0.2117 -0.1325 -0.3743
 6871W        W26405  14.461   4.283  13.445  0.1737 -0.1742  0.1088
 6872W        W26406  17.880   6.959  10.657 -0.1113  0.0152 -0.0748
 6873W        W26407   6.481  16.351  14.222 -0.1252  0.0197  0.1551
 6874W        W26408   5.535  10.315   2.403 -0.0015  0.0216  0.2333
 6875W        W26409  16.603   2.715   0.343  0.0236  0.0787  0.2719
 6876W        W26410   8.936  17.541  14.467  0.0795 -0.0711  0.1434
 6877W        W26411  12.844  17.080  14.218  0.0028 -0.1226  0.0958
 6878W        W26412  17.769   8.245   2.789 -0.0834  0.1598 -0.0167
 6879W        W26413  10.036  10.590   2.728 -0.2104 -0.0044  0.1587
 6880W        W26414  18.742   8.349  13.828  0.0784 -0.0999  0.0813
 6881W        W26415  11.620   9.402  10.907  0.0665 -0.1334  0.1472
 6882W        W26416  13.636  16.894  12.790  0.0398 -0.0804 -0.2819
 6883W        W26417  15.138   9.804   0.569 -0.0227  0.1152  0.3258
 6884W        W26418   1.563   1.563  10.788  0.3230  0.0335 -0.0187
 6885W        W26419   8.997  10.039  14.036 -0.0374 -0.0353  0.1250
 6886W        W26420   0.050   8.675  14.222  0.1837 -0.0425  0.0482
 6887W        W26421   1.437  11.466  10.840 -0.0227 -0.2012 -0.0933
 6888W        W26422  15.420  17.346   0.380 -0.0109  0.0227  0.2903
 6889W        W26423  17.285   1.344   4.193  0.1527  0.2693 -0.1847
 6890W        W26424   2.407  17.545   2.367  0.1614 -0.1226 -0.0172
 6891W        W26425  10.705   3.503  11.848 -0.1650 -0.0184  0.2113
 6892W        W26426  18.225  13.309  14.607  0.1384 -0.0410  0.2164
 6893W        W26427  13.858   9.353  11.707 -0.0106 -0.0501 -0.0293
 6894W        W26428  11.087  16.586  11.853  0.0270 -0.3456 -0.2488
 6895W        W26429  18.877  12.084   4.141 -0.2109 -0.2156 -0.3999
 6896W        W26430   6.295  18.153   1.281  0.0969  0.1185  0.0212
 6897W        W26431  10.198   3.622  11.666 -0.2201 -0.0001 -0.0969
 6898W        W26432  16.732   7.236  13.460 -0.2336 -0.0985  0.0164
 6899W        W26433   4.634   6.127   2.249  0.2372 -0.0088 -0.1525
 6900W        W26434   2.437   6.365   2.678  0.1828  0.3261 -0.1432
 6901W        W26435  17.106  10.788   2.858 -0.5068 -0.3052 -0.3706
 6902W        W26436  15.891  12.071   1.089  0.1790 -0.0853 -0.0775
 6903W        W26437  14.196   4.710   0.350 -0.0381  0.1965 -0.2669
 6904W        W26438  10.071  18.881   0.465 -0.1391  0.1977 -0.0789
 6905W        W26439  18.008   2.441  12.259 -0.0082  0.0548 -0.3655
 6906W        W26440  15.470   6.296  11.006 -0.0199 -0.1964 -0.0505
 6907W        W26441   3.495   7.655   2.065  0.1152 -0.1403  0.0659
 6908W        W26442   6.289   9.262   4.556  0.0583  0.1820  0.0710
 6909W        W26443   5.118  18.969   2.890  0.4740 -0.0897 -0.0074
 6910W        W26444   1.828  13.645   3.582  0.0165  0.0763  0.0280
 6911W        W26445  13.703   4.751   0.583 -0.1283 -0.2712 -0.0862
 6912W        W26446  14.522   1.978  14.629  0.1865 -0.0715  0.2352
 6913W        W26447  17.126   7.970  14.581 -0.1591  0.3281 -0.0320
 6914W        W26448   7.727   9.793   2.688 -0.0090  0.1352 -0.2740
 6915W        W26449  17.699   6.268  11.502  0.1336  0.0854 -0.0459
 6916W        W26450   5.169  18.937   2.308  0.1489 -0.0715  0.0592
 6917W        W26451  16.588  18.863  13.726  0.0996  0.1234 -0.2077
 6918W        W26452   2.190  12.568  14.341  0.1768  0.0832  0.1091
 6919W        W26453  18.828   9.130  11.790  0.0623  0.1737  0.0385
 6920W        W26454   9.802   0.463   3.680 -0.0150  0.1953  0.2691
 6921W        W26455   1.407   2.130   2.126 -0.3004  0.0938 -0.0406
 6922W        W26456  15.897   0.483   0.992 -0.0549 -0.3052 -0.1572
 6923W        W26457   6.509   0.082  11.819  0.1190  0.1661  0.0444
 6924W        W26458   7.272  13.618  14.094  0.4251 -0.0784 -0.2321
 6925W        W26459  14.414   0.036   1.189  0.4074  0.0739  0.2010
 6926W        W26460   3.529   9.108  11.119 -0.1221  0.3517 -0.0124
 6927W        W26461   9.847  12.909   1.560 -0.1171  0.1317  0.1897
 6928W        W26462  17.389  19.066  12.589  0.2168  0.0526  0.0260
 6929W        W26463   1.287  19.066  11.064  0.0743 -0.1924 -0.2349
 6930W        W26464  15.188   8.609  11.774  0.0007  0.2941 -0.0148
 6931W        W26465   8.680  17.156   1.631 -0.0227  0.0285  0.2841
 6932W        W26466   3.269  10.845   2.674 -0.1078  0.0929  0.1314
 6933W        W26467  14.956  16.259  12.188 -0.2905  0.0345 -0.0038
 6934W        W26468   6.701  14.132   0.598 -0.2500 -0.4861 -0.1460
 6935W        W26469   7.343   9.396  12.904 -0.0989  0.1812  0.0955
 6936W        W26470  13.486   1.789   3.212 -0.0718  0.0646 -0.2674
 6937W        W26471   6.004   6.826   0.421  0.0472 -0.0724 -0.1381
 6938W        W26472   1.069   7.102  11.858  0.2829  0.0852 -0.2128
 6939W        W26473  17.547  11.631  10.389  0.2575 -0.1500 -0.4427
 6940W        W26474   5.275  18.111   1.354  0.1397  0.3181  0.1771
 6941W        W26475  14.179  16.480  14.720 -0.2897  0.0032  0.2409
 6942W        W26476  16.719   0.915  10.780  0.0521 -0.2463 -0.0218
 6943W        W26477  13.546  14.514  11.177  0.0486  0.1495 -0.3305
 6944W        W26478  15.430   7.264  13.779  0.2100  0.0451 -0.1652
 6945W        W26479   3.650  17.445   4.294 -0.3087  0.1817  0.1254
 6946W        W26480   5.675  11.173   0.528 -0.1114 -0.0725  0.2579
 6947W        W26481   5.996   9.171  14.112  0.1693  0.2548  0.1641
 6948W        W26482   2.825   6.631  13.744 -0.2442 -0.0278 -0.0860
 6949W        W26483   6.763   9.955   5.627 -0.2332  0.2005 -0.1017
 6950W        W26484   6.705   2.973   9.962 -0.0631  0.0407  0.0604
 6951W        W26485  13.857   3.330   0.949  0.1399  0.3386  0.1142
 6952W        W26486   6.527   6.732   3.814 -0.0004  0.1365 -0.0704
 6953W        W26487   9.178  14.141   3.595 -0.0058  0.0795  0.0168
 6954W        W26488   6.938  11.414  13.730 -0.0002  0.0356 -0.1643
 6955W        W26489   9.045   9.899   0.066  0.2517 -0.0842  0.0680
 6956W        W26490   1.890  14.665  12.795 -0.1901  0.1431 -0.2235
 6957W        W26491   0.351  11.743  12.390 -0.0726  0.1538  0.1644
 6958W        W26492  11.546  16.825   2.282  0.0935  0.0298  0.1747
 6959W        W26493   7.178   2.577   0.258 -0.2016  0.2710 -0.2018
 6960W        W26494   9.435  14.258  11.775  0.1966  0.2022  0.4025
 6961W        W26495   5.335   0.935  13.382  0.1187  0.1002  0.2349
 6962W        W26496  14.682   2.960   9.589  0.2880 -0.0674 -0.1145
 6963W        W26497  15.630  12.450  14.582 -0.0893  0.0065  0.0609
 6964W        W26498   6.012   0.799   0.939  0.0211 -0.1067  0.1387
 6965W        W26499   8.736  18.720  11.980  0.2351 -0.1482  0.1518
 6966W        W26500  18.888  17.379  12.009 -0.1509  0.3355  0.0397
 6967W        W26501   5.179  10.257   3.383 -0.1509 -0.0194 -0.2308
 6968W        W26502  17.107  16.744  12.238 -0.0958 -0.2690  0.3928
 6969W        W26503  15.764  10.834   0.642 -0.2367 -0.1401  0.1091
 6970W        W26504   0.473  18.231  13.754  0.3151  0.1875 -0.0215
 6971W        W26505  14.283   0.282   3.086 -0.0753  0.2165  0.1267
 6972W        W26506  15.454  14.584   1.870 -0.0276 -0.0760 -0.1268
 6973W        W26507  13.736   5.826   2.053  0.0433 -0.1960  0.1482
 6974W        W26508  17.980  15.600  11.797  0.0346 -0.1102 -0.0050
 6975W        W26509  11.509  16.314   0.671 -0.1456 -0.1972  0.4071
 6976W        W26510  13.782   7.982  13.330 -0.0064 -0.2073 -0.1951
 6977W        W26511   8.476   1.037  13.378 -0.2890 -0.0516  0.1521
 6978W        W26512   9.980  18.541   1.856 -0.2324 -0.1250 -0.1310
 6979W        W26513   8.030  15.029   4.276 -0.0559  0.1397  0.2757
 6980W        W26514   1.188   9.119  12.579  0.1480 -0.3753 -0.1691
 6981W        W26515  13.724  10.603  12.105 -0.0134 -0.0714 -0.0949
 6982W        W26516  15.778   3.600   2.541  0.0185  0.1136  0.2158
 6983W        W26517  11.967   1.271   3.252 -0.0607 -0.1399 -0.0591
 6984W        W26518   1.744   8.173   0.078  0.0521 -0.0314 -0.2753
 6985W        W26519  11.879  12.985  11.269 -0.2644  0.1153  0.1381
 6986W        W26520  16.019   9.377  14.706  0.2641  0.1042 -0.1647
 6987W        W26521  10.603   0.700  11.034  0.1913  0.2459 -0.3221
 6988W        W26522   3.215  17.472   9.524  0.0306  0.1505 -0.3340
 6989W        W26523  14.732   0.402  12.932 -0.2032  0.6493 -0.0475
 6990W        W26524   8.246  15.464   2.413  0.1232 -0.0108 -0.2737
 6991W        W26525  18.158   5.376  10.653  0.2440 -0.1449 -0.0388
 6992W        W26526  16.064  14.120   2.411  0.1133 -0.1738 -0.1498
 6993W        W26527   9.282  13.684  13.762  0.0511  0.2181 -0.0494
 6994W        W26528   3.072  14.097   3.618 -0.1664  0.1875  0.1044
 6995W        W26529   2.302   1.816  12.196  0.1755 -0.1385  0.0647
 6996W        W26530   2.322   6.262  12.033 -0.0836 -0.2304  0.0414
 6997W        W26531   6.238   5.307   3.624 -0.0122  0.1419  0.1163
 6998W        W26532  19.015   3.025  11.179  0.2863  0.0549  0.4689
 6999W        W26533  14.013   1.220  14.706  0.1024  0.0974  0.0862
 7000W        W26534   8.041   3.546   3.221 -0.3157 -0.3354  0.0519
 7001W        W26535  10.878   2.155  12.522 -0.0464  0.0523 -0.2136
 7002W        W26536  11.007   2.420  11.637  0.0861 -0.0907  0.3302
 7003W        W26537   0.900   0.517  12.628 -0.3881  0.1202  0.1727
 7004W        W26538   8.239  13.448   0.557  0.2383  0.0234  0.0359
 7005W        W26539  16.878   1.052  12.470  0.0399 -0.3343 -0.0260
 7006W        W26540  15.554   6.860  13.483 -0.0410  0.3342  0.1674
 7007W        W26541  13.260   8.722   3.756  0.0926  0.1219  0.0133
 7008W        W26542  13.435   3.991   3.566  0.1401 -0.4469  0.0441
 7009W        W26543  14.303  18.051   1.628 -0.2606 -0.0643 -0.1547
 7010W        W26544   1.274  13.808   2.227 -0.0822 -0.1304  0.2649
 7011W        W26545   1.726   2.915   3.735  0.0320 -0.0548  0.2008
 7012W        W26546  11.415   9.937  13.563  0.2138  0.0123  0.1581
 7013W        W26547  16.895  16.246  12.276  0.4299 -0.1902 -0.2761
 7014W        W26548  10.852   3.701  13.498 -0.3543 -0.2062 -0.1188
 7015W        W26549   6.753   0.329   1.463  0.2228  0.1794 -0.1898
 7016W        W26550   0.762  16.939   9.918 -0.0052  0.0965 -0.5519
 7017W        W26551  11.892  12.316   0.891  0.0185 -0.1886  0.1384
 7018W        W26552  14.477   6.195   1.643 -0.1007  0.0738 -0.0502
 7019W        W26553  14.403  12.933   2.865  0.1546  0.0273 -0.0382
 7020W        W26554  12.154   7.745  11.687 -0.0252 -0.0021  0.0555
 7021W        W26555  11.425  12.145  11.239  0.1998 -0.0768 -0.1807
 7022W        W26556  13.378   7.314  11.946  0.0212 -0.0021  0.0847
 7023W        W26557   6.538   0.632  14.690  0.3623  0.2827  0.0864
 7024W        W26558   0.019   9.335  14.488  0.0687  0.2907  0.0263
 7025W        W26559   1.427   8.404  14.608  0.4585  0.5043  0.0225
 7026W        W26560   6.516  10.733   2.615  0.1157 -0.0661 -0.0923
 7027W        W26561   9.904  18.878  10.324 -0.1614  0.0696 -0.0172
 7028W        W26562   3.444   2.927  10.544  0.0914 -0.1163  0.0243
 7029W        W26563  17.889   1.118   1.301  0.1543 -0.3355  0.0336
 7030W        W26564   7.047   1.721   5.378  0.0201  0.2304 -0.0982
 7031W        W26565   6.084   5.491  12.698 -0.1711 -0.0489 -0.3000
 7032W        W26566  16.758   0.090  10.861 -0.0865  0.1625  0.1583
 7033W        W26567   8.556   4.421   1.660 -0.2119  0.0875  0.0527
 7034W        W26568   0.208   7.893  12.763 -0.1550 -0.0449 -0.0514
 7035W        W26569   0.540   9.328  14.555  0.1642 -0.1363 -0.0484
 7036W        W26570   2.244   0.980  10.343 -0.0941  0.1393 -0.1611
 7037W        W26571   6.485  11.012   0.339 -0.2518  0.0276  0.0132
 7038W        W26572  16.136   0.375  13.784 -0.1495 -0.2773  0.2299
 7039W        W26573   9.722  15.961  12.901  0.1414 -0.0050  0.0710
 7040W        W26574  11.449   3.116   0.410  0.1459  0.2475 -0.1601
 7041W        W26575   4.759  14.756   2.868  0.2050  0.1921  0.3552
 7042W        W26576  18.585  15.687  10.625  0.1964 -0.0427  0.2946
 7043W        W26577   4.895  18.180   4.180  0.0618 -0.1592  0.0190
 7044W        W26578   1.057  18.906   2.087 -0.1936  0.0111 -0.1647
 7045W        W26579  10.809   0.922  10.612 -0.0308 -0.2552  0.0073
 7046W        W26580  18.718   1.290  13.503 -0.0788 -0.0153  0.3424
 7047W        W26581   7.348   4.474  14.474  0.0873  0.3586  0.0529
 7048W        W26582   4.680   8.361   3.498  0.2079 -0.3302 -0.0499
 7049W        W26583   2.395   8.489  11.957  0.1749  0.1880  0.0052
 7050W        W26584  10.818  16.605  12.721  0.1103 -0.0923 -0.0516
 7051W        W26585  14.857  15.803  14.693 -0.0140 -0.0055 -0.1238
 7052W        W26586   5.483  12.478   1.191 -0.0330 -0.1472 -0.2377
 7053W        W26587  12.818   5.054  12.895 -0.1580  0.3125  0.1558
 7054W        W26588  17.522  17.750   4.649 -0.0520 -0.0162 -0.1288
 7055W        W26589  12.482   0.832   3.771  0.0570 -0.1136  0.2675
 7056W        W26590  10.632  13.115   3.593 -0.1362 -0.0537  0.3233
 7057W        W26591   8.499  12.187  13.196 -0.2136 -0.1269  0.2108
 7058W        W26592   3.049   7.966   3.222 -0.1152 -0.0190 -0.0839
 7059W        W26593  13.734  18.168  10.538  0.0747  0.1223  0.0981
 7060W        W26594  15.011   2.046   3.226  0.0104 -0.1170 -0.0525
 7061W        W26595   5.501   1.030   3.686  0.0102  0.1676  0.0938
 7062W        W26596   4.228   5.902  14.462  0.3401  0.3853  0.1808
 7063W        W26597   3.979  11.853  13.616 -0.0283  0.1440  0.0159
 7064W        W26598   0.538  10.089   3.841 -0.1868 -0.1402  0.1680
 7065W        W26599   8.208   4.768  10.983  0.0104 -0.2470 -0.1015
 7066W        W26600  14.601  18.655  14.281  0.2101 -0.0878  0.2176
 7067W        W26601   4.105   9.594  10.773  0.1619 -0.0046  0.1409
 7068W        W26602  17.944   4.143  13.708 -0.1715  0.0685 -0.2288
 7069W        W26603   3.141   5.771   0.465  0.0146  0.1432  0.1425
 7070W        W26604  14.676  10.658   1.032  0.0640 -0.0031  0.0308
 7071W        W26605   1.951   4.774   3.582 -0.0987 -0.0572 -0.0087
 7072W        W26606   6.722  10.220   1.168  0.1588  0.3233 -0.4796
 7073W        W26607  18.435   2.278  12.146 -0.0991 -0.4058  0.1356
 7074W        W26608   6.145   0.654  11.211 -0.0662 -0.0866  0.4187
 7075W        W26609   8.816   0.106   4.582 -0.0813  0.0287 -0.1592
 7076W        W26610   9.284  13.680   0.995 -0.2250 -0.3870  0.3877
 7077W        W26611  13.242  16.326  14.737 -0.4672  0.1736 -0.1417
 7078W        W26612  10.557  14.123   2.746 -0.1206 -0.1203  0.1538
 7079W        W26613  16.349  16.251   1.469 -0.0957  0.0860  0.2222
 7080W        W26614  11.160  13.605   0.143 -0.0535 -0.0452  0.1742
 7081W        W26615   6.402  17.104  14.736  0.1138  0.3110  0.1943
 7082W        W26616   4.815  17.587  11.714  0.0081  0.2607 -0.0720
 7083W        W26617   1.044   6.925   0.026 -0.1341  0.0956 -0.1598
 7084W        W26618   5.541   7.150   3.610  0.1708 -0.1910 -0.0389
 7085W        W26619  13.170  10.648  14.150  0.0906 -0.1896  0.1989
 7086W        W26620   9.540   1.302   1.594  0.1422  0.3696 -0.1119
 7087W        W26621  14.899   7.983   4.410  0.0450 -0.1917  0.0758
 7088W        W26622   9.752   0.952   2.852 -0.1195 -0.2387 -0.0189
 7089W        W26623  13.785   5.683   0.762 -0.0699  0.2787 -0.0598
 7090W        W26624  18.039   1.562   4.743  0.0618 -0.2286  0.1990
 7091W        W26625  10.826  14.116   5.085  0.2487 -0.1958 -0.1625
 7092W        W26626  18.151  18.142  10.371  0.1493 -0.4904 -0.0126
 7093W        W26627   3.965   9.650   1.786  0.0271 -0.7106 -0.2624
 7094W        W26628   0.990   9.436   3.794 -0.0327  0.0686 -0.2715
 7095W        W26629   7.123  15.263  13.084 -0.2052 -0.1377 -0.2234
 7096W        W26630   9.328   9.312   2.820  0.2583  0.1881 -0.1448
 7097W        W26631   5.636   0.631   4.035  0.0093  0.2027  0.0889
 7098W        W26632  13.036   2.890   0.852 -0.0555 -0.1090  0.1245
 7099W        W26633   6.404  10.031   2.072 -0.2313 -0.1954  0.1907
 7100W        W26634   2.765   0.633  11.707 -0.1649 -0.0296 -0.3572
 7101W        W26635   5.658   1.997   3.957  0.2628 -0.2855 -0.0097
 7102W        W26636   3.371  10.523   3.089  0.1156 -0.4565  0.0431
 7103W        W26637  15.864  18.717  13.660 -0.0461  0.4020  0.1338
 7104W        W26638   0.432  10.527   1.720  0.0669  0.1074 -0.0118
 7105W        W26639   1.481   3.434  13.445  0.1974  0.1844  0.1085
 7106W        W26640   7.048  10.286   1.927  0.1863 -0.0430 -0.2308
 7107W        W26641   8.703  15.964  13.623  0.5653 -0.0921  0.2225
 7108W        W26642   7.401   2.854   2.420  0.0797  0.2420 -0.0713
 7109W        W26643  16.063   6.986  14.479  0.2083 -0.1759 -0.2199
 7110W        W26644   4.246   8.869   0.569  0.1517  0.1071 -0.1214
 7111W        W26645   7.173  16.227  14.052 -0.0562  0.3516  0.3385
 7112W        W26646   3.989   6.535   3.262 -0.0292 -0.2042  0.0301
 7113W        W26647   8.120  12.010  12.547 -0.0936 -0.1205  0.3123
 7114W        W26648  15.131  15.973   2.772 -0.0665 -0.3405 -0.0731
 7115W        W26649   1.732   8.171   2.248  0.0130  0.1841 -0.3508
 7116W        W26650   6.881   1.921   1.632  0.2154 -0.0529  0.1765
 7117W        W26651  10.478   2.916   1.626 -0.3421  0.1075 -0.3807
 7118W        W26652  15.526   4.255   1.975 -0.3566  0.1874 -0.1943
 7119W        W26653   8.427  11.737  10.822  0.1620 -0.0301  0.0929
 7120W        W26654  11.938   7.961  14.630  0.2050  0.1334  0.0881
 7121W        W26655   7.763  13.167   4.165  0.2049  0.2504 -0.0470
 7122W        W26656  11.152  10.861   2.780  0.0822  0.2481  0.1254
 7123W        W26657   2.007   4.589  12.854  0.3283  0.1631 -0.4583
 7124W        W26658   9.457   1.015  13.780 -0.0491  0.2885  0.1542
 7125W        W26659  16.177  15.128  14.183 -0.0412 -0.0425 -0.2296
 7126W        W26660  17.916  11.742   2.709 -0.0505  0.0935  0.0946
 7127W        W26661   2.588   9.635   4.351 -0.1795  0.1605  0.0856
 7128W        W26662   1.216   1.868  13.690 -0.2591 -0.2733  0.0509
 7129W        W26663   3.124   2.499  14.220 -0.1158  0.0293 -0.1631
 7130W        W26664   0.066   9.730  11.444  0.1359  0.3167  0.1917
 7131W        W26665   9.446  17.255   2.969 -0.0602  0.0720 -0.1196
 7132W        W26666  13.392   9.753   1.849  0.2230 -0.1114  0.0856
 7133W        W26667  18.065   9.177  10.434  0.0680  0.0754 -0.0690
 7134W        W26668   4.733   9.212  12.465 -0.3398  0.0618 -0.2229
 7135W        W26669   5.112   4.341   0.289  0.0837 -0.0338  0.1399
 7136W        W26670  12.640  15.257   3.689 -0.0578 -0.1367 -0.0087
 7137W        W26671   6.702   7.735   0.957 -0.3224  0.2567 -0.2700
 7138W        W26672   8.088   7.242  10.819 -0.0192  0.0537  0.1002
 7139W        W26673   4.572   7.523   4.460  0.3968  0.1038 -0.6022
 7140W        W26674  15.848   9.503   0.850  0.0606 -0.1488 -0.0681
 7141W        W26675   2.720   8.792  11.656  0.0050 -0.0337 -0.0858
 7142W        W26676   4.082   0.287   3.070 -0.0577  0.2889  0.2662
 7143W        W26677  13.589  16.061  13.549 -0.3108  0.1499  0.0221
 7144W        W26678   7.853  14.951  12.407  0.1002 -0.1903  0.0387
 7145W        W26679  17.278   8.249   2.781  0.0295 -0.3399 -0.1384
 7146W        W26680  18.406  17.702  11.028  0.2526 -0.0167 -0.0419
 7147W        W26681   2.128  11.021  10.726 -0.3177 -0.0921  0.0075
 7148W        W26682  13.387   4.247   2.137  0.6117  0.0405 -0.3561
 7149W        W26683  14.455  17.021  11.974  0.3627  0.1699 -0.0831
 7150W        W26684  15.464  12.231   3.778  0.1191  0.1951 -0.0319
 7151W        W26685  16.527   7.969  11.747  0.0878 -0.0950  0.1823
 7152W        W26686  13.466   7.592   2.299 -0.3891  0.0735  0.0355
 7153W        W26687   5.474  18.443   4.435 -0.0874  0.1548  0.2179
 7154W        W26688  14.426   6.708   4.057  0.0671  0.2218 -0.2995
 7155W        W26689   6.327   8.449  11.642 -0.3268 -0.0318 -0.0865
 7156W        W26690  12.172  18.933   0.433  0.2891 -0.0480  0.1766
 7157W        W26691   7.595   9.879  13.568  0.0466 -0.3022 -0.3849
 7158W        W26692  12.522   2.310  14.661  0.5457  0.2399 -0.0154
 7159W        W26693   1.940   4.942   2.598  0.0304 -0.2782 -0.2044
 7160W        W26694  18.897  10.084   3.891  0.2332 -0.0209 -0.1734
 7161W        W26695  17.394  12.047   4.050  0.2158  0.4474  0.0507
 7162W        W26696   1.204   3.221  14.617 -0.3493 -0.1714 -0.0662
 7163W        W26697  15.143  17.508  14.246 -0.0534 -0.1876 -0.3467
 7164W        W26698  18.819   8.980   5.077 -0.3245  0.0546 -0.1749
 7165W        W26699  18.479  15.349  14.760 -0.2009 -0.3202 -0.0279
 7166W        W26700   8.546   7.722   3.976  0.2876 -0.1661 -0.0923
 7167W        W26701   3.432   5.288   0.688  0.0395  0.1645 -0.1130
 7168W        W26702  17.953  17.834  11.328  0.1325  0.2556  0.2716
 7169W        W26703  18.715  13.644   2.443 -0.0117  0.2376  0.2543
 7170W        W26704  18.893  17.382   2.232 -0.1599 -0.1989  0.1606
 7171W        W26705   7.816   1.603  12.880 -0.0904 -0.0906  0.0289
 7172W        W26706  13.657   4.973   1.193 -0.1818 -0.6904  0.0168
 7173W        W26707  10.949   5.232   5.376  0.0020  0.0602 -0.0478
 7174W        W26708  17.991   6.094   3.274  0.3183  0.2420  0.1439
 7175W        W26709   9.187   5.187   1.907 -0.4176  0.1347  0.0974
 7176W        W26710  18.063   1.309   1.716  0.1718 -0.0043 -0.1884
 7177W        W26711  13.986   2.069   3.444  0.1012 -0.0424  0.1085
 7178W        W26712  12.510  13.061   3.915 -0.1620  0.2339  0.1868
 7179W        W26713  11.174   6.380  12.657 -0.3836 -0.2282 -0.2237
 7180W        W26714   5.358   0.166   9.737  0.0579  0.0883  0.1935
 7181W        W26715  12.157  14.853  12.201  0.1527  0.3552  0.2665
 7182W        W26716  13.359   0.467   0.964  0.1172 -0.2361  0.2328
 7183W        W26717  10.308   2.839  14.464  0.3738  0.3020 -0.0158
 7184W        W26718  17.377  16.231  12.137 -0.0084 -0.0857  0.0044
 7185W        W26719   7.421   9.921  14.047 -0.3961  0.1113 -0.0987
 7186W        W26720   2.471   2.602  11.023  0.1873 -0.0702 -0.0138
 7187W        W26721   4.498  14.381  11.575  0.0657 -0.0467  0.0194
 7188W        W26722   7.595   0.723  13.029 -0.2803  0.3534  0.0751
 7189W        W26723   4.011  13.543   4.398  0.0815 -0.1798 -0.2631
 7190W        W26724  11.671   4.511   0.537 -0.3548 -0.1266  0.1614
 7191W        W26725  11.522  16.769  12.378  0.2470  0.2678  0.1714
 7192W        W26726   2.147   4.626   0.143  0.1971 -0.3010  0.1068
 7193W        W26727  14.624   5.062   2.636 -0.0335  0.0015  0.0490
 7194W        W26728   3.847  13.216  12.435 -0.4428 -0.1116  0.0173
 7195W        W26729   5.576  17.632   4.528  0.2261 -0.0433 -0.0711
 7196W        W26730  14.607   2.819  13.933  0.1046  0.0669 -0.1276
 7197W        W26731   2.403  13.512   4.011  0.1524  0.1050  0.0182
 7198W        W26732  17.404   3.118   3.834 -0.1350 -0.1527 -0.0003
 7199W        W26733  16.848  10.699  14.487  0.0239  0.2696 -0.1470
 7200W        W26734   3.682  18.667  12.650  0.1189 -0.2969 -0.0404
 7201W        W26735  13.132   8.886   0.694 -0.0980 -0.1982 -0.2058
 7202W        W26736   0.908   7.591   0.793 -0.0105 -0.0986 -0.2837
 7203W        W26737  17.482   5.779  11.613 -0.2050 -0.1606  0.1850
 7204W        W26738  14.370   3.276   0.559  0.0479  0.0209 -0.1069
 7205W        W26739   3.303   8.516   1.995 -0.1870 -0.0355  0.0899
 7206W        W26740   8.295   2.558   0.405 -0.1342  0.0957 -0.1079
 7207W        W26741   5.980   9.177   0.934  0.0870  0.0383 -0.0746
 7208W        W26742   5.060  11.107  13.569 -0.2452 -0.2791 -0.0858
 7209W        W26743   5.583   3.087  13.574  0.0475  0.0742  0.1966
 7210W        W26744  14.013  10.985   2.844  0.0913 -0.0168  0.0347
 7211W        W26745   8.185  16.190   3.190  0.0916  0.0600 -0.1573
 7212W        W26746   9.904  10.644   4.575 -0.2945 -0.2864  0.2969
 7213W        W26747   8.571  11.230  13.105 -0.0426 -0.0074  0.2560
 7214W        W26748   3.933   0.299   4.257  0.3301 -0.0320  0.1201
 7215W        W26749  17.196   6.285  13.556  0.3211  0.3443  0.2172
 7216W        W26750  10.926   6.919  11.684  0.0392  0.2234  0.1390
 7217W        W26751   5.690   9.555  12.652  0.1918  0.0354 -0.1415
 7218W        W26752   2.203   4.542   3.964  0.1028 -0.1964 -0.5204
 7219W        W26753  13.777   7.064   0.956  0.0383  0.1621  0.0588
 7220W        W26754   4.123   7.451  10.930  0.1713  0.0161 -0.3487
 7221W        W26755  11.107   0.868  11.324  0.0535 -0.0208  0.0474
 7222W        W26756  16.149   5.674  14.409 -0.2612 -0.2361 -0.1044
 7223W        W26757   9.092   6.795  10.764  0.2451  0.1748  0.2812
 7224W        W26758  12.420   9.933  13.274  0.0055  0.2509 -0.1047
 7225W        W26759   5.134  12.176   1.555  0.3203  0.3739 -0.0290
 7226W        W26760   2.812   4.794   0.256  0.1820  0.4172  0.3970
 7227W        W26761  17.540   9.952  14.261  0.0068  0.2107  0.2894
 7228W        W26762   0.141  14.493   3.602  0.0844 -0.0256  0.0442
 7229W        W26763  19.025   4.318   8.953 -0.2170  0.4167 -0.4854
 7230W        W26764  12.269  15.018   0.710 -0.0884 -0.1807 -0.2540
 7231W        W26765  13.369   4.666   0.959  0.1874  0.2007  0.0579
 7232W        W26766  10.141  16.965   5.425 -0.3293 -0.1129  0.1306
 7233W        W26767   2.967  13.258   3.260  0.1134 -0.1073  0.1143
 7234W        W26768   5.703  13.528  12.024 -0.2691 -0.1080  0.3314
 7235W        W26769   2.241   5.472   0.384  0.4255 -0.3402  0.0965
 7236W        W26770   0.068  18.225   2.685 -0.2754  0.0701 -0.2843
 7237W        W26771  13.001  10.279   0.648 -0.1196  0.0149  0.0906
 7238W        W26772  13.858  17.658  12.899 -0.0137  0.1505  0.0621
 7239W        W26773  14.092  15.531  14.569 -0.2048 -0.2351  0.2133
 7240W        W26774   5.339  15.998   2.679 -0.2016 -0.0929 -0.1982
 7241W        W26775   1.193  14.246   4.079 -0.2155  0.0263  0.1754
 7242W        W26776  14.901  17.069  13.126 -0.0660  0.0793 -0.2122
 7243W        W26777  11.088   1.473   0.588 -0.0490  0.1532 -0.0118
 7244W        W26778   7.187   5.700   0.390 -0.0399  0.0423 -0.1954
 7245W        W26779   3.787   2.797   2.477  0.2756  0.3915 -0.1647
 7246W        W26780   6.007  10.933  10.612 -0.1365  0.1757  0.0651
 7247W        W26781   1.074  11.467   4.398 -0.2052 -0.2513  0.0736
 7248W        W26782   7.042  12.497  11.652  0.0419 -0.0146  0.0041
 7249W        W26783   0.244  16.436   4.754  0.0421  0.2221 -0.1702
 7250W        W26784  17.003  17.485   1.187  0.1144 -0.3251  0.1230
 7251W        W26785  16.597  18.947   0.518  0.0075  0.4362  0.1455
 7252W        W26786  15.840   2.182  13.680  0.2769  0.0688  0.1327
 7253W        W26787  11.167   4.202   3.645 -0.0306 -0.1856  0.1647
 7254W        W26788  12.443   2.234   3.117  0.3657 -0.0971  0.0976
 7255W        W26789   8.336   4.296   2.467 -0.0768  0.0451 -0.2033
 7256W        W26790  17.582  16.708   1.394 -0.0765  0.2505 -0.1427
 7257W        W26791   8.214  10.885  12.801  0.1675  0.0453 -0.0634
 7258W        W26792  15.812  12.035  14.822  0.0442 -0.1377 -0.0723
 7259W        W26793  16.231   2.178   3.743  0.1958 -0.0735  0.0492
 7260W        W26794   5.486   5.024   1.741 -0.2046 -0.1845  0.2864
 7261W        W26795  14.155   7.929  11.412 -0.1735 -0.0489 -0.2165
 7262W        W26796   9.615  18.852   1.713 -0.2001  0.0528 -0.0077
 7263W        W26797  18.856  14.194   2.090 -0.3223 -0.1328  0.1286
 7264W        W26798   2.441   0.012  13.931  0.1599 -0.0219  0.0126
 7265W        W26799   8.082  10.434  11.880 -0.1129  0.3326  0.0176
 7266W        W26800   3.123   6.307  14.555 -0.1146 -0.2162  0.0093
 7267W        W26801   9.729  10.076  12.546  0.1173 -0.0135  0.0047
 7268W        W26802   1.920   1.865  14.367 -0.1881  0.1985 -0.1316
 7269W        W26803  11.424  15.417  12.387  0.0501 -0.3115 -0.2760
 7270W        W26804   5.420   5.011  13.394 -0.0400  0.0164  0.0212
 7271W        W26805   4.268   6.790  14.016  0.2337  0.0102  0.0299
 7272W        W26806  16.651   0.388   1.242  0.2758 -0.3344 -0.0763
 7273W        W26807  11.429  16.786   3.655 -0.1062  0.2529 -0.2932
 7274W        W26808  11.849   2.107   0.506  0.1803 -0.1040  0.0861
 7275W        W26809   1.484   8.657   2.198  0.1165 -0.2985 -0.1014
 7276W        W26810   3.859  10.677  14.462 -0.0116  0.0137 -0.1160
 7277W        W26811   5.733  17.758   0.343  0.2606 -0.2378 -0.1639
 7278W        W26812   7.627  18.901  10.844 -0.0878 -0.1299  0.0800
 7279W        W26813  10.779  17.604   0.754 -0.0611  0.1707 -0.2687
 7280W        W26814   7.092   9.062   2.205 -0.1521  0.2259 -0.0005
 7281W        W26815   7.077  14.310   1.861 -0.1082 -0.1391  0.0777
 7282W        W26816  14.813   9.526   9.953 -0.1437  0.2685 -0.1889
 7283W        W26817   5.338   9.567  11.041  0.2332  0.2543  0.2299
 7284W        W26818   0.815  18.500  14.057  0.1319  0.2771 -0.3149
 7285W        W26819   0.733  11.918  12.761  0.0392  0.0755  0.3336
 7286W        W26820  15.758   1.196   3.110 -0.2171  0.1090 -0.1308
 7287W        W26821   7.144  14.764  12.248  0.0786  0.2524  0.0456
 7288W        W26822   1.512  13.849   0.810 -0.0819 -0.1262 -0.0361
 7289W        W26823   9.737  16.409  14.287  0.3449 -0.0490 -0.1348
 7290W        W26824   4.249   5.503   3.172  0.0309  0.1168 -0.4282
 7291W        W26825  10.756  15.347   1.399 -0.2720  0.0055  0.0737
 7292W        W26826  13.716  11.861  12.882  0.2687  0.0515  0.1455
 7293W        W26827   4.752  14.131   0.585  0.3223 -0.0145  0.1142
 7294W        W26828   6.082   0.085  13.593  0.2250 -0.0753 -0.1747
 7295W        W26829   8.777   9.783   2.771  0.0325  0.1105  0.1274
 7296W        W26830   1.391  13.708  14.453 -0.2057 -0.2676  0.2951
 7297W        W26831   0.702   7.986   3.160 -0.0342 -0.0181  0.1832
 7298W        W26832  14.651  14.698  11.728 -0.1449  0.0761  0.1877
 7299W        W26833  15.251  12.515   4.875 -0.1962  0.0563 -0.1280
 7300W        W26834   2.533  14.438   2.044  0.0742 -0.0409  0.0357
 7301W        W26835  14.137   2.212   1.204 -0.2115  0.0807  0.1439
 7302W        W26836   5.072   0.404   3.171  0.0954  0.1512 -0.0464
 7303W        W26837   4.216   7.273   1.803 -0.1309  0.2405  0.0877
 7304W        W26838   1.401   9.701   3.294  0.1427 -0.1759 -0.2695
 7305W        W26839  17.213   0.877  10.803  0.1089  0.0944 -0.4451
 7306W        W26840   0.157   2.498   2.399 -0.2369 -0.1757  0.1211
 7307W        W26841  15.517  18.376  12.702 -0.0646  0.0149 -0.0861
 7308W        W26842   7.825  14.135   3.909 -0.0604  0.0681 -0.0603
 7309W        W26843  18.660  14.405   2.501  0.0690 -0.1781  0.0139
 7310W        W26844  14.396   3.631   2.139  0.2943 -0.1745  0.1805
 7311W        W26845  17.885  18.065   0.949 -0.2646 -0.0763  0.0847
 7312W        W26846  10.551   8.165  13.351  0.1468  0.0010  0.2907
 7313W        W26847   5.684   6.977   3.151  0.1189 -0.0458  0.1161
 7314W        W26848   3.875   6.620   0.207 -0.2135 -0.2634  0.2483
 7315W        W26849  12.127  11.839   4.592 -0.0050 -0.2130  0.0029
 7316W        W26850  11.151   4.507   1.353  0.1285 -0.3453  0.2552
 7317W        W26851  14.495  16.803   3.806 -0.1057 -0.0424  0.1685
 7318W        W26852  18.009   8.835  13.928 -0.1419 -0.1568 -0.1563
 7319W        W26853  12.193   3.921   9.674  0.0583  0.0796 -0.0902
 7320W        W26854  11.905  15.044  14.328  0.0717 -0.1068 -0.0844
 7321W        W26855  15.337  11.042  12.649  0.2056 -0.0611 -0.0667
 7322W        W26856  14.215   2.160   1.863  0.0571  0.0592  0.0518
 7323W        W26857  11.441   7.048  13.673 -0.0636  0.2865  0.1281
 7324W        W26858   3.114  16.968   2.212  0.3832 -0.1668  0.0611
 7325W        W26859   4.189   3.707   3.715 -0.1021  0.2717  0.0339
 7326W        W26860   3.828  15.728  11.336 -0.0058  0.1259  0.1012
 7327W        W26861   7.682   1.204  10.191  0.1327 -0.0586  0.1739
 7328W        W26862  18.143   0.297   0.029  0.1991 -0.1720  0.2569
 7329W        W26863   6.096   9.299  12.758 -0.0741 -0.3559  0.1835
 7330W        W26864  10.568   7.426  10.872 -0.1287  0.0779  0.2078
 7331W        W26865  11.495  10.588  12.861  0.0290  0.1659  0.0358
 7332W        W26866   3.519  10.350   0.458  0.3290 -0.0167 -0.1892
 7333W        W26867   4.468  14.336  12.995 -0.1945 -0.4223 -0.0341
 7334W        W26868  13.225   2.099  14.484  0.1917 -0.2108 -0.1635
 7335W        W26869  12.202   5.058  13.071  0.1892  0.4255  0.2240
 7336W        W26870  16.869   9.115   2.233 -0.3901 -0.0816 -0.1726
 7337W        W26871   1.039   7.644   1.283 -0.0125  0.4389 -0.0590
 7338W        W26872   4.909   7.640   2.945  0.2331 -0.2846 -0.3987
 7339W        W26873   3.759   1.889   3.311  0.0411  0.1298  0.1687
 7340W        W26874  14.427  17.881   1.052 -0.0019 -0.3157  0.0252
 7341W        W26875   4.386   6.621  10.671 -0.2045 -0.0046 -0.1191
 7342W        W26876   6.192   9.172   1.822  0.0933 -0.1482 -0.2084
 7343W        W26877  14.589   3.453   1.577 -0.0074  0.0135  0.0753
 7344W        W26878   2.464  18.522   3.650  0.1110  0.1359  0.1992
 7345W        W26879  11.771   1.080  13.087  0.0143  0.1581  0.0189
 7346W        W26880   6.851  15.704   3.635 -0.0323 -0.0500 -0.2183
 7347W        W26881  16.380  17.359  13.149 -0.2037  0.0801 -0.1775
 7348W        W26882  16.499  15.513  14.111  0.1096 -0.0643  0.0859
 7349W        W26883   0.721   6.203   3.225  0.3753 -0.3089 -0.1531
 7350W        W26884  17.330  12.007  12.032 -0.1611 -0.0096  0.2342
 7351W        W26885   2.432  11.371  12.814 -0.2482  0.3996 -0.3227
 7352W        W26886   8.055   1.468  14.427 -0.0088 -0.1200 -0.0475
 7353W        W26887   2.466   7.955  11.189 -0.0736 -0.0205  0.1130
 7354W        W26888   5.760  12.143   2.573  0.1597  0.3362 -0.2949
 7355W        W26889  16.017   2.251   2.967  0.1880 -0.0319 -0.1841
 7356W        W26890  14.129  10.395   1.109 -0.2324 -0.2414  0.2180
 7357W        W26891  15.586  13.557   2.976  0.0348  0.5180 -0.2834
 7358W        W26892   7.834   6.787   3.255 -0.1346  0.4670 -0.0874
 7359W        W26893  15.552   3.486  14.369  0.0401  0.1347 -0.2574
 7360W        W26894  18.221   5.205   0.131  0.2279  0.2341 -0.0312
 7361W        W26895   6.574   3.316  12.569 -0.0140  0.1343 -0.0192
 7362W        W26896  10.602   4.870   3.126  0.2011 -0.1090 -0.1000
 7363W        W26897  13.134  10.051   3.139  0.0955 -0.1150 -0.2757
 7364W        W26898  12.222  15.280   3.362  0.2620 -0.1974 -0.0791
 7365W        W26899   4.086  14.318   1.428 -0.0233  0.4247 -0.2319
 7366W        W26900   5.167   2.095   4.036 -0.2589  0.1156  0.1156
 7367W        W26901  14.707   0.261   0.900  0.2074  0.0384  0.0861
 7368W        W26902   6.977   9.571  12.505  0.0365  0.0301 -0.1407
 7369W        W26903   4.565  17.168   2.974 -0.1269  0.1488  0.1555
 7370W        W26904   4.220  19.080  12.354  0.2974  0.0746 -0.0518
 7371W        W26905  10.702   8.969  11.049 -0.3506  0.2261 -0.0735
 7372W        W26906   9.657   2.319   3.770 -0.0324  0.1835 -0.3904
 7373W        W26907   7.400  12.704   0.200  0.0470  0.1062  0.1086
 7374W        W26908   5.256   1.675   9.636  0.1910  0.2511  0.1687
 7375W        W26909   5.574   7.808   4.226 -0.0456 -0.1992 -0.0254
 7376W        W26910   6.269   8.476  14.524  0.0094  0.1325  0.0436
 7377W        W26911  17.913   5.524   0.603 -0.1410  0.0796 -0.0276
 7378W        W26912   1.230   1.137   2.489  0.2301 -0.0764 -0.0950
 7379W        W26913   0.002  11.372  13.031 -0.4095  0.0848  0.2257
 7380W        W26914  10.408  15.650  14.602  0.1596  0.0449  0.1403
 7381W        W26915   2.887   2.062  12.296  0.2046  0.2801 -0.2467
 7382W        W26916   7.986   2.966   0.660  0.0097 -0.1075 -0.1268
 7383W        W26917   8.627   1.324  11.500  0.0849 -0.0379  0.0249
 7384W        W26918   9.910   8.041  11.569  0.1359 -0.2437  0.1023
 7385W        W26919   2.747  16.749   3.242 -0.1450  0.1828 -0.4110
 7386W        W26920  15.218   1.394   0.077  0.0617 -0.1242 -0.0321
 7387W        W26921  15.086  18.752  14.269  0.1942  0.0921  0.0632
 7388W        W26922   7.992  14.443  13.037 -0.0121  0.0109  0.0009
 7389W        W26923  17.830   2.774   0.238 -0.0654  0.0282 -0.0528
 7390W        W26924  15.679  14.618  12.783  0.0170 -0.0793 -0.0916
 7391W        W26925  16.037  12.669  11.682 -0.1096 -0.0863  0.1057
 7392W        W26926   6.101   2.421  12.480  0.2053  0.0365 -0.1224
 7393W        W26927   8.565  10.687  12.361  0.4032  0.0733  0.1524
 7394W        W26928  17.099   7.461   3.965  0.1718 -0.2631 -0.2135
 7395W        W26929  18.202   9.246  14.092  0.1353  0.1419 -0.0162
 7396W        W26930   3.068  14.404   1.772 -0.0621 -0.0005 -0.0237
 7397W        W26931   4.852  15.235  14.626  0.2212 -0.0209 -0.1269
 7398W        W26932   6.041   8.649   0.444  0.2200  0.0705 -0.0960
 7399W        W26933  17.430  15.230   0.037  0.0848 -0.2261  0.2920
 7400W        W26934  14.322   1.160   3.795  0.0454  0.1713 -0.4505
 7401W        W26935  14.319  13.818  13.846 -0.1023  0.1126  0.0656
 7402W        W26936   3.139  17.120  14.279  0.0714  0.2348 -0.0240
 7403W        W26937   2.417  10.354  14.436  0.0808 -0.0024 -0.2731
 7404W        W26938  11.591  17.449   3.121 -0.2806 -0.1567 -0.2089
 7405W        W26939   2.805  15.541   4.156  0.1906  0.2810 -0.0897
 7406W        W26940  12.226  11.496  10.348 -0.0067  0.2978  0.2482
 7407W        W26941  14.536  18.596   1.722  0.0183  0.1159 -0.2391
 7408W        W26942  18.096   7.983   2.421  0.1079  0.2394  0.0731
 7409W        W26943  15.128   8.416   1.799 -0.1935  0.1232 -0.0688
 7410W        W26944   8.908  11.106  12.269  0.1382 -0.4737  0.1587
 7411W        W26945   4.626   2.027  13.205  0.0033  0.3120 -0.1745
 7412W        W26946   4.904   2.096  12.620 -0.3201  0.1092 -0.0085
 7413W        W26947  10.620   9.680  13.083 -0.0047 -0.1198  0.1581
 7414W        W26948  11.382  17.559   1.519  0.3398 -0.0621  0.0669
 7415W        W26949   4.876   3.829  10.520  0.1288 -0.0264 -0.0639
 7416W        W26950   4.231   2.386   3.060 -0.1777 -0.1478  0.1206
 7417W        W26951  15.713  12.990   2.232  0.0300 -0.0977  0.0907
 7418W        W26952   3.109   2.175   2.717  0.0838  0.1677 -0.2169
 7419W        W26953   1.113  16.269  12.603 -0.2914  0.0506  0.3566
 7420W        W26954   7.526  15.562   1.305  0.0432  0.0230 -0.0941
 7421W        W26955  15.578  16.909  12.643  0.2260  0.0806 -0.1581
 7422W        W26956  10.706  12.006  10.999  0.2188 -0.2794  0.1239
 7423W        W26957   9.842   5.727   3.443 -0.0627  0.0737 -0.0167
 7424W        W26958   4.205   6.413  12.492  0.0775 -0.0709 -0.1605
 7425W        W26959   3.944  16.236  13.988  0.2295 -0.1440 -0.3978
 7426W        W26960  10.753  12.375  13.854  0.1154  0.0954 -0.0981
 7427W        W26961  17.660   0.006   3.837  0.2883  0.0611 -0.0421
 7428W        W26962  14.760   4.572   3.610  0.0858  0.1335  0.0626
 7429W        W26963  10.386  15.955  14.142 -0.0274 -0.0850 -0.1422
 7430W        W26964  11.625   3.598   3.780 -0.1379 -0.2246 -0.0302
 7431W        W26965   8.420   0.398   1.017 -0.2755 -0.1992  0.1451
 7432W        W26966   8.164  13.599  14.387 -0.0332  0.0772  0.0632
 7433W        W26967   0.146   5.438  12.036  0.3030  0.0931  0.2696
 7434W        W26968   2.354  18.534   4.357 -0.3976 -0.0374 -0.0414
 7435W        W26969   8.895   3.427  12.226 -0.1019 -0.1876 -0.0825
 7436W        W26970  13.141   4.963  10.800  0.1187  0.1808 -0.1624
 7437W        W26971  15.215  16.550   1.404 -0.2754 -0.2234 -0.1087
 7438W        W26972  14.858   8.454  12.115  0.3897  0.2868  0.0869
 7439W        W26973   0.937   6.381  14.499  0.0248  0.1987  0.1138
 7440W        W26974  17.197   2.951  10.305 -0.3113  0.3494  0.0961
 7441W        W26975   3.303   7.393   2.491  0.1062 -0.2237  0.3188
 7442W        W26976   8.353   8.585  12.740  0.1830  0.0164  0.0017
 7443W        W26977   4.945  16.155   1.721 -0.1063  0.2048 -0.1744
 7444W        W26978   8.996   2.660  13.518  0.0609 -0.2715 -0.0854
 7445W        W26979   5.709  17.434  12.767 -0.0858 -0.0201  0.0935
 7446W        W26980   3.819   9.384   2.263  0.0213  0.1019  0.2451
 7447W        W26981   9.260  10.048  13.362 -0.1489 -0.0040  0.0983
 7448W        W26982   1.181   8.923   4.517  0.0726 -0.3896  0.0403
 7449W        W26983   3.449  17.540  10.538 -0.2631  0.3097 -0.1055
 7450W        W26984   0.165   3.799  10.508  0.2258 -0.2392 -0.0537
 7451W        W26985  11.343  10.491  13.397  0.3097  0.1807 -0.3379
 7452W        W26986  13.009  15.590   1.142  0.2029 -0.0975 -0.0393
 7453W        W26987   4.473  14.109   0.107 -0.5101 -0.0556 -0.1172
 7454W        W26988  18.505   5.581   0.868 -0.1672 -0.5109  0.0565
 7455W        W26989   1.520  17.945   2.197  0.2055  0.0864  0.1003
 7456W        W26990   2.571  15.530  14.318  0.1885  0.0757 -0.4295
 7457W        W26991   9.144   3.909  14.721  0.4023 -0.0726 -0.2736
 7458W        W26992   0.100   1.832   0.359  0.0510 -0.0204 -0.3676
 7459W        W26993   6.832   1.850   2.116 -0.0285  0.1982 -0.1077
 7460W        W26994   7.730   3.691   1.191 -0.0497 -0.2246  0.0551
 7461W        W26995   9.501   6.785  13.760  0.0016 -0.0907  0.2472
 7462W        W26996   8.579  12.088   3.336  0.1411  0.0910  0.0355
 7463W        W26997   5.228   4.226  10.603 -0.1732  0.2416 -0.1027
 7464W        W26998  13.231   1.142  14.332 -0.0033 -0.2443 -0.1837
 7465W        W26999   0.290   1.883   4.458 -0.2433  0.1704  0.2125
 7466W        W27000   5.193  18.950   3.821 -0.1439 -0.0467 -0.2608
 7467W        W27001  15.505   5.880   9.922  0.0098 -0.0359  0.1819
 7468W        W27002   3.665  14.621  13.177 -0.1648  0.0244  0.1251
 7469W        W27003  10.768  17.589  14.739  0.0910  0.0377  0.0234
 7470W        W27004  14.282   1.337   1.440 -0.0106  0.1917  0.3417
 7471W        W27005   8.097  11.809   2.274  0.1899 -0.1363 -0.1535
 7472W        W27006  10.097  13.301   2.079 -0.0460  0.1884 -0.1120
 7473W        W27007  17.338  12.667   4.126  0.2217 -0.3197  0.3616
 7474W        W27008  13.734   4.435  11.171 -0.0629  0.0159 -0.1761
 7475W        W27009   1.097   5.961  12.054 -0.1917 -0.1426  0.2569
 7476W        W27010  12.573  18.539  10.664  0.0616  0.1844  0.3461
 7477W        W27011  16.318  16.512   3.403 -0.0600 -0.2728 -0.0064
 7478W        W27012   1.779   5.241  10.983 -0.0354  0.3922 -0.3114
 7479W        W27013   3.753   2.644  12.228  0.0975 -0.1076  0.1168
 7480W        W27014   2.763   5.436  10.049 -0.2004  0.0187 -0.0448
 7481W        W27015  17.686  16.093  14.334  0.1724  0.0772 -0.1307
 7482W        W27016   2.752  11.722  11.389  0.0217  0.1586  0.1340
 7483W        W27017   9.628   8.568   2.257 -0.0394 -0.2176  0.2325
 7484W        W27018  16.447  12.969  11.723  0.0478  0.0771 -0.4122
 7485W        W27019   6.073  12.999   0.715 -0.0443 -0.3661  0.2808
 7486W        W27020  16.994   9.697  12.687 -0.2191  0.1465 -0.1467
 7487W        W27021  10.803   0.291   0.447  0.0455 -0.0464  0.1215
 7488W        W27022  14.502  11.385   1.521 -0.0443 -0.0853  0.1927
 7489W        W27023  17.347   6.642   9.806 -0.1780 -0.1010  0.1919
 7490W        W27024   1.186   9.837  14.620 -0.0418  0.3464 -0.0975
 7491W        W27025  18.382   4.978  13.478 -0.1584 -0.0372  0.0399
 7492W        W27026   1.932   9.619  14.545  0.0982 -0.2809 -0.1503
 7493W        W27027  17.777   8.811  14.758  0.0062 -0.0323  0.0794
 7494W        W27028  12.899  13.459   2.765  0.3470 -0.5366 -0.1493
 7495W        W27029   2.175  19.046  12.252 -0.2125 -0.0269  0.1641
 7496W        W27030  15.427   1.217   3.542 -0.1991  0.2411 -0.2976
 7497W        W27031   4.560  15.253   4.419  0.0648  0.1283 -0.1208
 7498W        W27032  13.292   4.069  12.276 -0.0626 -0.0087 -0.3328
 7499W        W27033   5.412  14.001  14.086 -0.1682  0.1816  0.1656
 7500W        W27034  17.645   9.551   0.223 -0.0013  0.0712 -0.0964
 7501W        W27035   9.337   9.004  14.626  0.2145  0.0773  0.1021
 7502W        W27036  15.393   2.156  12.930 -0.1052 -0.0613  0.4437
 7503W        W27037   3.946  11.256   0.947 -0.1557  0.1999  0.0937
 7504W        W27038   6.251  16.469  11.962  0.2222 -0.0489 -0.2546
 7505W        W27039   6.490   7.926   3.385 -0.1399 -0.0788 -0.0211
 7506W        W27040   8.699   7.180  12.124 -0.2298  0.1417  0.1621
 7507W        W27041   3.553   9.839   1.541 -0.0828  0.0672  0.0241
 7508W        W27042   7.079   2.815   2.077  0.0177 -0.1246  0.1542
 7509W        W27043   8.975  10.333   1.761  0.2552  0.1213  0.3056
 7510W        W27044   1.057   7.149   1.211  0.1021  0.0279  0.1896
 7511W        W27045   7.251  18.978  12.292 -0.1107 -0.2108 -0.0768
 7512W        W27046  16.625  13.272   0.726  0.2089 -0.2924  0.2527
 7513W        W27047  17.960  11.901  10.674 -0.0738  0.3061  0.1299
 7514W        W27048  15.837  13.204  10.914 -0.2989 -0.1131 -0.1033
 7515W        W27049   3.695   8.163  12.645  0.2469 -0.0992 -0.2598
 7516W        W27050  18.353  13.355   4.212  0.0087 -0.0164  0.1918
 7517W        W27051  17.271  12.525   0.058 -0.4952 -0.5173  0.1696
 7518W        W27052  17.610   4.791   1.251 -0.0120 -0.0052  0.0576
 7519W        W27053  11.472  11.880   3.382 -0.2793 -0.1921 -0.1125
 7520W        W27054   4.685   0.785  12.591  0.2876 -0.0552 -0.2270
 7521W        W27055   9.861   4.899   4.002  0.0412  0.3343  0.1485
 7522W        W27056  17.424   4.017   2.708 -0.0130 -0.2452 -0.3327
 7523W        W27057  14.551   1.759   3.248 -0.4404  0.3137 -0.0530
 7524W        W27058   1.929   5.751  13.289  0.2046  0.1005 -0.0521
 7525W        W27059  16.976   3.560   1.621 -0.0288 -0.0220 -0.2392
 7526W        W27060  11.589   7.585   0.143 -0.0048 -0.0486 -0.3407
 7527W        W27061   8.434   2.218  11.559  0.0578 -0.1054  0.1899
 7528W        W27062   8.282   9.037   2.202 -0.2230  0.0644 -0.2521
 7529W        W27063  18.487   6.013   3.540 -0.0045 -0.2146  0.0738
 7530W        W27064  13.562  15.582   2.781  0.2161  0.3472 -0.0347
 7531W        W27065   4.567   5.154   4.385 -0.0596  0.3243  0.0402
 7532W        W27066  12.779   9.454   1.189  0.0928  0.1806  0.0870
 7533W        W27067   8.119  10.399  13.173  0.0403  0.0934 -0.3144
 7534W        W27068  18.432  12.804   2.068 -0.0555  0.1946 -0.2944
 7535W        W27069   0.292   6.416  13.340  0.0809 -0.1463  0.0313
 7536W        W27070   7.487   4.538   0.186 -0.1310 -0.1227 -0.0983
 7537W        W27071  12.836  18.752   1.452  0.0559  0.3647  0.2008
 7538W        W27072   6.037  18.027  10.107  0.1025  0.1037  0.0486
 7539W        W27073  10.162   1.401  12.630  0.0671  0.1387  0.0974
 7540W        W27074  18.945  15.676  10.959 -0.0871  0.1172  0.0191
 7541W        W27075   7.634  14.097   2.211  0.0420  0.3841 -0.0355
 7542W        W27076  17.185   6.013   2.663  0.2633  0.3041  0.3365
 7543W        W27077  18.221  14.418  13.725  0.1009 -0.0453  0.1652
 7544W        W27078  15.704  16.923  13.711  0.1025 -0.1624  0.1373
 7545W        W27079  11.916  15.463   0.680 -0.0016  0.1408 -0.3501
 7546W        W27080   9.705   6.739   0.608  0.0869  0.0440  0.0324
 7547W        W27081  16.790  17.165  14.700 -0.0279  0.2562  0.0386
 7548W        W27082  17.930   7.039  12.660 -0.1614 -0.1061  0.0383
 7549W        W27083  14.956   1.808  13.779  0.1434  0.0791 -0.0732
 7550W        W27084   9.121  18.198  13.917 -0.3201  0.1965  0.0586
 7551W        W27085  17.629  11.738  11.049 -0.4596  0.1389 -0.2133
 7552W        W27086   7.860  14.911  12.962 -0.0455  0.2796 -0.2895
 7553W        W27087  18.101   9.032   2.026 -0.1073 -0.6623 -0.0113
 7554W        W27088   5.908  16.326   0.430 -0.2073 -0.0840  0.2232
 7555W        W27089  11.763  11.857   0.784 -0.0681  0.2436  0.1945
 7556W        W27090  17.774   3.342  13.517  0.1924 -0.2083  0.0195
 7557W        W27091  11.838   8.547   3.715  0.0409  0.0494 -0.2704
 7558W        W27092   4.561   0.486   2.309 -0.1992 -0.3998  0.1764
 7559W        W27093   0.912   5.536  12.941  0.0833 -0.0660  0.0005
 7560W        W27094  17.765  10.952   4.066 -0.1556 -0.2418  0.3488
 7561W        W27095  15.868   5.893   2.031  0.1131  0.0440 -0.0472
 7562W        W27096   7.072  13.384  12.571 -0.0183 -0.0398 -0.1614
 7563W        W27097   4.319  16.209  12.608  0.1301 -0.1646  0.0637
 7564W        W27098   9.637  14.287  10.848 -0.0014 -0.1312  0.0725
 7565W        W27099  17.448  17.709   3.781  0.0332 -0.0872 -0.0690
 7566W        W27100   7.265  10.694   0.607  0.0860  0.1093  0.1301
 7567W        W27101   5.012   1.152   4.004  0.3051 -0.0797  0.2289
 7568W        W27102  16.396   9.949   1.538 -0.1671  0.5523 -0.0465
 7569W        W27103   1.794  10.912  14.839  0.2037  0.2154  0.0360
 7570W        W27104  12.196   6.043   0.324 -0.0880  0.4036  0.0551
 7571W        W27105  15.078   5.974   1.726 -0.0618  0.4141  0.0299
 7572W        W27106   1.241   7.341  13.023 -0.1046 -0.1333  0.1225
 7573W        W27107  16.627  18.346   2.707 -0.3601  0.0749 -0.4902
 7574W        W27108   5.364  14.512   3.628 -0.2606 -0.0051 -0.0302
 7575W        W27109  11.289   8.275   3.169 -0.1190  0.0741 -0.0727
 7576W        W27110   5.389   5.299  13.881 -0.1799  0.2796  0.1619
 7577W        W27111   7.856  14.080   4.428  0.0473 -0.1024 -0.2384
 7578W        W27112  13.416  17.368  12.946  0.1099  0.1215  0.0491
 7579W        W27113   9.038   4.755   4.273 -0.1218 -0.0128 -0.2012
 7580W        W27114   6.352  17.808  13.919 -0.3014 -0.3090 -0.2762
 7581W        W27115  13.335   7.919   2.635  0.0771  0.1295 -0.1668
 7582W        W27116  12.873   3.305   3.758  0.0114 -0.0800  0.0616
 7583W        W27117  10.670   2.538   5.631  0.1108  0.2270 -0.0447
 7584W        W27118  12.007  16.486   0.901 -0.1010  0.2150 -0.0533
 7585W        W27119   5.117  18.273  11.061  0.2834 -0.0759 -0.3642
 7586W        W27120   1.039   9.964   3.482 -0.0613 -0.0332 -0.2589
 7587W        W27121  12.925  11.941   2.470 -0.3308 -0.0583 -0.1448
 7588W        W27122   0.017   3.404  10.851  0.2802 -0.1803  0.0070
 7589W        W27123   2.749  16.857   3.724  0.2207 -0.0146 -0.2346
 7590W        W27124  17.291   2.109  14.525 -0.2459  0.0402  0.1610
 7591W        W27125  14.147   2.896  13.483 -0.0393  0.2003 -0.1420
 7592W        W27126   1.301  12.056  12.759  0.1285 -0.0152  0.3239
 7593W        W27127  14.556  14.941   0.550  0.2164  0.0894  0.1923
 7594W        W27128   1.434   3.471   2.789 -0.1593  0.3348 -0.2549
 7595W        W27129  16.359  15.240   1.549 -0.3885 -0.0503  0.1259
 7596W        W27130  12.439  15.948  12.561 -0.1028  0.1833  0.0092
 7597W        W27131   3.474   4.689  12.680 -0.3222  0.2153 -0.0125
 7598W        W27132   9.030  15.925   3.566  0.2089 -0.1516 -0.3906
 7599W        W27133  14.597   4.064   3.235  0.2336  0.0298 -0.1505
 7600W        W27134  15.165   4.654   3.257  0.1896 -0.2436  0.1885
 7601W        W27135  16.235  12.994   3.922 -0.3110 -0.1582 -0.1555
 7602W        W27136   8.033  11.121  10.709  0.1958 -0.1967  0.0197
 7603W        W27137  18.640  10.596  13.044 -0.0574  0.0096 -0.0424
 7604W        W27138   7.505   5.480  11.385 -0.2827 -0.1984 -0.2055
 7605W        W27139   0.427  16.298   2.129 -0.0175  0.0708  0.1225
 7606W        W27140   6.024  18.712   3.277 -0.3283  0.3866  0.1060
 7607W        W27141  17.309   7.285  11.645 -0.2827  0.1969  0.0153
 7608W        W27142   2.299  14.328   0.351  0.0643  0.2908 -0.2726
 7609W        W27143  15.523  15.371   3.560 -0.1217  0.0133 -0.2811
 7610W        W27144   2.240  12.124   0.212 -0.0695 -0.1202  0.1088
 7611W        W27145   2.332  14.874  12.506 -0.0277 -0.1751 -0.1939
 7612W        W27146  13.993   7.478  11.275  0.3155  0.0797  0.0805
 7613W        W27147  17.747  18.059   1.449  0.0136 -0.0620  0.1780
 7614W        W27148   0.396  12.289   2.411 -0.1649 -0.1538  0.0124
 7615W        W27149   3.259   0.833   2.906  0.0200 -0.1628 -0.0335
 7616W        W27150  17.456   0.517   1.723  0.1226  0.5155  0.0789
 7617W        W27151   6.640   7.313   9.237 -0.2556 -0.1236 -0.0292
 7618W        W27152  11.566  19.020   1.291 -0.1391  0.1616  0.2227
 7619W        W27153   3.208  13.089   2.507  0.0790 -0.0360  0.0592
 7620W        W27154  16.461  15.257   3.182 -0.0302  0.1933 -0.0959
 7621W        W27155  10.172   9.357  10.978 -0.1322  0.1756  0.0758
 7622W        W27156   7.895   2.068   5.386 -0.0060 -0.2148  0.0912
 7623W        W27157   1.424  18.792   4.509 -0.2266  0.1665 -0.0370
 7624W        W27158  14.241   5.891   1.244  0.0070  0.3078  0.0239
 7625W        W27159  13.693  18.910  13.418  0.3003  0.1237 -0.3912
 7626W        W27160  10.800   5.341   2.949 -0.1543  0.0590  0.0071
 7627W        W27161   3.890   5.595  12.741 -0.0287  0.1133  0.0501
 7628W        W27162   3.007   6.688   4.055  0.0207  0.0245  0.0490
 7629W        W27163   2.926  17.062   1.627  0.5227  0.0324 -0.1333
 7630W        W27164  16.170  13.281  13.506 -0.1406  0.1416  0.0990
 7631W        W27165   3.998  14.142   2.687  0.3346 -0.1983 -0.0999
 7632W        W27166   8.247   0.890   0.258 -0.0721 -0.0844 -0.1275
 7633W        W27167  10.378   1.755   4.171  0.0689 -0.1923 -0.1641
 7634W        W27168   1.962  12.016  13.443 -0.0429  0.1520  0.2050
 7635W        W27169  10.371   3.651  12.937  0.0873  0.0404  0.3321
 7636W        W27170   5.313   2.570   2.300 -0.0489  0.0724 -0.2839
 7637W        W27171   4.437   7.419   0.942  0.0095 -0.0096 -0.0560
 7638W        W27172   4.731   3.694   3.514 -0.0671  0.2293 -0.1118
 7639W        W27173  14.606   0.800   0.814 -0.0725 -0.2157 -0.1661
 7640W        W27174   9.496   1.340  13.319 -0.1705  0.1139  0.2268
 7641W        W27175   0.897  16.461  13.474  0.1425  0.2276 -0.2714
 7642W        W27176  15.096   6.523   0.348  0.1949 -0.0546 -0.1763
 7643W        W27177  12.932  19.008  10.856 -0.1545  0.2349 -0.1375
 7644W        W27178   8.093   1.040  14.168 -0.0715 -0.2474 -0.3316
 7645W        W27179   7.666   5.571   2.466 -0.1068  0.2272  0.1320
 7646W        W27180   9.416  15.976  14.345 -0.1267 -0.1588 -0.0120
 7647W        W27181  18.783  17.082  14.237  0.3256 -0.0821 -0.2896
 7648W        W27182   1.216   3.559  11.888 -0.3724 -0.0323 -0.1678
 7649W        W27183   0.673   6.778  13.113  0.3634  0.4329 -0.0437
 7650W        W27184  12.990   6.587   2.474 -0.0144  0.2342 -0.2612
 7651W        W27185  18.930   2.455  12.047  0.0812 -0.2472 -0.2783
 7652W        W27186   0.347  11.119   3.230 -0.2420 -0.2485  0.1525
 7653W        W27187   4.786  13.871  11.808 -0.0203 -0.1392  0.3868
 7654W        W27188  17.492  11.097   1.154 -0.0342 -0.2430  0.1494
 7655W        W27189  18.088   2.923  10.285  0.0190 -0.0815  0.1338
 7656W        W27190  19.076   1.076  12.555  0.1771 -0.0552 -0.0377
 7657W        W27191   0.639   2.183   3.845 -0.1339  0.1233  0.2280
 7658W        W27192   6.732   2.439   1.437 -0.1037 -0.1719  0.0743
 7659W        W27193   4.616   9.638  13.447 -0.3442 -0.3124 -0.1130
 7660W        W27194   0.500   2.745   0.328  0.0950  0.2109 -0.1221
 7661W        W27195  15.364  12.177  13.224  0.1131  0.5758 -0.1238
 7662W        W27196  16.247   1.887   3.279 -0.3460  0.1321  0.2313
 7663W        W27197   6.813   4.617  12.972 -0.2563 -0.0636  0.2533
 7664W        W27198  15.147  18.374   1.166  0.2383 -0.2638  0.0476
 7665W        W27199  18.586  16.325  13.794  0.0445  0.3140  0.0523
 7666W        W27200  16.256   8.220   4.476  0.2944  0.0834 -0.2101
 7667W        W27201  13.387  12.520  12.726 -0.2713 -0.2518  0.1329
 7668W        W27202   2.613   5.949   0.494 -0.3005 -0.1290  0.0937
 7669W        W27203  14.771   3.362   3.028  0.2358  0.0270  0.0979
 7670W        W27204   8.244   3.814   2.501  0.1388  0.1701 -0.1920
 7671W        W27205  13.989  15.703  13.577 -0.1434  0.0753  0.1292
 7672W        W27206  12.577   7.477   2.034  0.0576  0.0024 -0.1820
 7673W        W27207  14.326   5.189  12.992 -0.1459  0.1645 -0.1361
 7674W        W27208  18.967   7.794  12.347  0.2925  0.1813  0.0212
 7675W        W27209   0.582  19.103   1.738  0.1199  0.0127 -0.3342
 7676W        W27210   7.069   5.918  14.720 -0.3824 -0.1690 -0.0011
 7677W        W27211  16.097   9.761  12.560  0.2049  0.2141  0.1790
 7678W        W27212   3.479  13.859   3.807  0.0662  0.0768 -0.3052
 7679W        W27213  15.937  10.274  12.141  0.2222 -0.0424  0.2085
 7680W        W27214  17.215  15.498  13.475 -0.0573 -0.1289 -0.1315
 7681W        W27215  12.146   6.212  13.381 -0.1263  0.2006  0.0890
 7682W        W27216  16.466   8.673   5.287 -0.0313  0.0555  0.1991
 7683W        W27217  13.714   8.457   2.525  0.1124 -0.1211  0.1289
 7684W        W27218   9.721  10.189  13.204 -0.0705  0.2131 -0.0152
 7685W        W27219   6.328   0.451  12.806 -0.3423  0.0338 -0.1193
 7686W        W27220   9.468   6.222  11.810  0.2395  0.5393 -0.2449
 7687W        W27221  16.275   0.799  12.903  0.1100  0.2533 -0.2405
 7688W        W27222  16.513   8.984  13.250  0.0897 -0.1634 -0.2899
 7689W        W27223  17.086  15.759   3.268 -0.1466 -0.0773 -0.1192
 7690W        W27224   7.565   9.479   2.123 -0.1491  0.0313 -0.1557
 7691W        W27225  13.393  14.464  10.630 -0.0606 -0.0488  0.1406
 7692W        W27226  17.955   8.040  14.105  0.0089 -0.2937 -0.1135
 7693W        W27227   3.950   0.037  13.671 -0.1643 -0.1075  0.1361
 7694W        W27228   5.109  18.305  13.331  0.0005 -0.1217  0.5591
 7695W        W27229  16.430   4.981   3.924 -0.7643 -0.0106 -0.4525
 7696W        W27230  10.089  18.049   3.979  0.2453  0.2874  0.0807
 7697W        W27231   6.418   8.162   3.944  0.0057  0.0007  0.1741
 7698W        W27232  18.431  12.404  10.671 -0.2238  0.1085  0.1030
 7699W        W27233   4.190  11.732   3.505  0.1945 -0.0207  0.0548
 7700W        W27234  14.986  14.184   3.379  0.2634 -0.1675  0.0037
 7701W        W27235   9.346  13.695   3.260  0.1060  0.0750  0.4085
 7702W        W27236  15.061   3.193  13.173 -0.1688  0.0547  0.0737
 7703W        W27237  13.178   6.572  12.518  0.0402  0.0705 -0.0605
 7704W        W27238   6.232   1.831   4.520 -0.1746  0.2316 -0.2543
 7705W        W27239   5.347  17.687  12.474 -0.0774 -0.2450  0.0090
 7706W        W27240   2.235   7.148   3.527 -0.1012  0.1886 -0.0006
 7707W        W27241   3.260   5.729  13.605 -0.1453 -0.3301  0.0824
 7708W        W27242  17.254  11.703   0.646  0.0356 -0.2290 -0.0410
 7709W        W27243  16.331  18.254  14.465 -0.0937  0.0601  0.2448
 7710W        W27244  10.714  11.121  12.864  0.1675 -0.0638  0.1519
 7711W        W27245   3.989  17.498  11.891 -0.0444 -0.0465  0.3526
 7712W        W27246   1.814  10.526   3.033 -0.0684 -0.3613 -0.1331
 7713W        W27247  15.994   5.772   2.564  0.2445  0.2230 -0.1572
 7714W        W27248  15.901  13.647  13.345  0.2412  0.0429 -0.2791
 7715W        W27249  11.162   5.862  12.691  0.4254 -0.2531 -0.0144
 7716W        W27250  12.965   6.190   3.040  0.0415  0.0478 -0.0962
 7717W        W27251   4.153   6.428   2.328 -0.0376  0.2927 -0.2248
 7718W        W27252  10.849  13.414   3.912  0.0398  0.0602 -0.2257
 7719W        W27253   2.367   0.215  14.457 -0.1739 -0.2314 -0.2090
 7720W        W27254  18.981  15.187   0.108 -0.1153 -0.0165 -0.3568
 7721W        W27255  14.788   9.592   2.926 -0.1787 -0.1022 -0.0809
 7722W        W27256   5.587  13.583   3.678  0.0598 -0.0052 -0.0124
 7723W        W27257  11.268   3.872   0.902 -0.1783  0.0534  0.0774
 7724W        W27258  16.788  12.371   3.372  0.3290 -0.1024 -0.0268
 7725W        W27259  13.190   9.038  12.311 -0.2273 -0.1986 -0.0342
 7726W        W27260   3.505   9.185   4.085 -0.1644 -0.0234  0.1251
 7727W        W27261  17.303   2.878   1.267 -0.2054 -0.1793  0.1443
 7728W        W27262   2.988   7.782   0.672 -0.0344 -0.0305  0.1036
 7729W        W27263   8.254   7.317  13.870  0.0191  0.0237  0.1023
 7730W        W27264   9.333  11.271   1.613 -0.1112  0.0438  0.1524
 7731W        W27265   8.317   8.397  12.273  0.0873  0.1515 -0.2185
 7732W        W27266  10.943   9.319  11.749  0.1570 -0.1521  0.0081
 7733W        W27267   1.012   9.785  11.500  0.0776 -0.0457 -0.3663
 7734W        W27268   4.438  17.246   3.961 -0.0520  0.1822 -0.0087
 7735W        W27269   2.747  12.437   3.128  0.0288  0.0211  0.3442
 7736W        W27270   6.308  12.848   4.496  0.3923  0.2362  0.1661
 7737W        W27271  15.573   6.298   0.344 -0.1957 -0.0290  0.0214
 7738W        W27272  14.187   8.112   1.798  0.2368 -0.0241  0.3172
 7739W        W27273   9.593  10.215   1.276  0.0898  0.0282  0.5016
 7740W        W27274  16.199  12.931   0.507  0.1807 -0.1985  0.0055
 7741W        W27275   6.951  16.643  14.174 -0.1020  0.1380 -0.1212
 7742W        W27276   1.922  17.818   3.120 -0.3077  0.3959  0.0168
 7743W        W27277  14.315   4.797   1.917  0.1860  0.0789  0.0590
 7744W        W27278  12.942  14.448   1.101  0.3031  0.1819 -0.0487
 7745W        W27279   9.768  17.912   2.564 -0.0041 -0.0394  0.0555
 7746W        W27280   8.526  17.835   2.514  0.1306 -0.4709  0.0001
 7747W        W27281  18.033   7.688  13.601 -0.2101 -0.0041 -0.1230
 7748W        W27282  13.760   7.968   1.537 -0.0082  0.1712  0.0603
 7749W        W27283   3.537   2.216   0.700 -0.0490  0.0771  0.0233
 7750W        W27284   1.202   2.941   3.774 -0.1387 -0.0111 -0.1704
 7751W        W27285  15.426  16.179   1.628  0.0471  0.2310 -0.3436
 7752W        W27286  10.120  18.977  14.717  0.1098  0.1632 -0.0256
 7753W        W27287   8.765   9.898  13.559  0.0864 -0.2594  0.1674
 7754W        W27288   1.683   7.775  11.852  0.3092 -0.2127 -0.1147
 7755W        W27289   5.724   5.213   3.795 -0.2930 -0.1357  0.0374
 7756W        W27290   0.319  17.786  13.559  0.1044  0.2664  0.1107
 7757W        W27291  16.093  11.784   4.537  0.0007 -0.0378  0.0342
 7758W        W27292   4.209   4.332  14.580 -0.1645 -0.2079  0.0395
 7759W        W27293  17.353   4.396   1.311 -0.0559  0.0084  0.0482
 7760W        W27294  14.712  14.679   2.584  0.2223 -0.1164  0.0048
 7761W        W27295   6.792   9.459   2.712  0.2436 -0.1900 -0.2979
 7762W        W27296  13.738  13.651   0.842  0.1885  0.0455  0.1172
 7763W        W27297   8.711   4.019  13.025  0.2583 -0.1484 -0.2100
 7764W        W27298  15.665   6.830   3.479 -0.2017  0.5427  0.1053
 7765W        W27299   4.954   9.697   1.876 -0.1978  0.2476  0.0446
 7766W        W27300   6.050  17.677   3.497 -0.3363  0.1146  0.0119
 7767W        W27301   5.902  17.484   4.161  0.0691 -0.0066  0.0271
 7768W        W27302   0.703   5.338   1.360  0.1970 -0.0351 -0.1587
 7769W        W27303  16.077   7.559  12.792  0.0363  0.3438 -0.1614
 7770W        W27304  17.204   2.998  11.217  0.0688 -0.1706 -0.0527
 7771W        W27305  10.798  11.377   0.026 -0.2229  0.0611 -0.0749
 7772W        W27306  16.596  17.606   2.356 -0.0261 -0.1746 -0.0919
 7773W        W27307   5.969  17.915  14.774 -0.1568  0.0737  0.2185
 7774W        W27308   2.815   5.324  11.199  0.0799  0.1335 -0.0446
 7775W        W27309   7.934   8.180  12.454  0.1921 -0.1333 -0.0005
 7776W        W27310   2.557  10.200  13.558 -0.0462 -0.3359  0.0359
 7777W        W27311  11.705   0.524  13.090 -0.0414  0.0638  0.0912
 7778W        W27312   8.226   3.814  11.005 -0.0137 -0.0397  0.0353
 7779W        W27313  10.615   1.638  12.800  0.0624  0.0130 -0.2788
 7780W        W27314  17.897   3.516  11.786 -0.0862  0.0893  0.1694
 7781W        W27315   3.660   7.361  11.004  0.0608  0.0699 -0.0178
 7782W        W27316   0.851  11.084   2.376  0.1771 -0.0441  0.0188
 7783W        W27317   2.237  12.790  13.497 -0.0955  0.2566 -0.1141
 7784W        W27318   4.258   4.018   2.237 -0.0394  0.2497  0.2002
 7785W        W27319   7.339  14.751   1.204  0.0283 -0.2172  0.3616
 7786W        W27320  17.076  16.499  11.812  0.0144 -0.1084 -0.0018
 7787W        W27321  11.320  12.339  13.981 -0.0073  0.0080 -0.3398
 7788W        W27322   4.353   9.286  12.125  0.1051 -0.2023  0.3355
 7789W        W27323  12.672  16.294   2.027  0.0572  0.0670 -0.0527
 7790W        W27324   8.623   0.205   3.649  0.4082  0.0772 -0.0892
 7791W        W27325   6.424   1.133   1.011  0.1314  0.0880 -0.1718
 7792W        W27326  11.328  17.854   2.772 -0.2932 -0.1256 -0.2790
 7793W        W27327   0.077  10.194   1.398  0.0219 -0.1622 -0.2356
 7794W        W27328  17.613  10.531   3.105 -0.0403 -0.1516 -0.1027
 7795W        W27329   0.490   1.225  13.975 -0.3150  0.1721  0.4093
 7796W        W27330  16.547   7.255  14.235  0.0553  0.2070 -0.2684
 7797W        W27331   4.779  12.616   1.974 -0.0273 -0.1413 -0.0871
 7798W        W27332  12.122   4.710   4.219 -0.0089 -0.0275 -0.0032
 7799W        W27333  11.226  11.486   1.824 -0.0711 -0.4292  0.2654
 7800W        W27334   8.282   4.478  11.405  0.1128 -0.0826  0.1877
 7801W        W27335  18.702  17.035   0.650  0.0507  0.2688  0.1596
 7802W        W27336   4.609   3.682   2.001  0.0429 -0.1014  0.3818
 7803W        W27337   5.745   6.551   3.412 -0.1027  0.0198  0.0338
 7804W        W27338   2.365  11.345   0.423 -0.1793  0.3430 -0.3885
 7805W        W27339   5.364  17.372   0.711  0.2247  0.2512  0.2190
 7806W        W27340  16.618  13.059  11.206 -0.0735 -0.1526  0.1254
 7807W        W27341   2.954  11.488   4.610  0.1886 -0.3250  0.0383
 7808W        W27342  16.375   6.313  12.637 -0.2952  0.1668 -0.0210
 7809W        W27343   2.632   4.439   2.352  0.0281  0.2555 -0.1917
 7810W        W27344  15.405  15.528   4.171  0.2718 -0.2603  0.1977
 7811W        W27345  17.157  12.013   0.153  0.2185  0.1177  0.0562
 7812W        W27346   8.634  11.357  10.013 -0.0893  0.1708 -0.0073
 7813W        W27347   3.708  12.701   3.103 -0.1669  0.4421 -0.0317
 7814W        W27348  17.126  17.917   0.920  0.0653 -0.2618 -0.0381
 7815W        W27349  17.740  12.332  11.749  0.3125  0.0143  0.2956
 7816W        W27350   3.772   7.867   2.388 -0.1736 -0.0286 -0.0197
 7817W        W27351  15.511  14.622   4.884  0.0275  0.1358 -0.0663
 7818W        W27352  15.330   6.023  11.904 -0.1160  0.1370 -0.1441
 7819W        W27353   9.920   9.349   1.141  0.0320 -0.2786 -0.0892
 7820W        W27354  12.162   5.847   3.544  0.0799  0.0255  0.2883
 7821W        W27355  18.604  17.190  11.007 -0.1523 -0.0730 -0.0649
 7822W        W27356  14.739   9.230   1.471  0.0133  0.0147 -0.0343
 7823W        W27357   5.794   5.089  14.352 -0.2296  0.1125 -0.1082
 7824W        W27358  11.048  15.983  14.113  0.2031  0.2896  0.0507
 7825W        W27359  18.981  14.342   4.196  0.0139 -0.2283 -0.0366
 7826W        W27360  13.688   6.131  11.127  0.0660 -0.1593  0.1422
 7827W        W27361  13.973   8.698   0.342 -0.1813  0.3779  0.1135
 7828W        W27362  13.829  18.968  12.745 -0.2042 -0.0780  0.0081
 7829W        W27363  17.994   4.208  14.212  0.1443 -0.3725 -0.1448
 7830W        W27364   8.009   3.373   0.966  0.0188 -0.0439 -0.2354
 7831W        W27365  13.472   0.503   0.149 -0.3035 -0.0007 -0.1096
 7832W        W27366  13.076  12.596  11.438 -0.1115  0.0108 -0.0299
 7833W        W27367   5.749  17.832  13.153  0.1361  0.1065  0.0887
 7834W        W27368  12.036  15.311  11.006  0.0418  0.4850  0.0492
 7835W        W27369   9.559   2.909   4.310  0.3158 -0.2313  0.4031
 7836W        W27370  10.426  10.188   4.571 -0.0486  0.0510 -0.1908
 7837W        W27371   3.497  16.031  14.096  0.1778 -0.2631  0.2448
 7838W        W27372   3.936  13.534   2.954 -0.0333 -0.1372  0.1016
 7839W        W27373   2.052  14.841  11.405  0.0488 -0.3407 -0.1683
 7840W        W27374  10.392  13.254  11.450  0.0890  0.0981  0.1480
 7841W        W27375   2.637   4.646   1.295 -0.0701  0.1377  0.2449
 7842W        W27376   6.644  10.990  13.952  0.2142  0.3192  0.2565
 7843W        W27377  13.896  17.385   0.454  0.3617  0.0908  0.1167
 7844W        W27378   6.590   0.250  14.353 -0.3430 -0.0525 -0.0946
 7845W        W27379  11.491   8.557   1.028 -0.0673 -0.1546  0.2134
 7846W        W27380  10.325  18.793   3.597  0.2977 -0.2232  0.0770
 7847W        W27381  12.704  16.958   0.011  0.0790 -0.0663 -0.0149
 7848W        W27382   8.314   2.166  14.347  0.0191  0.1608 -0.1304
 7849W        W27383   8.544  14.121  11.834 -0.2124  0.2316 -0.0493
 7850W        W27384   4.539   8.076   2.147  0.1462 -0.4343  0.1014
 7851W        W27385  13.458   6.650  14.083  0.1259 -0.1497  0.0214
 7852W        W27386  16.683   4.083   0.440 -0.0794  0.1989  0.0622
 7853W        W27387   0.349  10.869  13.175  0.0255  0.2459  0.0157
 7854W        W27388  12.294  11.198   3.426 -0.4206 -0.2291 -0.0416
 7855W        W27389  17.216  15.854  14.490  0.4594 -0.1416 -0.2530
 7856W        W27390   2.580   2.149   2.491 -0.2077 -0.0969  0.1454
 7857W        W27391   7.488  17.422  12.652  0.0050  0.2186 -0.0360
 7858W        W27392   9.098   0.547   2.218 -0.0237  0.0189  0.0544
 7859W        W27393  18.388   8.346   2.159  0.0246 -0.1834  0.0827
 7860W        W27394  15.675   3.989  12.957  0.0786 -0.1762 -0.2786
 7861W        W27395  11.413   5.097   4.092  0.3598 -0.2838 -0.1416
 7862W        W27396  16.168  11.320   3.354 -0.1640 -0.0367  0.1406
 7863W        W27397   0.681   3.930   1.531  0.1712 -0.2616 -0.2571
 7864W        W27398   9.046  12.290  11.624  0.3333  0.1387  0.2330
 7865W        W27399  13.972   6.889  13.593  0.0417  0.2928 -0.0519
 7866W        W27400   5.052  19.036  13.570 -0.1298 -0.0111  0.1297
 7867W        W27401  15.247  13.449  10.891 -0.2054 -0.3837 -0.0347
 7868W        W27402   3.099  18.054   2.601  0.0857 -0.0383  0.0465
 7869W        W27403  10.554  10.543   2.912  0.0603 -0.3899  0.2354
 7870W        W27404  14.119  15.631  12.364  0.0618 -0.0374 -0.1076
 7871W        W27405  12.194  14.579   3.318  0.1221 -0.1013 -0.0151
 7872W        W27406   9.218   1.147  14.256  0.1411 -0.0572  0.3447
 7873W        W27407   3.020   4.024  12.834 -0.0017 -0.1992  0.0390
 7874W        W27408   2.530   1.595   3.022  0.2709 -0.2441 -0.0105
 7875W        W27409   2.846  14.879  12.443  0.0359 -0.1174 -0.2333
 7876W        W27410   1.312  12.397  12.365  0.1910  0.3414 -0.2262
 7877W        W27411   1.615  17.582  13.099 -0.0761  0.0871  0.1923
 7878W        W27412  17.288   8.052   1.025 -0.1806  0.0015  0.1005
 7879W        W27413   0.665   2.232  11.661 -0.3055 -0.0431  0.0841
 7880W        W27414   8.296   0.151  12.537 -0.1837  0.1395 -0.5599
 7881W        W27415   3.405   0.167   2.137  0.0441 -0.1958 -0.0746
 7882W        W27416  13.802   4.384   0.237 -0.0804  0.2447  0.0833
 7883W        W27417   4.326   4.168  13.568 -0.2646  0.0323  0.2512
 7884W        W27418  17.155  14.964  11.731  0.2632 -0.1523  0.1507
 7885W        W27419   4.098   2.844  14.102 -0.0822  0.0816 -0.1386
 7886W        W27420  13.637  12.855   3.586  0.0903 -0.1531  0.0253
 7887W        W27421  12.675   7.328  13.510  0.2480 -0.0450 -0.1511
 7888W        W27422  10.048  17.419  10.210  0.0857  0.2597 -0.0013
 7889W        W27423   1.388   2.962   0.171 -0.0029 -0.4000  0.2790
 7890W        W27424  19.051   1.076   4.094  0.0417 -0.0992 -0.1307
 7891W        W27425   4.517  17.108  12.335  0.0288  0.0943 -0.0629
 7892W        W27426  16.820  11.629  10.764  0.2123  0.0675 -0.0189
 7893W        W27427  18.785   6.452  14.441 -0.2014 -0.2280  0.3400
 7894W        W27428   6.502   9.581  12.687  0.0211 -0.3583  0.1792
 7895W        W27429  17.729   0.917  13.208 -0.0752 -0.0650  0.0968
 7896W        W27430  17.796  14.214  12.388  0.2159 -0.1749  0.0642
 7897W        W27431  14.903   0.739   4.356  0.0074  0.2497  0.3540
 7898W        W27432  13.509   7.599  13.787  0.1569  0.2003  0.1905
 7899W        W27433   6.527   6.666   1.765 -0.0894 -0.0760  0.1962
 7900W        W27434  15.284  11.346   2.018 -0.4367 -0.2061 -0.0835
 7901W        W27435  11.235   8.636  13.297 -0.2260 -0.2057 -0.0413
 7902W        W27436   2.339  16.690  13.281 -0.0593  0.2076 -0.3005
 7903W        W27437  10.026  10.896   2.163  0.4582  0.0624 -0.0341
 7904W        W27438   9.707  12.223  12.804 -0.3659 -0.4162  0.1602
 7905W        W27439   1.024   2.187   1.819 -0.1484  0.0399  0.0240
 7906W        W27440  15.080  10.228  13.368  0.1263 -0.0420  0.1039
 7907W        W27441  16.011   3.423  14.689  0.0792  0.3021 -0.0684
 7908W        W27442   1.844   1.809  11.107  0.1457  0.0482  0.0988
 7909W        W27443  12.746   3.395   0.154 -0.0334 -0.1854 -0.3252
 7910W        W27444   9.476   7.505  11.138 -0.4605 -0.1197 -0.0314
 7911W        W27445   4.904   6.613  10.707 -0.2377  0.2355 -0.0233
 7912W        W27446  15.286  18.574   3.158 -0.7562 -0.2266 -0.1926
 7913W        W27447   0.544  10.233  11.853 -0.2398 -0.3285  0.0109
 7914W        W27448   1.850   4.267   3.766 -0.1294  0.0818  0.4718
 7915W        W27449   2.956  13.420  11.739  0.1727  0.3982  0.1899
 7916W        W27450  18.799  17.274   4.090  0.0812 -0.1314  0.0707
 7917W        W27451   9.535   1.867   4.135 -0.1624  0.0258 -0.2097
 7918W        W27452  13.213  12.148  13.981  0.4791 -0.1153 -0.0758
 7919W        W27453   9.453   3.128  10.165 -0.2070  0.3030  0.0199
 7920W        W27454   5.022   7.682  14.007 -0.0245 -0.0353  0.0786
 7921W        W27455   9.434   4.215   2.679  0.2154 -0.1300  0.1593
 7922W        W27456  17.143  14.063  10.263 -0.2747 -0.0529 -0.3338
 7923W        W27457   8.916   3.887  10.015 -0.1536 -0.0023  0.0287
 7924W        W27458   0.442  12.421  12.928 -0.0282  0.3203 -0.0099
 7925W        W27459  15.443  12.155   2.669 -0.1687  0.0732  0.1068
 7926W        W27460  16.205  11.755  12.861  0.0773 -0.1309  0.2019
 7927W        W27461  11.536   0.996   0.777 -0.2432 -0.0071 -0.1544
 7928W        W27462   7.247   1.108  10.350  0.0671 -0.0788  0.2776
 7929W        W27463   7.623   4.291  13.483 -0.2910 -0.0379  0.0571
 7930W        W27464   0.733  15.998   2.302 -0.0556  0.1310 -0.1623
 7931W        W27465  16.983  17.768   3.942  0.2536  0.4165  0.0759
 7932W        W27466   2.187  12.907  11.676  0.1167  0.0780 -0.0360
 7933W        W27467  18.546   6.224  12.959  0.1197  0.1427  0.1172
 7934W        W27468   1.443  10.427   0.818 -0.3402 -0.1370 -0.0247
 7935W        W27469   0.265  13.909  10.910 -0.0381 -0.1949 -0.1091
 7936W        W27470   6.275   4.859   1.564  0.2658 -0.2474 -0.0460
 7937W        W27471   7.064  18.360  13.020 -0.1360 -0.1644  0.0853
 7938W        W27472   4.136  15.715  12.442 -0.1705 -0.2030  0.1604
 7939W        W27473  13.937  19.115   4.037  0.0307 -0.4336  0.0672
 7940W        W27474  10.293  14.018   2.073 -0.1169 -0.1919  0.1418
 7941W        W27475  14.090   5.596  12.177  0.1018 -0.2629  0.1417
 7942W        W27476   1.052  14.389   1.124  0.1819 -0.2665 -0.0220
 7943W        W27477  13.626   8.983   4.033 -0.0469  0.0205 -0.2730
 7944W        W27478  15.050   2.645  12.360 -0.1231 -0.2110 -0.0829
 7945W        W27479   5.128  11.199  13.098 -0.1707 -0.0942 -0.0639
 7946W        W27480  16.933  14.990   2.297 -0.0523  0.0660 -0.3095
 7947W        W27481   2.029  18.210  12.503 -0.2099 -0.1622 -0.2578
 7948W        W27482  10.763   0.948  13.270  0.0814 -0.0981 -0.0473
 7949W        W27483   0.455  14.307  10.617 -0.2436  0.0732 -0.0313
 7950W        W27484   8.574   0.497   3.031 -0.1502  0.3881  0.1942
 7951W        W27485   5.024  11.628   3.241  0.1441 -0.1477  0.1753
 7952W        W27486   6.878  17.217  13.360  0.4708  0.0134 -0.2270
 7953W        W27487   4.110  11.969  11.755 -0.0346 -0.1571 -0.2582
 7954W        W27488  17.881  11.739  13.178 -0.2067  0.1225 -0.1147
 7955W        W27489  17.398   1.366  12.332  0.1308  0.0426 -0.2616
 7956W        W27490  14.320   7.018  11.332  0.2092  0.0205 -0.2286
 7957W        W27491  16.169   3.477   0.304  0.2574 -0.1454 -0.1776
 7958W        W27492  16.074   8.797  11.504 -0.1735 -0.0108 -0.0064
 7959W        W27493  14.609  11.927   3.731 -0.3401  0.0645 -0.1358
 7960W        W27494  16.778  18.492   0.319  0.1941 -0.0070  0.1189
 7961W        W27495  12.956  10.025  13.395 -0.2860  0.1924 -0.1137
 7962W        W27496  17.870  12.508  14.084 -0.0534  0.0076  0.0064
 7963W        W27497   4.290  16.855  13.130  0.0642  0.0656 -0.1713
 7964W        W27498  11.830  11.073   3.503  0.1124 -0.0248  0.0711
 7965W        W27499   9.271  10.398  14.256 -0.1266  0.0494 -0.0569
 7966W        W27500  15.539   5.911  12.379 -0.1416 -0.1302 -0.1019
 7967W        W27501   7.130  11.163  14.088 -0.2617 -0.0245  0.0704
 7968W        W27502  15.144  13.943   2.341  0.0306 -0.0300 -0.2343
 7969W        W27503  16.733   9.190   0.439 -0.2209 -0.0070 -0.1704
 7970W        W27504   1.884  15.908  12.233 -0.2011  0.0569 -0.0532
 7971W        W27505   4.783  14.551  14.107 -0.1285  0.1282  0.0268
 7972W        W27506   6.945   6.553   2.012 -0.0868  0.0815 -0.0674
 7973W        W27507  18.802  15.243   1.957  0.1464 -0.0544  0.1940
 7974W        W27508  17.088   1.396  11.776  0.0680  0.2225  0.0762
 7975W        W27509   1.085  10.124   0.298  0.0926 -0.0293  0.4942
 7976W        W27510   9.807   5.010   0.351  0.0724  0.1386  0.1616
 7977W        W27511  18.245   3.318   0.855 -0.0583  0.3086  0.4520
 7978W        W27512   3.164  10.033   1.310 -0.0283 -0.0799  0.0517
 7979W        W27513   7.327  10.854  13.187  0.0752  0.2655 -0.3784
 7980W        W27514   1.762  18.767   1.510  0.0282  0.0549 -0.1569
 7981W        W27515  11.291   8.028  11.250  0.0814 -0.0316  0.1104
 7982W        W27516  12.540  17.759  12.474  0.0790 -0.0213  0.3235
 7983W        W27517   1.854   6.316   0.216 -0.0057  0.1943  0.0072
 7984W        W27518  15.873  16.094  10.934  0.2548  0.0869 -0.1038
 7985W        W27519  14.881   4.030  11.832  0.0299 -0.0135 -0.1603
 7986W        W27520   8.359  11.651  12.801 -0.2156  0.1398  0.3119
 7987W        W27521  13.736   1.224   1.672 -0.2506 -0.0978 -0.0558
 7988W        W27522   2.140  14.188  12.929  0.0703  0.0118  0.1397
 7989W        W27523   7.965  16.387  10.759 -0.2130 -0.2601 -0.0407
 7990W        W27524  16.068  13.654  12.383  0.0400  0.1664 -0.0669
 7991W        W27525   9.934  18.690  12.904 -0.1465 -0.0487  0.1276
 7992W        W27526   1.868  13.959  14.326 -0.2623  0.0644  0.1898
 7993W        W27527   4.514  13.222  13.681  0.3225 -0.1407 -0.3085
 7994W        W27528  17.145  16.599   1.146  0.0139  0.3213 -0.1740
 7995W        W27529   5.806  18.051   1.215  0.2055 -0.2423 -0.0687
 7996W        W27530   2.877  10.929   1.759 -0.0923 -0.2431 -0.1840
 7997W        W27531  12.592   0.709   1.373  0.1779 -0.0208 -0.4015
 7998W        W27532  13.948  18.624  11.893  0.1696 -0.1318 -0.0413
 7999W        W27533   7.419   0.079  14.729  0.1256  0.1340  0.0015
 8000W        W27534   0.884  10.469   3.440  0.1123 -0.0668 -0.0573
 8001W        W27535  10.159  10.305   4.160  0.0335  0.1106  0.0225
 8002W        W27536   9.450   1.781   4.756 -0.0618  0.0543  0.0938
 8003W        W27537   6.198  10.142   0.627 -0.1519  0.3102 -0.1516
 8004W        W27538   9.131   3.489   3.689  0.1285  0.0289 -0.1668
 8005W        W27539  18.161   9.728   0.128 -0.1073 -0.1356  0.1270
 8006W        W27540  13.778  10.129  14.328  0.1448 -0.2929 -0.0996
 8007W        W27541  10.790   2.713  12.542  0.0393 -0.2645 -0.1320
 8008W        W27542  15.721   5.894   1.514  0.3221 -0.1156 -0.1873
 8009W        W27543   2.437   3.105  13.447  0.0286  0.0076 -0.1208
 8010W        W27544  17.759  14.891  12.164  0.1883 -0.0888  0.2009
 8011W        W27545  12.764   2.596   1.776 -0.2025  0.0842 -0.2233
 8012W        W27546  13.993  12.059  13.287  0.0364  0.0905  0.3810
 8013W        W27547  16.187  14.299   2.833  0.0906  0.1938 -0.1926
 8014W        W27548  11.364  16.688   0.399 -0.0548  0.1650 -0.0893
 8015W        W27549   5.847   7.312  12.014 -0.1488  0.1131 -0.2142
 8016W        W27550   3.988   7.872  12.249  0.1673  0.0969 -0.1732
 8017W        W27551  14.365   5.301   1.651 -0.0652  0.0677  0.2031
 8018W        W27552  13.629  15.038   0.272 -0.1811  0.2514  0.0231
 8019W        W27553  17.292  10.107  12.915  0.0376 -0.1249 -0.0260
 8020W        W27554   9.352   3.956   0.618  0.2597 -0.1948  0.3041
 8021W        W27555   1.842  16.023  14.232  0.2746  0.1451  0.0248
 8022W        W27556   8.567  15.727   1.899  0.0639  0.0904 -0.1078
 8023W        W27557  16.700   1.182   2.980 -0.1801  0.0642 -0.1520
 8024W        W27558   2.258   4.507   2.740  0.0021 -0.1125  0.2965
 8025W        W27559   8.369   3.492   0.559 -0.0175 -0.0508  0.2255
 8026W        W27560   4.333  13.296  12.533 -0.0376  0.1795 -0.6394
 8027W        W27561  18.902   5.292   0.864  0.0632  0.0346  0.2838
 8028W        W27562  11.826  11.947  14.607  0.0378 -0.2496  0.1052
 8029W        W27563  17.017   5.653  14.103 -0.2234  0.0616 -0.1843
 8030W        W27564  13.156  12.963  12.481 -0.1231 -0.2059  0.1570
 8031W        W27565  11.712  13.477   1.504  0.1308 -0.1887 -0.3607
 8032W        W27566   2.155   8.183  13.905  0.0933 -0.2735 -0.2721
 8033W        W27567   7.991  11.599   2.805 -0.1401 -0.3797  0.3853
 8034W        W27568   6.724  10.549  13.059 -0.1707  0.6155 -0.2332
 8035W        W27569   7.986   2.756   3.918 -0.1879 -0.0720  0.4221
 8036W        W27570   3.333  19.073   2.677 -0.0402 -0.0393  0.1187
 8037W        W27571   4.078  18.514   0.189  0.1238 -0.0043  0.0759
 8038W        W27572  12.011   0.526   3.957 -0.0252 -0.2173  0.1231
 8039W        W27573   2.075   9.925   1.425 -0.2414  0.0041 -0.0758
 8040W        W27574  14.900  15.230   4.184 -0.1669 -0.2298  0.1487
 8041W        W27575   5.039   1.938   2.866  0.1093 -0.0939 -0.0972
 8042W        W27576   1.979   5.459  14.185 -0.1843 -0.0976 -0.2086
 8043W        W27577  12.234   2.153   1.051 -0.0273 -0.0250 -0.2704
 8044W        W27578  11.000   9.043   2.054 -0.1688  0.0823  0.0619
 8045W        W27579  10.610  18.782  14.602 -0.0809  0.3656 -0.2689
 8046W        W27580   3.830  15.179  14.580 -0.0782  0.5315  0.3185
 8047W        W27581   1.163   1.838   1.296  0.0789  0.2218 -0.0604
 8048W        W27582  18.266  11.025  12.996  0.1302  0.1767  0.0420
 8049W        W27583   6.059  14.500  11.304 -0.2423 -0.0035 -0.2930
 8050W        W27584   7.015  14.550   0.500  0.0078  0.0111  0.0283
 8051W        W27585  15.997  11.610   0.761 -0.4316  0.1321  0.4520
 8052W        W27586   2.634  17.280  12.113  0.1377 -0.0898  0.1088
 8053W        W27587   7.057  13.094  10.679  0.1211  0.1887  0.2841
 8054W        W27588   2.346   6.530  10.685  0.1782  0.2113  0.0285
 8055W        W27589   2.833  10.984   2.299  0.1345 -0.1168  0.0296
 8056W        W27590  18.583  14.596  10.796 -0.0472 -0.1518 -0.0789
 8057W        W27591   1.189  10.569   0.425 -0.3187  0.0526 -0.3529
 8058W        W27592   7.370  12.113   4.358  0.2038  0.1760 -0.2982
 8059W        W27593   3.357   3.085   0.849 -0.2182  0.0706  0.1880
 8060W        W27594   3.167  11.111   3.799  0.1379  0.3428  0.0268
 8061W        W27595  10.357  13.855   1.522 -0.0867  0.0370  0.0598
 8062W        W27596   8.452  17.961  13.273  0.0351  0.0553  0.1550
 8063W        W27597  13.863   2.597   3.421 -0.5994  0.1288  0.0030
 8064W        W27598  14.321  18.812   2.323  0.0413 -0.0784  0.1987
 8065W        W27599  14.104  12.638   4.130 -0.0376  0.1272  0.1598
 8066W        W27600  12.582  14.712   2.433 -0.0822  0.0546 -0.0519
 8067W        W27601  15.232  10.786   3.280  0.0556  0.1995  0.1877
 8068W        W27602  18.429  10.188   0.884  0.1775  0.0548  0.0169
 8069W        W27603   9.237   2.708   4.923 -0.0266 -0.0319 -0.0298
 8070W        W27604   2.449   8.596   0.704 -0.0275 -0.4723  0.2518
 8071W        W27605   6.174   3.298  14.274  0.0191 -0.0522 -0.0351
 8072W        W27606   3.554   6.514   3.766  0.1425  0.1900  0.0867
 8073W        W27607  15.247  18.161  13.085  0.2790 -0.1440 -0.1272
 8074W        W27608  17.359  13.611   0.143 -0.1152 -0.1155  0.0847
 8075W        W27609   7.862   6.632   2.432 -0.1842  0.2028 -0.0528
 8076W        W27610   4.949  18.334  12.296  0.2272 -0.2011 -0.2895
 8077W        W27611   4.977   7.754   4.230  0.1059  0.0968  0.0192
 8078W        W27612   4.649   8.323   1.651 -0.1735  0.0863 -0.0696
 8079W        W27613  16.434  12.523  14.324 -0.0196 -0.0631  0.0135
 8080W        W27614   2.574   8.360   1.276 -0.0276 -0.0845 -0.1476
 8081W        W27615  16.958   9.217   4.328  0.1176  0.0687 -0.2700
 8082W        W27616  11.016   9.722  14.443  0.0611  0.5299 -0.2160
 8083W        W27617  11.447   8.326   1.467  0.0602 -0.0527 -0.1108
 8084W        W27618  17.990   4.469  11.086 -0.0250  0.0217  0.0226
 8085W        W27619   7.520   7.639   1.240 -0.0503  0.1457  0.4208
 8086W        W27620   5.347  18.466   2.192  0.0403  0.0273 -0.1203
 8087W        W27621   8.042   4.434   1.801  0.0978 -0.1728  0.1072
 8088W        W27622  16.350   5.473   3.883  0.0374 -0.0090 -0.0235
 8089W        W27623   6.826   2.614   5.316 -0.2493 -0.0420 -0.2581
 8090W        W27624  13.363   5.089  12.609  0.2822 -0.3435  0.0637
 8091W        W27625  18.798   4.706   1.849 -0.4357  0.1090 -0.2458
 8092W        W27626  12.324   5.498  12.391  0.0843  0.0869  0.1895
 8093W        W27627   0.451   9.516   0.980 -0.0693  0.1944  0.0128
 8094W        W27628   1.206  14.182   1.942 -0.2632 -0.0814 -0.2644
 8095W        W27629   1.950  14.183   5.544  0.0880 -0.3345  0.3187
 8096W        W27630   1.509  10.172  14.327 -0.4077  0.2219  0.0008
 8097W        W27631   7.524  12.548   1.225 -0.1001 -0.0238 -0.0454
 8098W        W27632   2.347  17.116  13.544  0.0212  0.2204  0.0228
 8099W        W27633  15.300   2.911   5.021  0.1237  0.4407 -0.2646
 8100W        W27634  18.225  19.041   1.847  0.2000  0.0069  0.0207
 8101W        W27635  17.767  14.744   3.779  0.0636 -0.0588  0.0222
 8102W        W27636  18.881  18.920  12.803 -0.1769 -0.3655 -0.0707
 8103W        W27637   9.471  12.005  11.567 -0.0472  0.0168 -0.0189
 8104W        W27638  17.018   8.829  12.860  0.1518 -0.0087  0.2436
 8105W        W27639   8.750   0.251  14.590 -0.1289 -0.1238  0.3113
 8106W        W27640   5.495  18.086  11.991 -0.0214 -0.0413 -0.0612
 8107W        W27641   6.206   2.906  13.289 -0.0185 -0.1581 -0.0300
 8108W        W27642  13.702  15.621   4.139  0.0331  0.1093  0.0511
 8109W        W27643   9.035  15.565   0.225 -0.0963  0.0982  0.2167
 8110W        W27644   9.468   5.808   3.776  0.0271  0.1208  0.3710
 8111W        W27645   8.967   9.343  14.682  0.1561 -0.2015  0.2781
 8112W        W27646   2.375  18.432  11.688 -0.0620 -0.0737  0.2673
 8113W        W27647   2.038  14.657   1.120 -0.0672 -0.0276 -0.0813
 8114W        W27648  14.607  18.893   3.877 -0.0613  0.0836 -0.2047
 8115W        W27649   3.226  16.196  12.610  0.2383 -0.1544  0.0875
 8116W        W27650  14.096  16.309  10.744 -0.3393 -0.2125 -0.1407
 8117W        W27651  14.655  11.376   0.526 -0.1362 -0.1067 -0.1098
 8118W        W27652   7.394  12.892  10.326 -0.1436  0.0634  0.3260
 8119W        W27653  13.205   1.020   2.575 -0.0149 -0.1039  0.0042
 8120W        W27654  13.334  14.065  13.730 -0.0835  0.1400 -0.3549
 8121W        W27655   0.120  18.197  14.516 -0.2781  0.2541 -0.0648
 8122W        W27656   4.284  11.919   3.949 -0.1403 -0.2877 -0.0498
 8123W        W27657   7.301  11.407   1.857  0.1834 -0.2462  0.0860
 8124W        W27658  10.948  16.169   1.807  0.2006  0.0231  0.2473
 8125W        W27659  15.656  14.421  14.633  0.1656 -0.1000  0.0187
 8126W        W27660   7.761   8.838   4.294  0.1784 -0.1006 -0.0684
 8127W        W27661  16.737   8.248  13.783  0.1249  0.0235 -0.0361
 8128W        W27662   0.937   2.936  10.449  0.3364  0.0981  0.3943
 8129W        W27663  16.618  16.609  12.036 -0.2179  0.1982 -0.0591
 8130W        W27664  14.526   6.142  13.966 -0.1750 -0.1343  0.2275
 8131W        W27665  14.594   7.772  14.688 -0.0257  0.1002  0.0084
 8132W        W27666  17.512   6.781  10.268  0.0088  0.0071 -0.1784
 8133W        W27667   8.528   7.714   3.444  0.1808  0.1419  0.2954
 8134W        W27668  15.528   0.582  13.612 -0.2888 -0.0472 -0.3668
 8135W        W27669   1.509  12.520   3.890  0.1474 -0.1615 -0.0789
 8136W        W27670   6.118   2.399  13.159 -0.0198 -0.0402  0.1676
 8137W        W27671  15.577   4.247   0.892  0.0470  0.3193  0.1626
 8138W        W27672   1.071  18.351   1.064  0.1652 -0.2202  0.1654
 8139W        W27673  17.343  19.000   2.554  0.0917  0.0953 -0.0053
 8140W        W27674  15.212   8.289   0.363 -0.4083 -0.4637  0.1697
 8141W        W27675   4.902   8.146  13.951 -0.2025 -0.1999  0.1945
 8142W        W27676   2.498   0.888  13.101  0.2133 -0.0931  0.0623
 8143W        W27677   8.188  10.885   1.419  0.2045  0.1927 -0.1633
 8144W        W27678  11.328  15.181  12.849  0.0619  0.2225 -0.0000
 8145W        W27679   7.133   9.868   1.000  0.2164  0.0249  0.0550
 8146W        W27680  11.812   1.784   3.470  0.0004  0.0111 -0.0442
 8147W        W27681   7.601  16.366  14.252 -0.1126  0.1625  0.1527
 8148W        W27682  11.770  16.483   3.068  0.1168 -0.1220 -0.2444
 8149W        W27683   3.446   2.138  14.574  0.0180  0.3134  0.1250
 8150W        W27684  11.944   7.741  14.017 -0.0328 -0.1967  0.2103
 8151W        W27685   6.777  15.869   1.899  0.1337  0.1937  0.0185
 8152W        W27686  10.321  14.999  12.379 -0.0521 -0.2343 -0.0610
 8153W        W27687   3.944   0.007  12.801  0.0117 -0.0821  0.5087
 8154W        W27688  12.647  16.101   1.223 -0.0625  0.0158  0.1529
 8155W        W27689  12.443  14.522  13.645 -0.2567  0.0029  0.0692
 8156W        W27690   3.766  11.137  14.688 -0.1497  0.2482  0.0604
 8157W        W27691  12.648   4.260   0.665 -0.2357 -0.0772 -0.1378
 8158W        W27692   4.930  13.987   2.414  0.1903  0.1764  0.0766
 8159W        W27693   6.338   7.314   2.136  0.1589  0.1626 -0.0069
 8160W        W27694   4.385   8.262  10.723 -0.0310  0.1422 -0.1980
 8161W        W27695  13.972  10.661  10.428  0.1626  0.0562 -0.1230
 8162W        W27696  16.489   7.128   1.876  0.1219 -0.1406  0.0148
 8163W        W27697   0.493  12.203   2.943 -0.3950 -0.2490 -0.3153
 8164W        W27698  16.542  13.338   1.867  0.1421  0.0361  0.0643
 8165W        W27699  11.604  10.279  11.152  0.3067 -0.0249 -0.0257
 8166W        W27700   4.897   6.502  13.341 -0.4280  0.4081 -0.2114
 8167W        W27701  14.261   0.439  13.883  0.0542 -0.2366  0.0334
 8168W        W27702   6.527  12.572   0.730 -0.2206 -0.1039 -0.0858
 8169W        W27703  15.202  15.638  12.108  0.2702  0.1760 -0.0530
 8170W        W27704  17.398   2.587   2.590 -0.2705 -0.4199  0.1379
 8171W        W27705  10.719   7.808  13.081  0.1152  0.0639  0.2464
 8172W        W27706  14.161   6.099  12.652 -0.1492 -0.1313  0.3350
 8173W        W27707   5.968   2.288   0.778 -0.2574 -0.1186  0.1779
 8174W        W27708  16.985   8.734   4.156 -0.2070 -0.1919  0.4210
 8175W        W27709   7.220  13.232   0.742  0.0550 -0.1843 -0.0618
 8176W        W27710  13.020  15.568  14.758 -0.0537  0.0653  0.0283
 8177W        W27711  18.491   0.199  12.344  0.0503  0.0418 -0.0959
 8178W        W27712  17.028   4.761   4.068  0.0652  0.2855  0.2431
 8179W        W27713  17.432   6.157   0.492  0.1842 -0.1208 -0.1622
 8180W        W27714   3.411  11.228  11.929  0.0757  0.0180  0.0624
 8181W        W27715   6.485  17.457  10.710  0.1702 -0.0540  0.1446
 8182W        W27716  16.149   8.135  14.536 -0.1509  0.0931  0.1193
 8183W        W27717  13.403   9.972  11.330  0.1159  0.0231 -0.1450
 8184W        W27718   9.409  10.310   2.580 -0.0768 -0.1670 -0.4285
 8185W        W27719   0.883   0.835  14.568  0.1245  0.3591 -0.0058
 8186W        W27720  10.345  13.665   4.181  0.1944 -0.0231  0.0679
 8187W        W27721  16.155  18.568  10.689 -0.0394 -0.2107 -0.0650
 8188W        W27722  18.298  10.685   1.111 -0.2015 -0.0231 -0.0312
 8189W        W27723  13.618   8.145  11.973  0.2446 -0.1148  0.3124
 8190W        W27724  15.831   9.940  13.950  0.0205  0.1198 -0.1641
 8191W        W27725   1.234  19.056  12.366 -0.0733  0.1555  0.2874
 8192W        W27726   5.928  14.893   3.824  0.2887 -0.1343  0.2011
 8193W        W27727  16.291  13.190   3.435  0.0317  0.0385  0.0219
 8194W        W27728  16.924   6.557   3.794  0.1284  0.4268 -0.0358
 8195W        W27729   7.588   1.578   1.860  0.0094 -0.1211 -0.1382
 8196W        W27730  17.437   1.997  13.088 -0.2003 -0.1112  0.1136
 8197W        W27731  12.304   7.921  14.285 -0.0365  0.0104 -0.2109
 8198W        W27732  18.024   8.572  13.172  0.0267 -0.4280 -0.0730
 8199W        W27733  18.122  16.219   1.411  0.0454  0.0885  0.1458
 8200W        W27734  18.128   0.751   1.045 -0.0891 -0.2143 -0.1115
 8201W        W27735   9.575  17.922   3.782  0.0695  0.2428  0.0523
 8202W        W27736  11.281  11.788   2.908  0.3487 -0.5003 -0.2272
 8203W        W27737   7.276  18.345  13.538  0.1069 -0.1667 -0.1005
 8204W        W27738   8.124   5.521   2.790  0.0198 -0.1900  0.1834
 8205W        W27739  12.301  11.104   0.939 -0.1447  0.1498  0.0997
 8206W        W27740  12.675   4.045   1.857  0.2662 -0.2290 -0.2025
 8207W        W27741  15.692  15.813   1.859 -0.0445 -0.0461  0.2437
 8208W        W27742  13.566   2.768   1.725 -0.2082 -0.2352 -0.2488
 8209W        W27743  16.562   8.194  10.904  0.0067 -0.2907 -0.1629
 8210W        W27744  15.919   6.608   0.806 -0.0318 -0.1013  0.2064
 8211W        W27745   5.797  14.741   3.312  0.0411 -0.0395 -0.0365
 8212W        W27746  10.612   5.954   0.172 -0.0620  0.1674 -0.1030
 8213W        W27747   6.704  16.995   1.103 -0.1925 -0.0207 -0.4431
 8214W        W27748   1.481   0.428   2.973 -0.1228 -0.2180  0.3236
 8215W        W27749  15.747   1.952   2.646 -0.3591  0.0435 -0.3093
 8216W        W27750  12.187  18.576  11.641 -0.1792 -0.3254 -0.2081
 8217W        W27751  10.081   2.519   2.619  0.2494  0.2629  0.0871
 8218W        W27752  11.375  14.407  11.480 -0.1425  0.1416  0.1688
 8219W        W27753   0.962   2.025  12.247  0.1724  0.2776  0.1732
 8220W        W27754   0.898  18.119   3.426  0.0261  0.0870  0.0561
 8221W        W27755  16.340   0.828  13.660 -0.0134 -0.0028  0.1474
 8222W        W27756  17.504   9.602   4.162 -0.0371 -0.0770  0.1323
 8223W        W27757  10.787  16.421  14.048 -0.0537 -0.1271  0.1450
 8224W        W27758   9.607  14.326   2.020  0.0869 -0.3980  0.1789
 8225W        W27759   2.838   7.028  11.945 -0.0830 -0.1706  0.5180
 8226W        W27760  16.107   3.018   0.108  0.1438  0.1448  0.2903
 8227W        W27761   5.689  18.000   4.218 -0.1153 -0.1742 -0.0871
 8228W        W27762  15.368  14.685   3.638 -0.1099 -0.4141  0.3299
 8229W        W27763   9.116  16.633   5.188  0.1771  0.1979 -0.0010
 8230W        W27764  12.016   8.752  13.145 -0.1583 -0.2118  0.2497
 8231W        W27765  12.753  10.173  12.444  0.1145  0.6496  0.1289
 8232W        W27766  14.433   0.958   2.450  0.0153  0.0528  0.1712
 8233W        W27767   8.772  16.378   1.135  0.3434  0.0212 -0.1613
 8234W        W27768   3.796   2.112   1.883  0.2505 -0.1241  0.0179
 8235W        W27769  12.542   9.299   2.675 -0.0658 -0.2616 -0.0937
 8236W        W27770  11.593   1.041   2.891 -0.1698 -0.0049 -0.0944
 8237W        W27771  11.297  10.550   2.440  0.3677  0.1578 -0.1750
 8238W        W27772  17.742   0.471  13.480  0.1487  0.0580  0.0762
 8239W        W27773  10.371   5.205  13.792 -0.0112  0.0353 -0.1471
 8240W        W27774   4.141   2.175   3.494 -0.3365 -0.2754  0.1550
 8241W        W27775  12.534  10.318   0.595  0.0370 -0.0406 -0.1692
 8242W        W27776  11.945  14.108   3.488 -0.2245 -0.2324 -0.1926
 8243W        W27777  19.105  13.625   2.034  0.0448  0.1992 -0.0221
 8244W        W27778   5.259  10.460  12.876  0.1133 -0.0995  0.1212
 8245W        W27779   2.575  17.747   3.816  0.0246  0.0937 -0.2957
 8246W        W27780   2.194   4.241  11.037  0.0991 -0.0900 -0.0290
 8247W        W27781   9.275   3.252   1.870  0.4473 -0.1027 -0.0596
 8248W        W27782   3.746   2.190  11.033 -0.0487 -0.0421  0.0367
 8249W        W27783   2.456   3.083  10.985  0.0418 -0.0767 -0.1154
 8250W        W27784   9.790  13.745  10.966 -0.2699 -0.1214 -0.1048
 8251W        W27785  12.182  18.489  13.208 -0.0296  0.3289  0.1739
 8252W        W27786   0.922  18.397  11.914  0.2268 -0.0737 -0.5852
 8253W        W27787   5.888  18.133  13.915 -0.0580 -0.0779 -0.1519
 8254W        W27788  12.412  19.091  12.928 -0.3736  0.0096  0.1892
 8255W        W27789   6.504   1.523  13.404 -0.1571  0.2945  0.1733
 8256W        W27790   3.813  16.855  13.222  0.0652  0.1525 -0.0029
 8257W        W27791   1.573   1.284  13.780  0.1126  0.0625  0.1413
 8258W        W27792  12.039  13.354   3.925  0.1190  0.1440  0.0636
 8259W        W27793  16.315   9.819  14.805 -0.3094  0.0254 -0.1144
 8260W        W27794  14.318   1.062  12.872 -0.1940 -0.2760 -0.1581
 8261W        W27795  12.867  11.780  12.390  0.0626 -0.1398 -0.1420
 8262W        W27796   0.432   7.779   1.934  0.2412  0.2011 -0.0343
 8263W        W27797  11.176   6.023   2.308 -0.1975  0.0007  0.1031
 8264W        W27798  10.740   4.020  13.042 -0.3360  0.0902 -0.2568
 8265W        W27799   6.150   9.577   3.809 -0.2953  0.0482  0.0294
 8266W        W27800  10.430  10.410  12.009  0.0506  0.0561  0.2361
 8267W        W27801   9.289  12.968  13.038 -0.0098 -0.0910  0.0899
 8268W        W27802   3.886  12.429  14.591  0.2177 -0.1742 -0.0049
 8269W        W27803  18.102   0.750   2.969 -0.4322 -0.1295  0.1588
 8270W        W27804   8.106   2.761   2.754 -0.0408 -0.1972  0.0058
 8271W        W27805  17.213  13.022  13.669 -0.2112 -0.0411  0.0511
 8272W        W27806   5.277   7.904  13.570  0.1883  0.2185 -0.1697
 8273W        W27807  12.692   8.525  13.506 -0.2606  0.1184 -0.2260
 8274W        W27808   6.597  11.296  14.328 -0.3380  0.2057  0.3318
 8275W        W27809  13.342   3.098   3.886 -0.2105  0.0272 -0.1967
 8276W        W27810   0.220  13.651  12.842 -0.2738 -0.4345 -0.1464
 8277W        W27811  17.784   3.467   9.460  0.0756  0.1121 -0.2957
 8278W        W27812   2.245   7.795  13.016  0.2809 -0.1616 -0.1476
 8279W        W27813   0.232   1.725  12.814 -0.1106 -0.0370 -0.1660
 8280W        W27814   1.710   8.458  14.069  0.0196  0.3164 -0.2581
 8281W        W27815  18.129   0.549  12.430  0.2186 -0.0738 -0.2632
 8282W        W27816  17.288   3.412  10.503  0.1698 -0.1409 -0.3049
 8283W        W27817   5.997  10.033  14.158  0.1342 -0.1823 -0.0206
 8284W        W27818   8.517   1.400   4.711  0.0783  0.1097 -0.0583
 8285W        W27819   3.178  17.097   4.160  0.1735 -0.2616 -0.1397
 8286W        W27820  14.502   4.044  10.825 -0.0239 -0.0307 -0.0105
 8287W        W27821   3.810  16.072  12.483  0.0119  0.0025  0.0193
 8288W        W27822   4.435  10.016  13.679  0.0719  0.0828  0.1075
 8289W        W27823  18.516  11.953  11.426 -0.1353 -0.0924 -0.3434
 8290W        W27824   1.118   4.591  12.821 -0.0615  0.0708 -0.0903
 8291W        W27825  14.295   1.540   0.353  0.1754  0.2196  0.3014
 8292W        W27826  11.910  10.785   4.303 -0.0059 -0.0748 -0.1835
 8293W        W27827   8.445  17.915   2.061  0.0885 -0.1076 -0.0219
 8294W        W27828  13.014   4.092   1.396  0.1221  0.1870  0.1450
 8295W        W27829   5.114   1.342  11.972 -0.0424 -0.2765 -0.0989
 8296W        W27830  16.404   7.748  10.746  0.1033  0.2964  0.1529
 8297W        W27831   9.856  18.538   1.337  0.2810  0.3257  0.0492
 8298W        W27832   3.694   4.515  10.333 -0.2203 -0.3994  0.0858
 8299W        W27833  10.912   5.922   3.191 -0.4134  0.0947  0.0458
 8300W        W27834  15.926   4.672  13.289 -0.0182  0.1260 -0.3401
 8301W        W27835  10.594  11.211   1.067  0.0081 -0.1928  0.2438
 8302W        W27836  11.492  10.704   3.417 -0.0736  0.3655 -0.0113
 8303W        W27837  11.660   6.626   0.454 -0.1204 -0.1870  0.2199
 8304W        W27838  17.278   7.059  13.388  0.2035 -0.0032 -0.0121
 8305W        W27839  10.463  11.029   1.972 -0.0279 -0.0382  0.2635
 8306W        W27840   0.577   1.131  11.105 -0.1838  0.0323  0.0304
 8307W        W27841  11.122  16.006   2.486  0.0260  0.1508 -0.0651
 8308W        W27842  13.651   7.223   0.462 -0.2342 -0.1933 -0.3144
 8309W        W27843  10.472   6.026  11.608 -0.0686  0.2686  0.0676
 8310W        W27844  12.678   5.619   0.436  0.2423 -0.0267 -0.3283
 8311W        W27845   4.982  10.721  11.058 -0.0756  0.1466  0.3139
 8312W        W27846   0.443  12.913   0.270  0.0408 -0.2163  0.2103
 8313W        W27847   4.669   7.308   4.945 -0.1004  0.2066 -0.0476
 8314W        W27848  15.303   6.418  13.017 -0.0097  0.2924  0.0029
 8315W        W27849  17.013  13.483   1.072  0.0769 -0.1739 -0.0969
 8316W        W27850  18.929  12.499  10.903 -0.0280  0.4648  0.1238
 8317W        W27851   3.759   8.905   3.360 -0.2019 -0.0682 -0.1109
 8318W        W27852   4.891  12.518  11.340 -0.1661  0.3094  0.2214
 8319W        W27853  12.765   2.416   4.355  0.0403 -0.0895 -0.1445
 8320W        W27854   0.162   1.933   1.122  0.1173  0.0161 -0.0673
 8321W        W27855  18.634  10.139  14.316  0.0990 -0.0314  0.1858
 8322W        W27856   4.470   2.492   4.367  0.0333 -0.1263  0.0605
 8323W        W27857   6.306  18.115   4.910 -0.0614  0.1930  0.3232
 8324W        W27858   9.461  11.416  10.465 -0.2044  0.1628  0.1565
 8325W        W27859   4.784   4.377  10.570 -0.0352 -0.2525  0.0433
 8326W        W27860   2.267  17.548  13.260  0.3869 -0.1431  0.2814
 8327W        W27861  11.620   1.939  14.410  0.2275  0.0555  0.4097
 8328W        W27862   6.906   5.939   2.685 -0.1063  0.2725  0.0592
 8329W        W27863  15.786  17.983  10.664  0.0277 -0.0703  0.2857
 8330W        W27864  16.104   6.664   3.245 -0.0688 -0.0714 -0.1026
 8331W        W27865  11.541  14.302   0.034 -0.0970  0.2083  0.0031
 8332W        W27866   5.076  12.144   3.455 -0.1686  0.1865  0.3748
 8333W        W27867   6.836  17.824   3.054 -0.2373  0.2268  0.2363
 8334W        W27868   7.700  15.808   2.504  0.1170 -0.0134  0.1900
 8335W        W27869  19.025  15.792   2.908  0.4570  0.1561  0.0751
 8336W        W27870   7.066  13.953   3.283  0.3408  0.2444  0.1150
 8337W        W27871  14.249   4.156  12.483 -0.3336  0.4790  0.1015
 8338W        W27872   3.844   1.712  14.310  0.2093 -0.1466  0.1050
 8339W        W27873  15.223  17.251  13.474 -0.0178  0.1851 -0.3866
 8340W        W27874   2.860  12.733   2.648 -0.0940  0.1001  0.0732
 8341W        W27875  18.543   3.419   2.225 -0.3094  0.0647 -0.0016
 8342W        W27876   4.121  12.833  14.616  0.0881 -0.0126 -0.3882
 8343W        W27877   2.015   2.557   0.544 -0.0076  0.1205 -0.0227
 8344W        W27878  19.042  19.114  14.836  0.2055 -0.0461 -0.2773
 8345W        W27879  11.145  13.101   3.567 -0.0552 -0.0061  0.2683
 8346W        W27880  16.356   6.451   3.831 -0.0022 -0.0509 -0.1176
 8347W        W27881  12.169  11.112  13.427 -0.4836 -0.2103 -0.0505
 8348W        W27882  17.085  10.033   1.695 -0.0235  0.2475 -0.0233
 8349W        W27883   1.135   0.540  14.136  0.1877  0.1479 -0.0788
 8350W        W27884   6.709  15.296  14.492  0.1034 -0.1015 -0.3091
 8351W        W27885   4.485  12.848  12.374  0.1315  0.0073  0.0804
 8352W        W27886   3.834   2.777  11.093 -0.1199  0.2742  0.2830
 8353W        W27887   6.297  11.086  14.756  0.0657  0.0313 -0.0282
 8354W        W27888  18.697  18.150  11.925  0.0865 -0.0186  0.1125
 8355W        W27889  12.701   8.358  11.827 -0.2058 -0.2489  0.0636
 8356W        W27890   4.129   0.926  11.212  0.2477 -0.0251  0.1394
 8357W        W27891   3.323   1.838   4.613 -0.3243  0.0956  0.0816
 8358W        W27892  16.740  17.096   3.360  0.0834 -0.3149 -0.0999
 8359W        W27893   4.359   3.200  13.015 -0.2319 -0.0720  0.2900
 8360W        W27894   4.066  18.813  11.822 -0.0298 -0.2349  0.1093
 8361W        W27895   9.137   1.640  14.330  0.5769 -0.1223 -0.0090
 8362W        W27896  15.926  10.447  13.082 -0.2741 -0.3637  0.0978
 8363W        W27897  18.279  14.769  12.312 -0.1718  0.0280  0.3665
 8364W        W27898  10.869  16.519   1.083  0.2829 -0.0829  0.0982
 8365W        W27899  14.084  10.215  13.250 -0.3406 -0.3059  0.0309
 8366W        W27900  12.742   0.824  11.256  0.2177  0.0787  0.1045
 8367W        W27901   2.484  18.054   1.546 -0.0938  0.2489  0.1549
 8368W        W27902   1.426   4.881   2.579 -0.0891 -0.0641 -0.1463
 8369W        W27903  13.924  14.286   3.165 -0.0839  0.0637  0.3021
 8370W        W27904   9.944   6.339  12.993 -0.0623  0.3050  0.0796
 8371W        W27905  10.623  11.726   0.294 -0.0854 -0.0798  0.0810
 8372W        W27906   5.699  14.038   1.761  0.0022 -0.0822  0.4231
 8373W        W27907  17.918  10.900   0.783  0.0652  0.0978 -0.0346
 8374W        W27908   9.128  18.596   2.365  0.2064 -0.1116 -0.0525
 8375W        W27909   4.494   9.635  11.106 -0.1735  0.1174  0.0604
 8376W        W27910   4.814  18.906  14.563 -0.0950  0.1384  0.0985
 8377W        W27911   2.457  11.374  13.936 -0.0209  0.2116  0.1631
 8378W        W27912   7.242  13.827   1.131  0.0166 -0.4019  0.4731
 8379W        W27913   8.226   3.942  14.054  0.2527  0.0832  0.2082
 8380W        W27914  13.960   7.559   0.209  0.2109 -0.0564  0.3134
 8381W        W27915  11.235   3.825  13.145 -0.1063  0.3009  0.2106
 8382W        W27916  13.043  17.393  13.311 -0.1342 -0.3641  0.0166
 8383W        W27917   6.638   3.270  14.187 -0.2886 -0.1438 -0.1262
 8384W        W27918  14.918  15.733  10.871 -0.1859  0.0515 -0.2220
 8385W        W27919  17.189   2.629   2.149 -0.2483 -0.4153  0.0572
 8386W        W27920  16.341  16.041  14.802 -0.0266  0.4446 -0.1518
 8387W        W27921  14.514  15.728   1.105 -0.2207  0.3138 -0.5383
 8388W        W27922   5.765  13.626   5.057  0.0386 -0.1226 -0.1126
 8389W        W27923   4.162  18.582   2.665 -0.1154  0.1804 -0.3053
 8390W        W27924  13.207  12.050  11.168  0.0204 -0.1176 -0.3674
 8391W        W27925   3.743  11.556  13.164 -0.0571  0.0193  0.1076
 8392W        W27926   5.852   1.960  14.166 -0.0343 -0.0233  0.0815
 8393W        W27927   4.846   7.249  13.375 -0.1593 -0.1302  0.0753
 8394W        W27928  11.720   9.184  11.313  0.2284 -0.0276 -0.0859
 8395W        W27929   1.351  12.852   4.352  0.1075 -0.2662 -0.1794
 8396W        W27930  10.043   1.694   4.908 -0.2328  0.1484  0.1255
 8397W        W27931   8.030   5.205  10.737 -0.2289 -0.1941 -0.0054
 8398W        W27932   0.531   5.936   2.794 -0.3563 -0.2009  0.2455
 8399W        W27933  17.687   4.410   2.136  0.2319  0.1092  0.0857
 8400W        W27934   3.253   4.706  10.331  0.1722  0.2419  0.1562
 8401W        W27935  17.733  11.438  14.334 -0.3080  0.1140 -0.2142
 8402W        W27936   7.076  13.219   0.263 -0.1817  0.5255 -0.2364
 8403W        W27937   4.031  12.437  11.526 -0.2711  0.1092  0.0909
 8404W        W27938   1.703  10.757  12.947 -0.2365  0.4440 -0.0851
 8405W        W27939  10.764   8.165  13.841 -0.1796 -0.1895  0.1458
 8406W        W27940   2.124   1.851   1.032  0.1110 -0.0604 -0.1087
 8407W        W27941  11.590  18.411  14.819  0.2304  0.2533 -0.1003
 8408W        W27942   4.218  12.201   4.404  0.2309 -0.1751  0.2855
 8409W        W27943  16.751  10.152   3.836 -0.1700 -0.4829  0.0119
 8410W        W27944  17.826   0.498  11.377 -0.0793  0.2065  0.1591
 8411W        W27945  14.840   8.369   3.604 -0.0662 -0.0501  0.0390
 8412W        W27946   8.576   0.572   1.432 -0.1218 -0.1063  0.0482
 8413W        W27947  11.044  10.074   0.057  0.1136  0.2919 -0.0687
 8414W        W27948   6.853  18.874   1.534 -0.1571  0.0643  0.2016
 8415W        W27949   4.521   7.438  12.107  0.2597 -0.1628  0.1368
 8416W        W27950  16.539   4.651   4.805 -0.0872 -0.0708 -0.0161
 8417W        W27951   3.485   1.691   1.419 -0.0800  0.4129 -0.0031
 8418W        W27952  13.940   0.198   5.169 -0.0144  0.1826 -0.0719
 8419W        W27953  13.945   7.387   2.122  0.0526 -0.2466 -0.1322
 8420W        W27954   7.866   3.914  12.152 -0.2753 -0.1547  0.2701
 8421W        W27955  12.405   1.980  11.696  0.2430  0.1020  0.5890
 8422W        W27956  10.631  15.806  11.542 -0.1304  0.1866  0.0009
 8423W        W27957   2.273   3.574   5.200 -0.1420 -0.0794 -0.1838
 8424W        W27958  16.522   5.811  10.867 -0.0968 -0.1945 -0.1281
 8425W        W27959   0.282   1.306   2.854  0.0588 -0.3052  0.1888
 8426W        W27960  11.188   3.360   2.028 -0.0969 -0.4016 -0.0907
 8427W        W27961  17.652  11.678   2.246  0.2530  0.0845  0.0861
 8428W        W27962   5.673  16.068   1.042  0.0934  0.0374 -0.0394
 8429W        W27963   1.046   2.231  13.196 -0.1955  0.1054  0.0235
 8430W        W27964   1.860   3.558   3.084 -0.2419  0.1023 -0.1056
 8431W        W27965   2.396   7.164  11.641  0.2394 -0.2397  0.1480
 8432W        W27966  14.728   1.704   0.129 -0.0645  0.1853 -0.0485
 8433W        W27967  17.195   4.701  13.868  0.1007  0.4179  0.2423
 8434W        W27968  15.264   6.980   2.612 -0.0511 -0.1038  0.0281
 8435W        W27969   7.639  17.986  13.414  0.0261  0.2530  0.1550
 8436W        W27970   0.683  10.488   0.248  0.3579  0.1612 -0.2170
 8437W        W27971   2.821  13.823  11.508 -0.0419  0.3483  0.0985
 8438W        W27972   2.969  14.072  14.241 -0.1851 -0.2300 -0.0524
 8439W        W27973   4.237  17.009  13.622 -0.1922  0.0291 -0.4191
 8440W        W27974  13.777   8.811  13.034  0.1041 -0.0129 -0.2428
 8441W        W27975  18.556  13.572   4.658  0.1094  0.1147 -0.1616
 8442W        W27976   4.673  11.031   3.000 -0.1149  0.0508 -0.1539
 8443W        W27977   9.750   0.085   3.993 -0.0386  0.2318  0.0198
 8444W        W27978   1.495   6.503   2.774 -0.1243  0.2004  0.3341
 8445W        W27979   2.766  16.661   1.955  0.0416 -0.1835  0.0264
 8446W        W27980   1.255   6.501  13.584  0.0570  0.0079  0.1865
 8447W        W27981  18.035  16.190   2.837  0.0121  0.2893 -0.1646
 8448W        W27982   2.582   4.388   3.490  0.0895  0.3418 -0.6603
 8449W        W27983  14.046   2.518   1.602 -0.0037 -0.2322  0.0951
 8450W        W27984  17.518   7.277  12.328 -0.1873 -0.0549 -0.5251
 8451W        W27985   4.563  18.542   1.162  0.3389  0.1633 -0.0417
 8452W        W27986  12.086   3.846   1.116 -0.1768 -0.1350  0.3673
 8453W        W27987   0.156  16.141   2.631 -0.0633  0.1929  0.0311
 8454W        W27988   3.299   1.205  12.164  0.0548 -0.0206  0.3973
 8455W        W27989   7.658  12.432  11.638 -0.4271 -0.2473  0.3841
 8456W        W27990   3.541   1.388   0.932  0.0221 -0.0166 -0.2091
 8457W        W27991  13.567   0.309  13.289 -0.0099 -0.3478 -0.0098
 8458W        W27992  18.606  14.418   0.478  0.0725 -0.0420 -0.2934
 8459W        W27993   2.523   4.392  10.707 -0.2081 -0.1790 -0.1366
 8460W        W27994   1.690   9.033  12.849 -0.2570  0.3496  0.2508
 8461W        W27995  13.223   0.461  12.116 -0.0198 -0.1535  0.0577
 8462W        W27996  16.687   8.602  14.172  0.3641 -0.1146  0.1184
 8463W        W27997   4.091   0.423   1.071  0.1267 -0.2694 -0.0942
 8464W        W27998   6.056   4.954  12.777  0.2562 -0.0015  0.4938
 8465W        W27999   6.341  11.429  13.919  0.2063  0.3607  0.1858
 8466W        W28000  17.778   8.854   3.465 -0.0646 -0.1014  0.3410
 8467W        W28001  15.666   4.745   0.486 -0.0357  0.2419 -0.0081
 8468W        W28002   6.236   8.187  13.494  0.2356 -0.0203 -0.0725
 8469W        W28003   5.477  15.719   2.243  0.0914  0.2845  0.0387
 8470W        W28004   4.632   9.048  14.530 -0.1581 -0.0880 -0.0440
 8471W        W28005  19.058  12.443   0.982  0.2451 -0.3275 -0.2203
 8472W        W28006   0.464  18.446  12.104  0.0956 -0.1658 -0.1911
 8473W        W28007   5.840   6.687  13.269 -0.0319  0.0230 -0.1618
 8474W        W28008   6.831   8.198  13.429  0.2172 -0.1771  0.1161
 8475W        W28009   4.171   3.090   3.691  0.1476 -0.0882 -0.0010
 8476W        W28010  18.312  18.793  11.222  0.2061 -0.0371  0.0011
 8477W        W28011  14.645  18.579   2.663 -0.1720 -0.2503 -0.0859
 8478W        W28012  19.086   2.791   2.807  0.2296 -0.0459  0.0215
 8479W        W28013  17.714   3.444   1.912  0.2085  0.4402 -0.0285
 8480W        W28014   9.565  13.983   0.290  0.0010  0.0685  0.1665
 8481W        W28015   1.068  17.358   3.920  0.2030 -0.1602 -0.0094
 8482W        W28016   3.653  15.630   0.435 -0.0035  0.3012  0.1228
 8483W        W28017   9.814  17.718   3.059  0.2613 -0.0685 -0.0263
 8484W        W28018  14.827   1.480  10.665  0.0930  0.0458  0.0121
 8485W        W28019   4.397   9.991  14.699  0.0287  0.1949  0.0038
 8486W        W28020   5.202   9.634   3.480  0.2891 -0.1385 -0.1017
 8487W        W28021   3.858   4.107  13.688 -0.1048  0.1623 -0.1425
 8488W        W28022   0.042   6.881   2.916 -0.0243  0.0761 -0.0029
 8489W        W28023   5.226   2.580   3.729  0.1361  0.1869  0.0633
 8490W        W28024   6.450  14.601   1.730 -0.0790  0.1362  0.0061
 8491W        W28025   3.345   5.009   1.868  0.0914  0.1693  0.0903
 8492W        W28026   9.135  17.114  12.665 -0.0012 -0.2727  0.0976
 8493W        W28027   0.746   3.441  12.091 -0.0242  0.0468 -0.1398
 8494W        W28028  14.048  11.166  13.010  0.4073  0.0130 -0.0901
 8495W        W28029  10.347   5.631   2.011  0.4294  0.2619  0.1702
 8496W        W28030   8.996  10.906  14.052  0.0233 -0.2869 -0.2662
 8497W        W28031  11.220   3.769  11.827  0.2687  0.2682  0.1250
 8498W        W28032  10.786   9.882  11.019 -0.0645 -0.0030  0.1330
 8499W        W28033   7.687   5.645   0.575 -0.1245  0.1424  0.0264
 8500W        W28034   1.072   4.258  10.526 -0.0692  0.1178 -0.2327
 8501W        W28035   4.066  18.230  14.493  0.1379  0.2396  0.0638
 8502W        W28036   8.912  12.192  13.622 -0.0718 -0.0986  0.1167
 8503W        W28037   7.491   7.468  12.805  0.0286 -0.2472  0.1178
 8504W        W28038  18.840   7.495   0.544 -0.0297  0.0069 -0.3537
 8505W        W28039  16.814   0.365  11.752  0.0033  0.0438  0.0833
 8506W        W28040  15.369   6.218   9.626 -0.2002  0.2427 -0.0680
 8507W        W28041   1.774   1.742   2.404 -0.1649  0.3196  0.0146
 8508W        W28042   4.035   2.113  10.624 -0.0121  0.0519 -0.2365
 8509W        W28043  13.522   8.984  13.542  0.1705  0.2557 -0.0629
 8510W        W28044   1.548   7.045   0.225  0.3029  0.0169  0.1218
 8511W        W28045  10.861  13.060  11.195  0.0539 -0.0127  0.0874
 8512W        W28046   2.937   2.046  13.871  0.3653  0.2079 -0.2076
 8513W        W28047  16.448   5.733  13.120 -0.2931  0.0920 -0.3058
 8514W        W28048   5.344  12.049   2.043  0.0903  0.0638 -0.0120
 8515W        W28049   3.216  12.895  11.858 -0.2440  0.1237  0.0796
 8516W        W28050  10.460  18.885   0.221 -0.1436  0.1476  0.0036
 8517W        W28051   8.936   4.773   3.598  0.2158  0.1361 -0.3810
 8518W        W28052  18.517   1.137  14.482 -0.2684  0.0653 -0.2779
 8519W        W28053   0.275  17.892  12.616  0.0153 -0.1346 -0.0157
 8520W        W28054  17.684  18.579  12.532 -0.1494  0.0093  0.3176
 8521W        W28055  15.598  10.531   0.131  0.3824  0.3296 -0.1991
 8522W        W28056  17.501  17.162   1.223  0.0652  0.0257 -0.2296
 8523W        W28057   4.317   3.358   1.474 -0.1805  0.1294 -0.3919
 8524W        W28058   6.873   3.872   1.126 -0.2286 -0.0023  0.2569
 8525W        W28059   3.492   4.166   0.132  0.0989  0.4619  0.1082
 8526W        W28060  11.684  13.573   2.262 -0.0469  0.0936  0.1116
 8527W        W28061  16.438   2.388   1.699 -0.0772 -0.0128  0.0801
 8528W        W28062   6.997  11.196  13.332  0.0536  0.1407  0.0319
 8529W        W28063  14.301   8.993   1.536  0.0760  0.1249  0.1707
 8530W        W28064   2.133  16.111  13.249  0.2456 -0.2772 -0.4079
 8531W        W28065   8.494  16.204   1.921  0.3865  0.0939 -0.1492
 8532W        W28066   6.862  14.253   4.845 -0.0405 -0.0952  0.1006
 8533W        W28067   2.030  16.696   2.545  0.1422 -0.3060  0.2191
 8534W        W28068  12.518   5.283  10.902 -0.1071 -0.0305 -0.0088
 8535W        W28069  16.532   1.615  14.318 -0.0537 -0.3059 -0.0432
 8536W        W28070   4.543  16.738   3.649 -0.0360  0.1545 -0.0605
 8537W        W28071   3.346  15.396  11.371 -0.0957 -0.0707 -0.1152
 8538W        W28072   6.760  10.158  11.857  0.1782  0.3955  0.1024
 8539W        W28073  12.481   5.426   2.050  0.0963 -0.3893  0.0837
 8540W        W28074   3.575  14.290   3.052 -0.1677  0.0490  0.1085
 8541W        W28075   2.240   5.645   3.938  0.1288  0.2391 -0.2902
 8542W        W28076  19.101  13.310  14.422  0.1462 -0.1121 -0.2476
 8543W        W28077   7.740   0.910   4.162 -0.0570 -0.1022  0.0947
 8544W        W28078  13.713   6.922   3.062  0.1915  0.2590 -0.1298
 8545W        W28079  16.004  10.206   0.993  0.1048 -0.2145 -0.1794
 8546W        W28080   0.967   3.255   0.314 -0.2323 -0.4225 -0.2448
 8547W        W28081   3.318   8.164  13.492 -0.1793 -0.0037  0.0993
 8548W        W28082  11.719   8.441   1.900  0.4002 -0.0321  0.1891
 8549W        W28083  18.263  16.612  13.622 -0.1033 -0.1486  0.3971
 8550W        W28084   5.490  16.758   3.767 -0.3411 -0.0853 -0.0723
 8551W        W28085   2.823   5.478   4.706 -0.0702  0.0147 -0.0594
 8552W        W28086   6.919   2.317   1.923 -0.0846  0.3244  0.0432
 8553W        W28087   8.683   1.421  10.943 -0.0139  0.1107 -0.3602
 8554W        W28088  14.795  18.304  12.119  0.0044  0.3084  0.1916
 8555W        W28089  15.989   7.869  14.151 -0.2424  0.0925 -0.0061
 8556W        W28090   9.378  17.363  12.231 -0.0689 -0.1568  0.0310
 8557W        W28091  10.668  14.002  11.043  0.1583  0.4377 -0.2541
 8558W        W28092   1.467  16.316   1.372 -0.1798  0.1222 -0.0437
 8559W        W28093  16.761  14.873  13.847  0.1547 -0.0073 -0.1284
 8560W        W28094   9.412   1.978  10.309  0.3271  0.4062 -0.0690
 8561W        W28095   5.719   9.946   2.701  0.1649 -0.0753  0.0212
 8562W        W28096   6.140   4.232  10.671 -0.0229 -0.0057 -0.1148
 8563W        W28097   2.336   0.489  14.043  0.1285 -0.3341 -0.0950
 8564W        W28098   4.725  14.230   4.422  0.0179 -0.1462  0.0310
 8565W        W28099   4.036   6.268   1.874 -0.1242 -0.0315  0.0546
 8566W        W28100  18.944   3.655   2.482  0.3276 -0.1494  0.1726
 8567W        W28101   5.619   9.140  14.448  0.2317  0.1118  0.1042
 8568W        W28102   1.882   5.781   1.213  0.0215  0.1994 -0.0154
 8569W        W28103  17.940  18.618   4.747  0.1852  0.0787 -0.0118
 8570W        W28104  16.626   1.242   0.319  0.2309  0.0605  0.0468
 8571W        W28105   7.846  16.398  12.182  0.1306  0.1367  0.1052
 8572W        W28106  16.561  17.694  12.857 -0.1917  0.1097 -0.1662
 8573W        W28107   4.679   8.304  13.478  0.0118 -0.2178 -0.0775
 8574W        W28108   6.292   1.339   4.846 -0.3989  0.2757  0.3771
 8575W        W28109   3.574  11.600  13.816  0.1251  0.0270 -0.2568
 8576W        W28110   5.503   7.142   0.941  0.1225  0.1620  0.1416
 8577W        W28111   8.686   8.414  13.122 -0.3798 -0.0125  0.0321
 8578W        W28112  12.484  10.475  10.471 -0.1149 -0.2043  0.3848
 8579W        W28113   6.146   0.718  14.409  0.0279  0.2204 -0.2984
 8580W        W28114   2.817  13.412   2.234 -0.1119 -0.0003 -0.1715
 8581W        W28115  14.927   5.905  13.100  0.0797  0.0794 -0.0101
 8582W        W28116   0.338  16.099   3.132 -0.1538  0.1622 -0.0054
 8583W        W28117  10.152   4.402  10.419 -0.1394 -0.2078 -0.0172
 8584W        W28118   5.973   7.405  11.000 -0.3545  0.3570 -0.1448
 8585W        W28119  10.953  12.553  12.639  0.2256  0.0082 -0.0308
 8586W        W28120   1.095  14.772   2.722 -0.0864  0.1471  0.0932
 8587W        W28121  17.755  14.246  13.762  0.1654 -0.0594 -0.2393
 8588W        W28122  17.200   2.133  13.504  0.1080  0.0495  0.1330
 8589W        W28123  14.140   6.570  12.362  0.5276  0.0929  0.0495
 8590W        W28124  12.035   5.066  11.174  0.2671  0.1664 -0.0636
 8591W        W28125   9.012   7.379  11.797 -0.0976  0.3126 -0.2924
 8592W        W28126  17.436  14.415  14.384 -0.4542 -0.0571 -0.0736
 8593W        W28127   5.415  15.515  13.083  0.3415  0.0710 -0.1671
 8594W        W28128   6.196  16.649  14.766  0.2432 -0.0432  0.0710
 8595W        W28129  11.874  18.556  12.120  0.1650 -0.1472  0.1149
 8596W        W28130  17.535  12.033  12.626 -0.1594  0.0420  0.0585
 8597W        W28131  14.484   5.057   0.167  0.2692  0.1585 -0.1868
 8598W        W28132  18.819  18.237   0.545 -0.1677  0.0585  0.1859
 8599W        W28133   8.623  13.492   4.017  0.1903  0.0721 -0.0660
 8600W        W28134  16.300  11.830   2.638 -0.1289 -0.1527 -0.3343
 8601W        W28135   1.690  18.507   1.949 -0.4896  0.2167 -0.3075
 8602W        W28136   0.355   4.199   3.996 -0.1837  0.0020 -0.1112
 8603W        W28137   1.721   5.840   0.003 -0.4291 -0.4383  0.1355
 8604W        W28138   5.699   8.894  11.459 -0.0747 -0.2567 -0.1054
 8605W        W28139   0.020  16.418   3.653  0.0002 -0.1310  0.1123
 8606W        W28140   7.435  15.885  14.273 -0.1165  0.1013  0.1070
 8607W        W28141   1.884  18.442  12.965  0.1366  0.1185 -0.2624
 8608W        W28142   6.571  10.478  11.581  0.1318 -0.1201 -0.1433
 8609W        W28143   0.280   9.196   0.631 -0.0029 -0.2352 -0.0831
 8610W        W28144   3.120  18.046  10.634  0.0382 -0.0350  0.0649
 8611W        W28145   8.224   5.921  12.121 -0.0550  0.1990  0.0016
 8612W        W28146  16.245  15.938  14.159  0.0355 -0.0030 -0.0878
 8613W        W28147   5.439  13.498  13.418 -0.1798  0.1345  0.0872
 8614W        W28148  13.752  13.064  11.888 -0.1061  0.1680  0.1478
 8615W        W28149   0.341   2.811  12.834  0.1738  0.0904 -0.1851
 8616W        W28150   0.961   1.923  12.680 -0.1349 -0.0894 -0.0654
 8617W        W28151   4.668  13.003  11.351 -0.1549 -0.2017  0.2581
 8618W        W28152   7.943   0.125  11.625  0.0082  0.0068 -0.0017
 8619W        W28153   3.064   3.635  11.832 -0.4259  0.2286 -0.1625
 8620W        W28154  11.137  11.313  13.042 -0.1474 -0.3342  0.1664
 8621W        W28155  17.930   8.702   2.985  0.0033  0.0592  0.2911
 8622W        W28156   6.798   8.171  11.597  0.0008  0.0667  0.0408
 8623W        W28157   8.118  11.504   4.483 -0.0248  0.0266 -0.0081
 8624W        W28158   8.124   6.764  11.765  0.0075 -0.1105  0.4101
 8625W        W28159  13.969  11.030   3.384 -0.0393  0.0644 -0.1310
 8626W        W28160  17.057   9.499  12.176 -0.0824 -0.2754  0.1139
 8627W        W28161   0.933  13.975   2.975 -0.2537  0.1879 -0.0691
 8628W        W28162  14.279   4.043   4.072 -0.0001 -0.0912  0.3195
 8629W        W28163  17.777  12.211  12.240  0.2241  0.3374  0.0604
 8630W        W28164  13.337  15.980   2.556  0.2215 -0.1719 -0.1760
 8631W        W28165  10.299  18.480  12.677 -0.2970 -0.1614  0.5248
 8632W        W28166  11.945   6.829  13.637 -0.2162 -0.2360  0.1957
 8633W        W28167   8.860   9.189  14.247 -0.0448  0.2527 -0.1630
 8634W        W28168  14.061   8.267   2.228  0.0640 -0.0212  0.2281
 8635W        W28169   4.641   6.517  11.117 -0.1266  0.2255  0.2864
 8636W        W28170  16.157  10.551   0.222 -0.1277  0.1641  0.2686
 8637W        W28171   5.714   5.814  12.627 -0.0166 -0.0665  0.2701
 8638W        W28172   2.469  11.210   3.838 -0.1165 -0.0183  0.1334
 8639W        W28173   0.816   7.306  14.004 -0.0606 -0.2985 -0.1909
 8640W        W28174   7.077   7.026  14.436 -0.1198  0.0919  0.1109
 8641W        W28175  14.063   8.626   3.074 -0.0324  0.0448 -0.3086
 8642W        W28176   2.584   8.230   3.283 -0.1703 -0.2366  0.0348
 8643W        W28177   2.094   9.304   2.911  0.2763  0.1292  0.0541
 8644W        W28178  10.746   0.092  14.311  0.2243 -0.0624  0.1288
 8645W        W28179   3.985   1.638  10.501  0.0258  0.3888  0.0937
 8646W        W28180   8.314   3.281   2.227  0.1255 -0.1437 -0.1325
 8647W        W28181   3.144  17.428   4.609 -0.1665  0.0425 -0.1379
 8648W        W28182  11.728  12.455   1.530  0.2832  0.1955  0.3084
 8649W        W28183  14.174  17.486   2.721 -0.0500  0.2561 -0.0384
 8650W        W28184   5.593   8.847   3.256  0.1217 -0.1639  0.0828
 8651W        W28185  17.780   3.503  10.720  0.0628  0.0969 -0.2997
 8652W        W28186   8.703  18.866   3.512  0.2728  0.2895  0.1269
 8653W        W28187  12.870   1.092  10.815  0.2738  0.0147  0.0163
 8654W        W28188   8.904   1.339  14.633  0.3295  0.2253  0.0632
 8655W        W28189   0.869  11.133  11.829 -0.0441 -0.1670 -0.0701
 8656W        W28190  17.347  16.388   3.500  0.3135 -0.0732  0.2659
 8657W        W28191  12.803  13.780  12.872  0.0616 -0.0757  0.2791
 8658W        W28192   1.024   6.488  10.819  0.1922  0.0386 -0.2210
 8659W        W28193   5.497  10.818   3.973 -0.2750  0.0704 -0.1819
 8660W        W28194  11.923  15.797  12.540  0.1688 -0.0955 -0.2169
 8661W        W28195   7.154   3.449   4.272  0.0192 -0.1887  0.2958
 8662W        W28196  14.222   2.049  11.550 -0.0582  0.0354  0.0442
 8663W        W28197   3.422  15.844  11.687  0.4166  0.1556 -0.0229
 8664W        W28198   5.856   8.857  12.834 -0.0756  0.2891 -0.1116
 8665W        W28199   1.532  10.196  13.590 -0.0013 -0.2136 -0.2473
 8666W        W28200  12.454  18.338   3.898 -0.0825 -0.0451  0.0200
 8667W        W28201   5.186  14.345   0.573  0.2605  0.2465 -0.0119
 8668W        W28202   8.559  16.799   2.586 -0.1718  0.0217  0.1758
 8669W        W28203  18.172   9.686  13.494  0.1192 -0.3076  0.0915
 8670W        W28204  14.546   7.446  13.822 -0.1589 -0.0510 -0.1783
 8671W        W28205   3.784   5.640  14.400 -0.0795  0.1517  0.2883
 8672W        W28206   8.415   8.955   1.598 -0.0807  0.2231 -0.2766
 8673W        W28207   6.997   7.826  10.848  0.0053 -0.0057 -0.2739
 8674W        W28208  15.971  15.906   1.419 -0.0192 -0.0239  0.0719
 8675W        W28209   7.454  18.153   1.351 -0.0504 -0.0491  0.1141
 8676W        W28210   9.922  18.194  13.848  0.0391 -0.0700  0.2612
 8677W        W28211   9.366   2.979  14.399  0.0859  0.2116 -0.0307
 8678W        W28212  17.499  15.132   3.620  0.0367  0.3969 -0.2561
 8679W        W28213   6.971  17.908  14.832  0.1228  0.2905 -0.0639
 8680W        W28214  15.183  19.020  14.775  0.4371  0.3562  0.1387
 8681W        W28215   0.705   7.745  14.780  0.4002 -0.0337 -0.3779
 8682W        W28216   1.918  16.930   2.088 -0.0080  0.0748 -0.0567
 8683W        W28217   3.501   3.658   0.174 -0.0168  0.0122 -0.1511
 8684W        W28218  12.922  17.211  11.927  0.0395 -0.0447  0.0657
 8685W        W28219   6.855   2.466   3.996  0.0449  0.2837 -0.2244
 8686W        W28220  12.485   6.450  13.777  0.2729 -0.0729  0.1679
 8687W        W28221   2.885   7.921  13.554  0.0085  0.1905 -0.0373
 8688W        W28222   6.199   6.983  12.987  0.0527 -0.1631 -0.1116
 8689W        W28223   0.274  12.679   3.676  0.1094  0.1096 -0.3123
 8690W        W28224   3.571   8.138   3.487 -0.2625 -0.2153 -0.3056
 8691W        W28225  15.175  11.151  11.262  0.2690 -0.1225 -0.1386
 8692W        W28226   2.984   4.430  14.738 -0.2274 -0.1320 -0.1808
 8693W        W28227   4.641   1.376   3.759 -0.0440 -0.0037  0.0294
 8694W        W28228   3.402   6.003  14.297 -0.2975  0.0442  0.3541
 8695W        W28229   7.500  10.418   2.022  0.0357  0.2861 -0.0111
 8696W        W28230  16.915  17.760   1.932 -0.2924 -0.0314 -0.1004
 8697W        W28231   1.405  15.740  11.962  0.4378 -0.0500  0.0222
 8698W        W28232  10.596   9.608   0.919  0.1918 -0.2467  0.1104
 8699W        W28233   0.112   6.086  11.446 -0.1556  0.0402 -0.2636
 8700W        W28234  18.963  16.500  12.851 -0.3646 -0.1512  0.2061
 8701W        W28235   0.704  11.499   0.196  0.0780  0.0068  0.3702
 8702W        W28236   7.874  11.883  10.853 -0.1360  0.1380 -0.3139
 8703W        W28237  18.572  14.643  11.887  0.0300  0.0085 -0.1038
 8704W        W28238  12.514   4.118  14.766 -0.3256 -0.4297  0.2620
 8705W        W28239  17.569   2.271  10.815  0.1817  0.1325 -0.2674
 8706W        W28240  16.211   6.304  14.544 -0.0391 -0.3149 -0.0427
 8707W        W28241  18.837  16.862  12.031  0.0833  0.1555 -0.0695
 8708W        W28242  17.361   7.492   5.450  0.0244  0.1368 -0.2000
 8709W        W28243  15.608   8.846   2.054 -0.0135 -0.1000  0.0830
 8710W        W28244  14.069   7.244   3.974 -0.2340 -0.0606 -0.0268
 8711W        W28245  17.380   7.232  14.003  0.2391 -0.1450 -0.0348
 8712W        W28246  14.659  11.008  10.266  0.0438 -0.1259 -0.0248
 8713W        W28247   7.899  18.168  12.671  0.0320 -0.3549  0.3875
 8714W        W28248  10.330   5.400   4.956  0.0395  0.0018  0.4188
 8715W        W28249  16.474   2.818  14.610  0.0759 -0.0464  0.0680
 8716W        W28250  10.563   1.843   2.210  0.2429 -0.2203 -0.0041
 8717W        W28251  18.567   5.448   2.618 -0.1731 -0.3303  0.1638
 8718W        W28252  15.515   7.382   1.828 -0.0912  0.2813  0.3067
 8719W        W28253  18.964   4.975   1.498  0.1865 -0.0331 -0.1745
 8720W        W28254   5.861   1.317   0.295 -0.1836  0.2371  0.2756
 8721W        W28255   7.567   8.989  13.097  0.0992  0.2920 -0.6009
 8722W        W28256   4.061  18.310   5.661 -0.0094  0.3368 -0.1838
 8723W        W28257   0.087  14.110  12.512 -0.0151 -0.2617  0.1798
 8724W        W28258   9.345  13.961  11.094  0.0923 -0.1810  0.0633
 8725W        W28259  15.019   8.948  13.025 -0.0304  0.0743 -0.0449
 8726W        W28260  15.633  14.084  13.068 -0.0523 -0.0563 -0.1204
 8727W        W28261  19.004   9.817  14.116  0.0821  0.3929  0.2120
 8728W        W28262   0.761  15.300   0.003 -0.5062 -0.2741 -0.1570
 8729W        W28263  12.242  14.243   0.539 -0.0331  0.0483  0.0431
 8730W        W28264  10.331  19.078  11.462  0.0751  0.0961  0.2057
 8731W        W28265   2.160   8.956  11.801 -0.0895  0.3060 -0.0828
 8732W        W28266   8.024   0.141   0.942  0.5302 -0.0738 -0.0988
 8733W        W28267   7.919  18.900   1.485 -0.0022 -0.1579 -0.0872
 8734W        W28268  12.905   6.185   3.837  0.1727  0.3158 -0.2193
 8735W        W28269   3.434  10.476   0.957 -0.3314  0.2776 -0.0854
 8736W        W28270   8.200   4.456  12.348 -0.1088 -0.3513  0.1016
 8737W        W28271  18.059   3.033  11.650 -0.2065  0.1031  0.5593
 8738W        W28272   6.369  17.858  12.352 -0.0056 -0.0587  0.1866
 8739W        W28273   4.373  11.315  11.461  0.4260  0.4664 -0.0183
 8740W        W28274   5.100  11.602   1.310 -0.2072  0.1830 -0.1384
 8741W        W28275   9.113  15.101   1.963  0.2883 -0.1935  0.0088
 8742W        W28276  15.478   1.243   2.365  0.1915 -0.1508  0.1325
 8743W        W28277   1.995   8.540  12.761 -0.2163 -0.3042 -0.0242
 8744W        W28278   7.405  16.876  14.298 -0.3045  0.3585  0.1939
 8745W        W28279  17.927   3.778   0.039  0.2454  0.0899  0.1053
 8746W        W28280  11.720  11.565  10.942 -0.0009 -0.1332 -0.1792
 8747W        W28281   5.583  16.831  11.539 -0.2779  0.2913 -0.0130
 8748W        W28282  13.402   3.714   2.147 -0.2113  0.0877 -0.1015
 8749W        W28283   5.592   1.404  12.455 -0.1636  0.0904 -0.0412
 8750W        W28284   7.526   8.229  14.637  0.3488 -0.2922  0.0209
 8751W        W28285   3.711  16.263   2.882 -0.2560  0.3006 -0.0771
 8752W        W28286   2.918   7.438   0.317 -0.1730  0.4971  0.1231
 8753W        W28287   4.330   7.097  11.690 -0.1341 -0.0961 -0.2890
 8754W        W28288  14.833   8.832   0.204  0.3557 -0.2473 -0.0453
 8755W        W28289  13.644   7.404  10.786  0.1304  0.0835 -0.0984
 8756W        W28290   0.675  11.531  14.188 -0.1204 -0.1140  0.1189
 8757W        W28291   5.543  14.275  13.117  0.0792  0.1006 -0.1759
 8758W        W28292   3.146   9.076   0.211 -0.1250  0.1307 -0.0271
 8759W        W28293  13.473  17.789  13.799 -0.0263 -0.4248 -0.0385
 8760W        W28294   6.164  17.628  12.881 -0.0912  0.0844  0.0195
 8761W        W28295  18.681   4.193  11.685 -0.1046 -0.0225 -0.4100
 8762W        W28296  12.888  11.844   1.825 -0.5302 -0.2605  0.2350
 8763W        W28297   0.088  10.700   1.344 -0.0330  0.0066 -0.0486
 8764W        W28298  18.468   9.806   3.293  0.1309 -0.2013 -0.0143
 8765W        W28299   9.544  16.264   0.376  0.0767 -0.1473  0.3052
 8766W        W28300   6.241   2.280   1.250 -0.2946  0.0433  0.0161
 8767W        W28301  14.855   7.810   1.421 -0.1113 -0.1425  0.0286
 8768W        W28302   9.884  11.345   2.270  0.0101 -0.1511 -0.1306
 8769W        W28303  17.091   3.502  12.732  0.2092  0.3473  0.2635
 8770W        W28304   6.029  12.062   3.737 -0.0835  0.1885  0.0797
 8771W        W28305   7.720  10.347  14.166  0.4203 -0.1993  0.1671
 8772W        W28306  17.066   4.824   1.699 -0.0320 -0.2022  0.0024
 8773W        W28307   8.317   5.678   3.333 -0.2474  0.1300 -0.1034
 8774W        W28308  17.628  17.352   3.480  0.1064 -0.0396  0.1552
 8775W        W28309   3.517  18.905   0.306 -0.4557  0.1061 -0.1308
 8776W        W28310   6.300   0.494  11.683  0.1068 -0.0364  0.2093
 8777W        W28311   5.368   6.968  10.727  0.2678  0.0004 -0.2905
 8778W        W28312   5.012  16.370  14.549  0.0406  0.1091  0.2833
 8779W        W28313   5.868   4.782  13.199  0.1642 -0.1652  0.3398
 8780W        W28314   1.268   3.651   3.320  0.1470  0.1024  0.1693
 8781W        W28315   9.989   7.700   2.521 -0.2995 -0.3592 -0.0115
 8782W        W28316  10.916  16.797   1.531 -0.1173  0.0524  0.1972
 8783W        W28317   4.474   2.313  12.690 -0.0187 -0.0184  0.3455
 8784W        W28318   6.342  10.035  13.810  0.0185 -0.3516  0.1120
 8785W        W28319   8.709  10.251  12.184  0.3894 -0.3292  0.0213
 8786W        W28320  13.061  10.457   2.400 -0.2135  0.0646  0.1310
 8787W        W28321  10.730   5.983  14.443  0.1339  0.0706  0.0537
 8788W        W28322  13.395  10.912  12.749 -0.0329  0.1622 -0.0179
 8789W        W28323  12.146  12.968  14.597 -0.1635 -0.1528 -0.1186
 8790W        W28324  18.850  17.426   0.375 -0.2402  0.0169 -0.1914
 8791W        W28325   2.819  14.810   1.845  0.3543 -0.2537 -0.0118
 8792W        W28326  14.193   1.645   2.389  0.0127  0.2415 -0.3049
 8793W        W28327   8.818   1.161   3.822 -0.4900 -0.0287  0.2125
 8794W        W28328  10.324   5.125  10.955  0.0811 -0.0954 -0.0737
 8795W        W28329   0.143  15.490  11.332  0.2465 -0.0458  0.3240
 8796W        W28330   2.459  13.689   1.017 -0.1615  0.2936 -0.3787
 8797W        W28331  11.264  17.712   2.000  0.0216  0.0918 -0.0448
 8798W        W28332   5.471  18.308  14.198 -0.0523 -0.0691  0.0661
 8799W        W28333   1.925  15.824   3.576 -0.1864 -0.1496  0.0950
 8800W        W28334   9.421  18.182   1.216  0.0738  0.1571 -0.3157
 8801W        W28335   7.709  17.537   4.305  0.0570  0.0394  0.1222
 8802W        W28336  17.110   9.247   0.040  0.3475  0.1802 -0.2018
 8803W        W28337  18.196   8.384   4.149  0.0619 -0.2011  0.1221
 8804W        W28338  17.086  18.871  12.179 -0.1616 -0.1262 -0.0408
 8805W        W28339   5.452   1.540   0.426 -0.3687  0.1471 -0.3501
 8806W        W28340   2.490   6.073  13.951  0.0185 -0.2063  0.2628
 8807W        W28341  15.651  15.039   4.487 -0.0739  0.5448  0.2871
 8808W        W28342   8.658  15.149   7.656  0.1319  0.2045  0.1289
 8809W        W28343  13.452  15.955  10.668 -0.0974 -0.0283  0.0874
 8810W        W28344   4.679   9.487  12.937 -0.0763  0.1009  0.0919
 8811W        W28345   8.675   8.065   0.742  0.0224 -0.0090  0.0818
 8812W        W28346  13.887   3.440   0.422  0.1254 -0.0828  0.1220
 8813W        W28347  13.925  15.095   1.218  0.1831 -0.0254  0.1522
 8814W        W28348  14.864   4.050  13.259  0.0694 -0.0820  0.1467
 8815W        W28349  18.414  16.269   4.340 -0.2727 -0.2546 -0.1248
 8816W        W28350   4.564   8.147  14.273  0.0706 -0.2134 -0.1956
 8817W        W28351   3.856   3.898   4.062 -0.0818 -0.2551  0.2217
 8818W        W28352  15.420   9.155  12.833  0.1292 -0.2090 -0.3010
 8819W        W28353  12.808  16.630   3.272  0.1827  0.1307  0.2750
 8820W        W28354   4.877  16.031   4.098  0.1948  0.0604 -0.1773
 8821W        W28355  12.248   4.410   1.874 -0.1841 -0.1462 -0.1538
 8822W        W28356  12.054   2.280   2.260 -0.0284 -0.3025  0.0526
 8823W        W28357  14.178   1.095   4.849 -0.1234  0.2861  0.0787
 8824W        W28358   7.293   6.637   1.670 -0.0697  0.1234 -0.3599
 8825W        W28359   2.659   9.288   1.955 -0.0816  0.1243 -0.0354
 8826W        W28360   0.132   4.378  12.006 -0.1521 -0.1740  0.0704
 8827W        W28361  16.671   5.409   2.393 -0.0536 -0.0942 -0.0037
 8828W        W28362  10.815  13.904   1.764 -0.2722 -0.3805  0.1760
 8829W        W28363  10.341   3.034  10.403  0.3433 -0.0774 -0.2516
 8830W        W28364   7.902  15.661  13.302 -0.1163  0.1077 -0.0308
 8831W        W28365  15.386  12.517  11.258 -0.0136 -0.3696 -0.0217
 8832W        W28366  18.277   2.660  11.461  0.1015 -0.1629 -0.2337
 8833W        W28367  16.239  17.023   3.547 -0.0754 -0.0290 -0.0432
 8834W        W28368   4.182   4.885  12.351  0.1583 -0.2561 -0.0807
 8835W        W28369  11.095   8.769  11.889 -0.0145 -0.1962 -0.1125
 8836W        W28370  16.624   6.440  10.845  0.2597 -0.0178  0.1614
 8837W        W28371   9.651   7.796  12.521 -0.1082  0.1107 -0.4302
 8838W        W28372  15.338  15.949  14.641  0.0391 -0.5887  0.2475
 8839W        W28373  13.524  12.435  11.298  0.1007 -0.0785 -0.3289
 8840W        W28374   3.733   3.663   3.357  0.0070 -0.0985 -0.2064
 8841W        W28375   9.326  14.373  13.011  0.2629  0.3070 -0.0073
 8842W        W28376  14.431   2.088   3.615  0.0211  0.4173  0.0677
 8843W        W28377  18.920  16.410   1.433 -0.1513  0.1982  0.0183
 8844W        W28378  10.897  14.251   0.486 -0.0984  0.0144  0.1339
 8845W        W28379  13.329  15.091  14.694 -0.0442  0.0686  0.0638
 8846W        W28380  15.927  10.677  11.764 -0.2395  0.2516  0.0642
 8847W        W28381   2.273  14.959  11.939 -0.4634 -0.0722 -0.1702
 8848W        W28382  10.112   6.554   0.925  0.1017 -0.2401 -0.1257
 8849W        W28383   6.597  18.014   0.804  0.0615  0.1804 -0.2683
 8850W        W28384  16.052  16.496   2.885  0.1155 -0.3625  0.3188
 8851W        W28385  14.433  11.366  10.689 -0.0800  0.4680  0.3284
 8852W        W28386  16.514  12.945  13.318 -0.0134 -0.2927  0.2442
 8853W        W28387  18.769   3.083  14.230 -0.1034 -0.1837  0.1288
 8854W        W28388  15.839  14.411   3.230 -0.1268 -0.0937 -0.1808
 8855W        W28389  16.507  15.226   2.030 -0.1717 -0.0517  0.0421
 8856W        W28390   2.009   9.791  11.283 -0.1612  0.5107 -0.1771
 8857W        W28391   7.133   3.533  13.366  0.1187 -0.0468 -0.0353
 8858W        W28392   7.600  15.739  14.710 -0.0423  0.1797  0.0263
 8859W        W28393  12.567  17.067   3.398 -0.0325  0.0594  0.1486
 8860W        W28394   4.011  15.088   4.364  0.0483  0.2178  0.0394
 8861W        W28395   8.822   8.053   3.702  0.2803  0.0644  0.2244
 8862W        W28396  14.674  14.545   2.030 -0.0316  0.2622 -0.1355
 8863W        W28397   6.652  16.547   1.337 -0.2688 -0.1641 -0.1713
 8864W        W28398   1.649   3.327  13.985  0.0871  0.1214 -0.1222
 8865W        W28399   3.123  16.011  14.681 -0.2357 -0.1105  0.0901
 8866W        W28400  14.388  13.770  11.473 -0.0269  0.0022 -0.0363
 8867W        W28401   5.534   4.675   3.320 -0.0756  0.1053  0.1737
 8868W        W28402  17.113   7.037   3.155 -0.1863 -0.0446 -0.4319
 8869W        W28403   9.407  14.434  11.300 -0.3356  0.0810  0.4483
 8870W        W28404  11.656   0.058   1.757  0.1338  0.0257  0.1081
 8871W        W28405   8.242  14.904   1.259 -0.1394  0.1753  0.0196
 8872W        W28406   0.613   1.366   0.383 -0.0080  0.3981 -0.0647
 8873W        W28407   1.973   6.778  11.051  0.2639 -0.0039  0.0041
 8874W        W28408  11.762  10.768  14.200 -0.0921 -0.2499 -0.0524
 8875W        W28409  16.352  10.319   0.607 -0.1175 -0.0423  0.1030
 8876W        W28410   6.332  12.883   3.564 -0.1787 -0.1811  0.0119
 8877W        W28411  14.216  14.800   1.489 -0.2192 -0.0562  0.1246
 8878W        W28412   8.784  11.402  13.957 -0.0983  0.0965  0.0015
 8879W        W28413  19.026   1.674   4.885  0.1230 -0.0134  0.2934
 8880W        W28414  14.657  18.813  12.433  0.0864  0.1503 -0.0729
 8881W        W28415   7.003  16.554  11.996  0.1557  0.1769 -0.0091
 8882W        W28416  12.138  15.411  13.998 -0.0503 -0.1021  0.3441
 8883W        W28417  11.510  10.683   0.194 -0.0290  0.3463 -0.1931
 8884W        W28418   1.594   5.397  14.586 -0.0938  0.2509  0.2491
 8885W        W28419  18.003   7.332  13.943  0.1394  0.2778  0.1321
 8886W        W28420  17.958   2.466   3.528 -0.0965 -0.2489 -0.2052
 8887W        W28421  11.760   3.276  14.600 -0.1518 -0.2345  0.0901
 8888W        W28422  16.314  18.128   2.341  0.2258  0.3224 -0.1053
 8889W        W28423  11.363  13.334  14.552 -0.1778 -0.1152  0.0205
 8890W        W28424  15.843  15.092  14.572 -0.1535  0.1932 -0.0059
 8891W        W28425  15.646   0.390   0.576  0.1233 -0.1540 -0.0876
 8892W        W28426  16.413  18.748   0.031  0.0936 -0.1163 -0.3205
 8893W        W28427  11.361  14.988   0.203 -0.3068  0.0920  0.0495
 8894W        W28428   1.041  10.104  11.980  0.2559 -0.1396  0.1957
 8895W        W28429   4.153  10.529   4.124 -0.1650 -0.0812 -0.2858
 8896W        W28430   6.461  11.827  10.922  0.1530 -0.1540 -0.3276
 8897W        W28431  12.556  15.286   5.054 -0.1007  0.0781  0.0958
 8898W        W28432   0.980   8.250  14.487  0.0764 -0.1759 -0.1853
 8899W        W28433   1.382  18.026   3.166 -0.1623  0.3642  0.1008
 8900W        W28434  11.616   3.128   1.812  0.1227  0.1483  0.0121
 8901W        W28435  11.930  10.926   2.968  0.1368  0.0710  0.1072
 8902W        W28436  16.286  13.607   3.158  0.2375 -0.1523  0.0455
 8903W        W28437  14.582  15.514  12.189  0.1181 -0.2150  0.2794
 8904W        W28438   2.215   6.309  13.051  0.2411  0.2858  0.0865
 8905W        W28439  12.169   0.910  14.465  0.4507  0.0321 -0.2342
 8906W        W28440  14.876  10.981   3.760 -0.0325 -0.1416  0.0811
 8907W        W28441  17.242   6.091   2.144  0.1817  0.0768  0.2873
 8908W        W28442   0.416   0.195   1.285  0.0453 -0.1240 -0.3774
 8909W        W28443  15.840  18.709   2.120  0.2547 -0.0133 -0.0557
 8910W        W28444   7.958   9.011  10.883  0.0608 -0.1570 -0.2583
 8911W        W28445   6.480   9.206  13.086 -0.0323  0.1081 -0.3085
 8912W        W28446  10.632  14.503   2.098  0.0702  0.2189  0.2252
 8913W        W28447  13.929   8.562   1.860 -0.3670  0.2091  0.0416
 8914W        W28448  14.150  12.350   1.446  0.1118 -0.0997 -0.2385
 8915W        W28449   6.357   0.489  10.628  0.2213  0.0293  0.2000
 8916W        W28450  14.696  17.485  13.360  0.1233 -0.0360 -0.1093
 8917W        W28451   3.715   3.638   2.328 -0.1061 -0.0428 -0.1734
 8918W        W28452   2.789  15.833   2.348  0.1229  0.0301 -0.0516
 8919W        W28453   6.123  14.731   2.918  0.1001  0.0982 -0.0204
 8920W        W28454   8.669  17.349   2.660 -0.2226  0.1884  0.2506
 8921W        W28455  15.617  14.259  11.123 -0.0439  0.2706 -0.5060
 8922W        W28456  18.969  15.655   1.591 -0.1334 -0.1660  0.0622
 8923W        W28457   5.697   0.550   3.468  0.0478 -0.0615  0.4212
 8924W        W28458  17.332   5.182   3.099 -0.0759 -0.2994  0.3026
 8925W        W28459   3.588  12.489  12.953 -0.0946  0.0520  0.2248
 8926W        W28460  14.957  17.508  11.524 -0.1026  0.1962 -0.0392
 8927W        W28461  15.692  13.362   1.205 -0.2852 -0.0853  0.0289
 8928W        W28462  14.555   8.860  14.185  0.1767 -0.0117  0.1627
 8929W        W28463   9.489  15.426   2.417 -0.1559  0.2312  0.1367
 8930W        W28464   0.754  14.805   0.387 -0.0351 -0.0203  0.2938
 8931W        W28465  17.651  14.154   0.836 -0.1629  0.4895 -0.2282
 8932W        W28466   3.909   0.132  11.966 -0.0422  0.1688 -0.4045
 8933W        W28467   6.090  11.703  13.074  0.0165 -0.4183  0.0943
 8934W        W28468  16.652   7.945   1.778  0.0068  0.0150  0.1962
 8935W        W28469   6.311   5.787   2.351  0.0171  0.2304  0.0301
 8936W        W28470   9.338   6.055  14.071  0.1156 -0.0387  0.2959
 8937W        W28471  17.901   5.246  12.530  0.2179 -0.1255 -0.2882
 8938W        W28472   0.045  18.484   0.333 -0.3414 -0.0115  0.0795
 8939W        W28473   2.153  13.868   1.659  0.1189 -0.3771 -0.0266
 8940W        W28474   2.958   2.277  12.770 -0.1460  0.3000  0.0570
 8941W        W28475  16.646  10.233   1.995  0.0359 -0.1590  0.1702
 8942W        W28476   8.809   2.945  12.494  0.0736  0.0574  0.2099
 8943W        W28477  14.982   5.258  11.759  0.1481  0.0872 -0.0999
 8944W        W28478   8.843   1.129   0.837 -0.0324 -0.0596  0.1914
 8945W        W28479  17.523   6.474  11.935  0.0039  0.0363  0.2955
 8946W        W28480  10.616   2.324  14.054 -0.1043  0.1193  0.0226
 8947W        W28481  15.012   3.363  14.270 -0.0945 -0.1509 -0.2356
 8948W        W28482  13.959  13.622  12.019 -0.0615  0.1016  0.0601
 8949W        W28483  12.463  19.055  11.528 -0.0341  0.3350 -0.0122
 8950W        W28484  12.595  12.691  13.133  0.2101  0.0853 -0.3512
 8951W        W28485   0.877  14.701  13.438 -0.1659 -0.3538  0.2455
 8952W        W28486  12.918  10.645  10.755 -0.1241 -0.0066  0.2936
 8953W        W28487   1.142   4.118  14.042  0.0758  0.0239 -0.0987
 8954W        W28488  16.320   5.916  11.863  0.1401  0.3588 -0.1216
 8955W        W28489   4.002   8.523  11.818  0.0378 -0.1075  0.4032
 8956W        W28490   1.865  13.630   1.327 -0.0042 -0.3467  0.1178
 8957W        W28491  17.074   0.696   2.992  0.2516 -0.0106 -0.0868
 8958W        W28492  16.811  18.151   2.298 -0.2130  0.2152  0.0790
 8959W        W28493  10.433  13.740  11.779 -0.2285 -0.3598  0.1713
 8960W        W28494   9.349  10.453   3.492 -0.4670  0.1160 -0.5398
 8961W        W28495   0.632   3.956  14.558 -0.0997  0.0803  0.2608
 8962W        W28496  12.887   9.107   3.693 -0.1309 -0.2064  0.0066
 8963W        W28497  18.898  12.847  11.364 -0.0535 -0.0421 -0.1823
 8964W        W28498   3.575  17.191  11.733 -0.2800  0.2087 -0.1125
 8965W        W28499  17.157   0.817  10.281  0.0164 -0.1838  0.0048
 8966W        W28500   4.875   5.596  12.804 -0.1192  0.0181 -0.0884
 8967W        W28501  11.614  14.146   3.895  0.0969  0.0671  0.0945
 8968W        W28502  18.594   2.687  11.058  0.0617  0.0135 -0.0472
 8969W        W28503  16.437  15.197   2.617 -0.2134 -0.1483 -0.2550
 8970W        W28504   1.784  12.482   2.829  0.1108 -0.0578 -0.1441
 8971W        W28505   5.770  13.160   0.329  0.0178  0.2347  0.3091
 8972W        W28506  10.904  14.707  12.798 -0.1010  0.2332 -0.3575
 8973W        W28507  11.008  16.412  10.905  0.1147  0.2126  0.0654
 8974W        W28508   1.930  18.850   4.294  0.2374 -0.0395  0.1821
 8975W        W28509   4.068   4.584  13.944  0.2874  0.0121 -0.1581
 8976W        W28510   1.304   6.280  12.444  0.0789 -0.0028  0.2476
 8977W        W28511   3.428   5.105  10.963  0.0044  0.0403 -0.2783
 8978W        W28512  13.549  13.712  12.791 -0.1679  0.0710  0.2455
 8979W        W28513   4.214   7.253   2.567  0.1869  0.0098 -0.1121
 8980W        W28514  14.635  17.696  12.541 -0.0365 -0.0667  0.2952
 8981W        W28515  13.251   5.798  11.417 -0.1092  0.3347 -0.0489
 8982W        W28516   6.354   3.642   1.124 -0.2067  0.0699 -0.2369
 8983W        W28517   7.436   8.084   1.178  0.0883 -0.0275 -0.0046
 8984W        W28518  13.667   6.361  12.371 -0.1173 -0.1012 -0.1066
 8985W        W28519   4.166  11.989   2.906 -0.2957  0.1266  0.2520
 8986W        W28520  10.264  14.768   0.206 -0.1011  0.0134  0.0137
 8987W        W28521  16.223  18.123  10.420 -0.2378 -0.0482  0.1300
 8988W        W28522  13.690  16.221  14.527 -0.1733  0.0167  0.2158
 8989W        W28523   4.717   5.260   2.955  0.0523  0.1960  0.2051
 8990W        W28524   5.093   0.573   1.176 -0.2105 -0.1901  0.2243
 8991W        W28525   1.959   6.861   0.430  0.1898  0.1298  0.0501
 8992W        W28526   5.795   4.242   1.357 -0.1183 -0.1208 -0.0392
 8993W        W28527   5.534  18.549  10.939  0.0211  0.1843 -0.2213
 8994W        W28528  17.507  13.162   3.891 -0.1783  0.1740 -0.3323
 8995W        W28529  11.113  13.985   3.890  0.1450  0.0305  0.1853
 8996W        W28530   7.682  12.482  14.685  0.0321  0.0571  0.0352
 8997W        W28531   8.100  17.914  13.663  0.2415  0.1815 -0.0581
 8998W        W28532   8.948   4.409   2.523  0.0699 -0.2119 -0.1778
 8999W        W28533  14.375  11.099  11.773 -0.0782  0.0033 -0.1639
 9000W        W28534   2.297  14.734   0.667 -0.0191  0.2032 -0.1540
 9001W        W28535   2.573   2.336  14.135  0.3309 -0.0229 -0.0829
 9002W        W28536  12.835  16.950   0.567 -0.0873 -0.1893  0.0105
 9003W        W28537   9.369   9.583   3.645  0.0915 -0.1378 -0.0072
 9004W        W28538   6.719   2.878  13.620  0.3665 -0.0653  0.2897
 9005W        W28539  17.458   1.967   0.989 -0.0638  0.1160  0.1207
 9006W        W28540  17.101  16.108   4.267 -0.1356  0.3146  0.2439
 9007W        W28541   3.073  11.901  10.574 -0.0450 -0.1880 -0.0426
 9008W        W28542   8.915   4.757  11.765 -0.1408  0.1360  0.1987
 9009W        W28543  15.886   5.442   2.910  0.2894  0.0253  0.0117
 9010W        W28544   3.067   1.301  13.085 -0.0492 -0.2964  0.0925
 9011W        W28545  11.928  12.053  11.266  0.1206  0.0377 -0.0046
 9012W        W28546  11.378  16.970   4.374 -0.2325 -0.2908  0.0068
 9013W        W28547   4.991  12.615   1.374 -0.2642 -0.1737  0.0277
 9014W        W28548   7.669  14.918  14.735  0.1754  0.1706 -0.1667
 9015W        W28549  18.036  14.485  11.970 -0.2409  0.1147  0.0388
 9016W        W28550   1.960   3.002  12.347 -0.3618  0.1461 -0.1483
 9017W        W28551   5.155   6.092   0.968 -0.3092 -0.2979  0.1807
 9018W        W28552   5.581  11.383  14.369  0.2139  0.0353 -0.2279
 9019W        W28553   8.154   8.523  14.020  0.0408 -0.0942  0.3122
 9020W        W28554  17.034   2.056   2.866  0.2413 -0.2477  0.0598
 9021W        W28555  12.782   1.384  13.082 -0.1996  0.1608 -0.1734
 9022W        W28556  13.243  10.368  14.603 -0.2227  0.2451 -0.1843
 9023W        W28557   6.437   0.190   4.506  0.0343 -0.2131 -0.0481
 9024W        W28558  14.408   5.161  14.494 -0.0287 -0.0035 -0.1613
 9025W        W28559   1.895   8.573   4.682 -0.1361  0.0418  0.1780
 9026W        W28560  19.072   3.774   0.993  0.0505 -0.1970  0.2102
 9027W        W28561  16.013  13.326  14.445  0.4364 -0.3559  0.3391
 9028W        W28562   3.253   8.389   4.570 -0.0075  0.0291 -0.0560
 9029W        W28563  14.290   3.560   1.135  0.0236  0.2433  0.0615
 9030W        W28564  11.594  15.163  10.895 -0.4077  0.2345  0.0744
 9031W        W28565  18.962   9.288   2.309  0.0952 -0.2830 -0.1283
 9032W        W28566   4.724   5.700  10.789 -0.0027  0.1934 -0.0404
 9033W        W28567  12.893  18.655   4.360  0.2331 -0.1170  0.1584
 9034W        W28568  10.815  11.005  13.437  0.0524  0.1057 -0.2503
 9035W        W28569   7.379   2.894   3.260 -0.3347  0.2905  0.1374
 9036W        W28570   2.561   3.332  13.938  0.2745  0.0130  0.2802
 9037W        W28571  18.208   3.804   1.033 -0.1316 -0.1407  0.1630
 9038W        W28572   0.261  15.625  12.722 -0.2793  0.1010 -0.0267
 9039W        W28573  16.985   5.508   0.999  0.3914  0.0303 -0.0420
 9040W        W28574  18.811   3.965   3.012 -0.1411  0.0033  0.0290
 9041W        W28575   4.372  11.871   1.628 -0.1443  0.0722 -0.1250
 9042W        W28576  16.864   2.522   2.545 -0.1387 -0.1374  0.0320
 9043W        W28577  12.645   5.255   2.846 -0.3102  0.1053 -0.0483
 9044W        W28578  10.688  11.460  13.257  0.1843  0.3947  0.0116
 9045W        W28579  13.769   6.574   0.999 -0.0172  0.0520  0.3155
 9046W        W28580  13.260  13.549   0.662 -0.3988  0.0582 -0.0486
 9047W        W28581  13.899   2.382   0.762 -0.1872  0.1114 -0.1488
 9048W        W28582   6.519   4.665  12.604  0.0296  0.0101  0.1831
 9049W        W28583  13.446   6.420   3.795 -0.2161  0.5156  0.3172
 9050W        W28584   2.949   6.633  13.211 -0.1316  0.1734  0.3011
 9051W        W28585  18.644  18.347   2.270 -0.0243 -0.0996  0.0624
 9052W        W28586   3.171   1.126   3.459 -0.2647  0.4747  0.0177
 9053W        W28587  15.368  15.042   4.050 -0.4700  0.1953  0.0618
 9054W        W28588   2.262   4.025   3.624 -0.0755 -0.1018 -0.0797
 9055W        W28589  18.142  12.260   1.651  0.0174 -0.1691 -0.0879
 9056W        W28590   5.658  13.365  14.628  0.0117  0.0962 -0.1214
 9057W        W28591  13.303  15.765   0.652 -0.0101  0.1391 -0.1556
 9058W        W28592   0.781   4.967   3.872  0.2486  0.0998 -0.5541
 9059W        W28593   3.468   8.119  12.154  0.2448  0.2898  0.1586
 9060W        W28594   0.115   8.857   3.014 -0.0758  0.0703  0.0014
 9061W        W28595   2.963  12.581   1.616  0.0476 -0.0111 -0.0849
 9062W        W28596   7.740  16.298   4.578 -0.0624 -0.2102 -0.0122
 9063W        W28597  10.154  14.981   4.626  0.0008 -0.0043 -0.2533
 9064W        W28598  12.930   7.912  10.853  0.0322 -0.1460 -0.1606
 9065W        W28599  18.643  13.585  12.006 -0.1822  0.4883  0.3300
 9066W        W28600  17.755   2.296   2.478 -0.2211 -0.3222  0.0264
 9067W        W28601   9.341  17.557  13.488 -0.1654 -0.0054  0.1258
 9068W        W28602   0.087   6.615   3.802 -0.2847  0.1882  0.0819
 9069W        W28603   3.781  13.164   0.668 -0.0402 -0.1123 -0.1897
 9070W        W28604   1.434   7.812   4.071 -0.4757  0.2137  0.4117
 9071W        W28605   4.353   5.698  10.021  0.0165 -0.1633 -0.0933
 9072W        W28606  14.603   8.744  13.571 -0.1290 -0.2540 -0.1227
 9073W        W28607  11.834  10.723  12.093  0.3325  0.0567 -0.0740
 9074W        W28608  13.292   1.386  13.051 -0.0165  0.2306 -0.0551
 9075W        W28609   7.048   7.655  11.376 -0.0797 -0.0389  0.0141
 9076W        W28610  13.212   7.027  12.800  0.1669 -0.1789 -0.5185
 9077W        W28611   6.148  17.085  11.496 -0.1853 -0.0127  0.3899
 9078W        W28612   7.297  16.678  13.803 -0.0396  0.1114  0.3490
 9079W        W28613  14.443   0.943  11.591  0.1542  0.1371 -0.0608
 9080W        W28614   7.285  17.588   2.983 -0.0943 -0.0148  0.1443
 9081W        W28615  18.370  11.958   4.052 -0.1703 -0.0188 -0.0520
 9082W        W28616  18.296   4.701   4.248 -0.1061  0.0619  0.0726
 9083W        W28617   6.894  10.518   9.740 -0.0547  0.1199 -0.0267
 9084W        W28618  12.298   0.129  14.437 -0.0580  0.5304 -0.0078
 9085W        W28619   0.690  13.374   3.305  0.2835 -0.1582  0.1936
 9086W        W28620  15.174   9.322  14.676 -0.1414  0.0047  0.0737
 9087W        W28621   0.551  15.351   2.318  0.0781 -0.0345 -0.2939
 9088W        W28622   8.277  14.292   9.761  0.0541  0.1898  0.1669
 9089W        W28623  16.422   7.587  13.202  0.0668 -0.0664 -0.3069
 9090W        W28624  15.087   4.160  10.923 -0.0778  0.1698 -0.1811
 9091W        W28625   1.321   5.338  10.061  0.1959  0.1711  0.1405
 9092W        W28626   1.620  18.225   1.481  0.0527  0.2938  0.2423
 9093W        W28627  14.177   6.114  11.018 -0.0393 -0.2773  0.1623
 9094W        W28628  17.004  14.786  11.001  0.1015 -0.0020 -0.0233
 9095W        W28629  15.989  17.175  12.901  0.0616 -0.2019 -0.0832
 9096W        W28630  12.019  14.410  14.002 -0.1658 -0.4246 -0.0368
 9097W        W28631  18.088   7.675  11.220  0.2273 -0.2384 -0.0354
 9098W        W28632  18.087   9.793  12.400  0.1294 -0.0670 -0.4434
 9099W        W28633  12.926   4.231   3.752  0.3948  0.0838 -0.0637
 9100W        W28634  10.705   7.665   1.550 -0.2421  0.3329 -0.1734
 9101W        W28635   8.533   8.288   0.172  0.0047 -0.0099  0.0891
 9102W        W28636  16.656   8.157  14.385 -0.0264 -0.0143 -0.0309
 9103W        W28637  14.418  18.547   3.502 -0.0340  0.2676 -0.1457
 9104W        W28638   5.168   3.238   3.819  0.1314 -0.2005 -0.1497
 9105W        W28639   6.397   9.675  12.082  0.0065 -0.3083  0.1549
 9106W        W28640   9.224  14.815  14.823  0.2158  0.0259 -0.0387
 9107W        W28641  13.658   4.880   4.291 -0.1009  0.0609 -0.1912
 9108W        W28642  14.418  15.187  14.695  0.1632 -0.0431 -0.1676
 9109W        W28643  18.879   1.752  12.697 -0.2105  0.0882 -0.2977
 9110W        W28644  10.176   9.864  13.412 -0.2265 -0.2020 -0.3039
 9111W        W28645  14.891  13.840  12.910 -0.3087  0.2066  0.1329
 9112W        W28646  16.558  14.408  12.133 -0.0127  0.1766  0.2889
 9113W        W28647  15.909  15.038  12.721 -0.0464  0.1358 -0.3224
 9114W        W28648   7.912   1.117  13.211 -0.0045 -0.2869 -0.1521
 9115W        W28649  15.526  13.947   3.357  0.0591 -0.2147 -0.0758
 9116W        W28650   3.768  13.735   1.969  0.0338 -0.0153 -0.0509
 9117W        W28651   9.109  14.125   1.093  0.3032  0.3319 -0.2405
 9118W        W28652   1.689  13.361  12.874  0.3483 -0.2035 -0.1191
 9119W        W28653  15.329  17.430   9.721  0.2863  0.4183 -0.0412
 9120W        W28654  13.889   5.101   2.035  0.3051 -0.0786 -0.0288
 9121W        W28655   2.293  19.059   3.397  0.0211 -0.2132 -0.1780
 9122W        W28656  19.019   1.563   2.597 -0.1519 -0.0977 -0.3413
 9123W        W28657  15.912  18.422   5.399  0.6502  0.2390  0.0707
 9124W        W28658   2.269   0.828  14.516  0.1490  0.1313  0.1248
 9125W        W28659   1.859  14.913   2.351 -0.1292 -0.0629 -0.0680
 9126W        W28660   7.170  13.754  10.330  0.2927 -0.0818 -0.2578
 9127W        W28661   9.680  18.765   4.247 -0.0026  0.0108  0.3056
 9128W        W28662  14.171  13.347  11.652  0.1997  0.0548 -0.3506
 9129W        W28663   0.607   5.775  13.342 -0.0938  0.2214 -0.0543
 9130W        W28664   0.820   1.401   2.198  0.2070  0.1609  0.2885
 9131W        W28665   0.764  14.408   2.747  0.0288  0.3370 -0.3603
 9132W        W28666  14.697   3.260  12.777  0.1699  0.6189 -0.0456
 9133W        W28667   2.560   9.710   2.346  0.1975  0.2375  0.2753
 9134W        W28668   7.161  18.649   1.917  0.1912 -0.1944 -0.1614
 9135W        W28669  16.922   4.954   4.995  0.0173  0.1561  0.3365
 9136W        W28670  11.475   8.255  13.374  0.0452 -0.1679 -0.3613
 9137W        W28671   7.332   9.440  12.206  0.3492 -0.1469 -0.1057
 9138W        W28672   2.625   7.138   3.200  0.1414  0.1278 -0.3273
 9139W        W28673  11.026  13.819   2.819 -0.0636  0.0671  0.0646
 9140W        W28674   9.694   1.829   2.002  0.4005 -0.1062  0.1009
 9141W        W28675   9.897  19.083  13.773 -0.0417 -0.0712 -0.1056
 9142W        W28676   9.331   9.134   4.316  0.3796 -0.4336  0.3184
 9143W        W28677   3.316   9.564  13.082 -0.1080 -0.1900  0.0835
 9144W        W28678   9.459   1.411   4.384 -0.2430 -0.1773  0.1636
 9145W        W28679  10.989  12.669   0.412 -0.0244  0.0903 -0.0445
 9146W        W28680  11.720  12.800  13.201 -0.0189  0.0123 -0.0569
 9147W        W28681  11.981   6.557   2.399 -0.0047 -0.2455  0.0097
 9148W        W28682   5.779   7.382  12.800  0.1867  0.4928  0.0942
 9149W        W28683   4.748  13.767   4.128 -0.0048  0.3991  0.0160
 9150W        W28684   2.399   3.438   2.765 -0.1952  0.0332 -0.1435
 9151W        W28685  12.676   4.350   3.151  0.0802 -0.3587 -0.1136
 9152W        W28686   0.952   7.856   1.692  0.1022 -0.0977 -0.0149
 9153W        W28687  12.327   6.579   1.405 -0.1752  0.0171 -0.2836
 9154W        W28688   2.936  10.937  13.956 -0.1001 -0.2621 -0.0107
 9155W        W28689  16.953  11.980   0.941 -0.2437 -0.2780 -0.0327
 9156W        W28690  11.213   5.234  13.221 -0.0516  0.1920  0.0412
 9157W        W28691   5.534   2.916  11.139  0.0831 -0.0280  0.0690
 9158W        W28692   9.107   8.299  10.963 -0.3285  0.0360  0.3805
 9159W        W28693  10.848  13.095  10.701 -0.1595 -0.0293 -0.1540
 9160W        W28694  14.281  11.174   2.217 -0.1876  0.1349  0.0675
 9161W        W28695  18.655  18.720   9.328  0.2261  0.0218  0.3573
 9162W        W28696  15.610   9.484   1.612 -0.2711  0.2079 -0.3849
 9163W        W28697  16.590  17.148   2.578  0.1910  0.2852  0.0107
 9164W        W28698   1.472  11.006  14.470 -0.1941 -0.1833  0.2076
 9165W        W28699   0.642  16.027  11.865 -0.0230  0.0796 -0.1784
 9166W        W28700   0.717  13.868   3.957  0.0711 -0.0211 -0.1541
 9167W        W28701  19.041  10.660  13.371 -0.0572 -0.1525  0.1656
 9168W        W28702   5.899   3.897   0.979  0.0622  0.4148 -0.0632
 9169W        W28703  16.746  12.755   1.137 -0.1114 -0.2208 -0.1126
 9170W        W28704   9.780   6.904   3.674 -0.0048 -0.3134  0.0211
 9171W        W28705   5.881   3.245  14.663 -0.1142  0.1645 -0.1884
 9172W        W28706  15.442   2.795  13.757 -0.0129  0.1958 -0.2449
 9173W        W28707  13.256  19.117  13.577  0.3111 -0.1372  0.0746
 9174W        W28708  18.127   7.795   0.777  0.0238  0.2372 -0.0827
 9175W        W28709   7.471  14.071  13.919 -0.2209  0.0051 -0.0773
 9176W        W28710  17.674  14.381   1.727  0.1324 -0.0349  0.0016
 9177W        W28711   2.494  14.549  11.607 -0.2592 -0.1068  0.0783
 9178W        W28712   9.498  18.568   3.183 -0.2950  0.0448  0.2003
 9179W        W28713  18.633   9.652   1.010 -0.1626 -0.1302  0.2015
 9180W        W28714   3.473  11.416   4.748  0.1143  0.3990 -0.0694
 9181W        W28715  15.545   0.664   1.471 -0.2577  0.1738 -0.0365
 9182W        W28716   3.068   6.554   1.548  0.1359 -0.4797  0.1530
 9183W        W28717   8.925   7.554   4.207 -0.1075 -0.2024  0.2449
 9184W        W28718   6.150  17.282  11.037 -0.1691  0.3222  0.2166
 9185W        W28719   0.275   1.792  11.788  0.1598 -0.2194  0.0525
 9186W        W28720  10.222   3.279  12.125  0.0876 -0.2844  0.0764
 9187W        W28721   7.590  11.144   2.775  0.1374 -0.0456  0.0634
 9188W        W28722   4.508   4.993  10.727 -0.5210  0.1516 -0.1127
 9189W        W28723  18.418  11.143  10.839 -0.6536 -0.2645  0.2443
 9190W        W28724  15.420   9.360   2.170 -0.2134 -0.1071 -0.0015
 9191W        W28725   8.637   0.630   4.019 -0.1565  0.0945  0.1730
 9192W        W28726  12.480   1.793  13.305 -0.0707  0.2572 -0.0039
 9193W        W28727   7.905  13.919  12.656 -0.3106  0.0043  0.0466
 9194W        W28728   6.335   3.475   1.584 -0.0519  0.0372  0.3623
 9195W        W28729  13.590   4.554   9.952 -0.1924 -0.0146  0.0007
 9196W        W28730  14.934   9.328  11.516 -0.0820 -0.1713 -0.0040
 9197W        W28731  12.098   2.676  14.282  0.2980 -0.0199  0.1134
 9198W        W28732  16.074  15.465   2.022  0.2976 -0.1826 -0.1172
 9199W        W28733   0.354  10.067   1.901  0.5309  0.4557  0.0542
 9200W        W28734  15.026  12.107  10.560  0.2600 -0.2619  0.0773
 9201W        W28735   3.273  16.354   0.299  0.0541 -0.0548  0.0136
 9202W        W28736  13.192   0.709   0.529  0.0864  0.0742  0.0558
 9203W        W28737  18.971  17.992  12.816  0.0958 -0.4159 -0.0099
 9204W        W28738  14.620   9.711   4.439  0.2779 -0.0005 -0.4518
 9205W        W28739  16.228   2.305  13.385  0.2220 -0.1217 -0.0694
 9206W        W28740   6.963  17.505   2.224  0.0466  0.0678 -0.0559
 9207W        W28741   1.274   1.969   9.607  0.1476 -0.0829 -0.1539
 9208W        W28742  12.258  16.551   3.003  0.0614 -0.0449  0.0375
 9209W        W28743   4.845   0.111   4.245 -0.4258 -0.0183 -0.1325
 9210W        W28744   0.675  11.563  11.948  0.1351  0.1640  0.0305
 9211W        W28745  18.020   8.076  11.851 -0.1260 -0.0365  0.0485
 9212W        W28746  18.375  18.642  11.914 -0.0367  0.1545 -0.4237
 9213W        W28747  13.938   6.309  13.299  0.0273  0.0070  0.2403
 9214W        W28748  15.252  18.360  13.597  0.0142  0.0064 -0.0166
 9215W        W28749   0.866   0.269   3.007  0.0928 -0.0732 -0.0349
 9216W        W28750   5.488   0.267   1.165  0.2573 -0.0555  0.1533
 9217W        W28751   0.506   7.871   1.446  0.3194 -0.1013 -0.0382
 9218W        W28752   9.485  17.872  13.829 -0.3175 -0.1335  0.1185
 9219W        W28753   5.223   7.219   0.201 -0.2657 -0.0775 -0.0249
 9220W        W28754   4.314   9.022   0.087 -0.1083  0.2529  0.1345
 9221W        W28755   4.423   2.799   1.488  0.1254 -0.1505 -0.3184
 9222W        W28756   3.573   7.782  14.578 -0.0019 -0.0122 -0.2633
 9223W        W28757   6.310   1.531   3.627 -0.0160  0.1736  0.1472
 9224W        W28758   4.770  10.307   0.118  0.0405  0.6208 -0.4421
 9225W        W28759  19.020   1.212  14.500 -0.1284  0.3013  0.1461
 9226W        W28760  11.760   7.306   3.164 -0.2454 -0.0238 -0.2577
 9227W        W28761   7.869   0.229  12.138  0.0382  0.3362  0.2005
 9228W        W28762  10.780  14.822  12.327  0.2839 -0.0279  0.0194
 9229W        W28763  13.495  13.692   1.711 -0.0560  0.0852  0.1107
 9230W        W28764   5.030   7.922  11.842  0.2203 -0.0684  0.0551
 9231W        W28765  10.846  13.420   1.611  0.0131  0.0994 -0.1640
 9232W        W28766   0.441  16.106  12.868 -0.1134 -0.0722  0.3089
 9233W        W28767   6.505  15.034  13.859 -0.0735 -0.0109 -0.1900
 9234W        W28768  14.318   3.186   4.018  0.3592  0.1446 -0.2171
 9235W        W28769  11.099   9.916   1.004 -0.1024  0.1171  0.0148
 9236W        W28770  13.014   0.858   1.199 -0.0089  0.0156  0.2185
 9237W        W28771   8.419   5.245   3.966  0.0756  0.1194 -0.0444
 9238W        W28772   8.234   9.794  14.458 -0.0382 -0.2171  0.1248
 9239W        W28773  15.413   8.706   1.402  0.3904 -0.0332  0.0564
 9240W        W28774  14.041   6.115  11.508  0.0138 -0.0225 -0.0040
 9241W        W28775   0.829  15.748   1.233  0.1014 -0.1826  0.3693
 9242W        W28776  17.145  14.741  13.033 -0.0267  0.0124  0.0185
 9243W        W28777  12.602   5.135  14.267  0.0131 -0.0230  0.1919
 9244W        W28778  17.205   7.661  10.315  0.0558 -0.0299 -0.1501
 9245W        W28779   4.940  13.134   0.893  0.1515  0.0879  0.0460
 9246W        W28780   1.543  14.582   0.986 -0.1483 -0.4822  0.2028
 9247W        W28781   9.361  14.626   3.671  0.0994  0.3058  0.0319
 9248W        W28782   4.948  14.345   3.234 -0.0974 -0.2693 -0.0422
 9249W        W28783  18.274   0.166  11.191  0.0903 -0.0088 -0.1881
 9250W        W28784   5.661  11.347  10.612  0.1614 -0.0911 -0.1601
 9251W        W28785  10.501   5.634   1.125  0.0624 -0.0791  0.0158
 9252W        W28786  14.062   9.235  12.848 -0.3742 -0.0270  0.0741
 9253W        W28787   2.983   1.527   1.819  0.3042  0.1908 -0.2884
 9254W        W28788   9.308   4.027   1.109  0.2445  0.0346 -0.1182
 9255W        W28789   4.702  10.493  11.955  0.0433 -0.1383  0.4974
 9256W        W28790   8.954   4.889   0.605  0.0267 -0.0135 -0.0585
 9257W        W28791   1.601  11.373   0.015  0.1835  0.2175  0.2293
 9258W        W28792  11.987   5.616   0.382  0.1685 -0.3684  0.1017
 9259W        W28793   1.397   6.709   2.234  0.2487  0.0026  0.1229
 9260W        W28794   6.164  16.371   1.409 -0.1994  0.0667  0.3610
 9261W        W28795   6.443   1.302  11.176 -0.2813  0.4208  0.0985
 9262W        W28796  11.317  12.366   0.727  0.4077 -0.1217 -0.0764
 9263W        W28797   5.943   1.668   2.152  0.2051 -0.1549 -0.0530
 9264W        W28798   7.010   1.459  13.564  0.2775 -0.0039 -0.0791
 9265W        W28799   3.330   3.984   1.906 -0.2653  0.0501  0.3677
 9266W        W28800   2.612   9.888  10.632  0.2912 -0.1588  0.1919
 9267W        W28801   6.649  14.511  11.439  0.5276 -0.0475 -0.2260
 9268W        W28802   1.068  17.051   1.128 -0.0430 -0.0943  0.0622
 9269W        W28803   4.453   7.471  11.320 -0.1136 -0.1576  0.1942
 9270W        W28804  15.052   4.263   2.155 -0.0959  0.1950 -0.2807
 9271W        W28805   7.759  13.108   3.046 -0.1657  0.2720 -0.3093
 9272W        W28806   2.606  11.600   1.681 -0.2127 -0.1909 -0.0633
 9273W        W28807  13.692   1.947  11.966  0.0685 -0.1179  0.3217
 9274W        W28808   9.772   1.035  10.874  0.3071  0.2670  0.0198
 9275W        W28809   5.781  15.157  13.161 -0.0557  0.0835  0.2300
 9276W        W28810   5.872   4.254  11.101 -0.1297 -0.1025 -0.0050
 9277W        W28811  14.678   8.034  13.776 -0.1992 -0.2805 -0.0772
 9278W        W28812  10.023  16.012  12.406 -0.1454  0.1578  0.0803
 9279W        W28813   0.904   5.027  12.036  0.3296 -0.1937  0.1498
 9280W        W28814  16.103  16.276  10.130 -0.2653  0.0065  0.1571
 9281W        W28815  11.093   8.390  12.310 -0.1298  0.2526 -0.1761
 9282W        W28816   5.413  16.241   2.104 -0.4886  0.1481 -0.2594
 9283W        W28817  10.153  11.864   3.632 -0.1194 -0.0519 -0.2940
 9284W        W28818   6.504  10.409   3.025  0.1236  0.0003 -0.1422
 9285W        W28819   5.806   8.695   0.981  0.2233 -0.4126 -0.0359
 9286W        W28820  15.830  10.334   0.513 -0.1507 -0.4131 -0.3879
 9287W        W28821  15.873   4.264  13.572 -0.1620 -0.1038  0.3054
 9288W        W28822  18.657   3.416   1.632 -0.1588  0.0347 -0.1056
 9289W        W28823   8.209  15.174  12.722 -0.1103  0.1109 -0.0301
 9290W        W28824   7.642   3.062  14.559 -0.3096  0.0963  0.0237
 9291W        W28825   9.045   2.495  10.522 -0.2023 -0.0375 -0.4467
 9292W        W28826   5.130   1.130   0.578  0.1949  0.0195  0.1833
 9293W        W28827   6.398  17.297  13.732 -0.3981  0.1158  0.0763
 9294W        W28828   8.450  10.225   0.822  0.0470 -0.0690  0.0498
 9295W        W28829   6.924   8.385  12.007 -0.0397 -0.0590 -0.3502
 9296W        W28830   9.317   3.976   4.177  0.1437  0.0308  0.2602
 9297W        W28831  13.349  11.573   5.050  0.0110  0.2952  0.1853
 9298W        W28832   3.847  14.816   1.207 -0.0134  0.1278 -0.1062
 9299W        W28833  10.066  17.627   2.226  0.1075  0.0183  0.3438
 9300W        W28834   5.678   0.728   2.662  0.1914 -0.1762 -0.1998
 9301W        W28835   3.262   2.859  13.922  0.1394  0.0109 -0.1723
 9302W        W28836  13.734  13.739   3.701 -0.1256 -0.3296 -0.0445
 9303W        W28837   2.608  12.567  14.523 -0.3117 -0.1053  0.0062
 9304W        W28838  16.685  13.824  12.895 -0.1180  0.0889 -0.1247
 9305W        W28839   9.386   1.524  13.874  0.2231  0.2761 -0.2293
 9306W        W28840  15.762  15.829  11.900  0.2550  0.1293 -0.1345
 9307W        W28841   1.649  16.084   4.153 -0.1964 -0.1592  0.0690
 9308W        W28842   6.355  14.966   2.129 -0.0334 -0.1780 -0.1114
 9309W        W28843   1.356  13.127   5.304  0.0193 -0.1737  0.0966
 9310W        W28844   1.070  11.488  13.250  0.0497  0.1050 -0.1406
 9311W        W28845  12.207  10.563  13.778 -0.1445  0.0202  0.2089
 9312W        W28846  11.042  13.779  14.484  0.1153  0.1233  0.0888
 9313W        W28847   7.479  14.170  11.579 -0.5513  0.1117  0.3064
 9314W        W28848   7.364   5.701  12.569 -0.1568  0.2246 -0.0056
 9315W        W28849   7.367  18.808  12.954 -0.3154 -0.1172  0.2734
 9316W        W28850  10.790  15.822   2.158 -0.0712  0.2090 -0.1586
 9317W        W28851  14.084   3.563   4.283  0.2100 -0.1159  0.0148
 9318W        W28852   7.759  18.766  13.290 -0.1103 -0.3908  0.2110
 9319W        W28853   5.252   9.384   1.315  0.0122 -0.0941 -0.3538
 9320W        W28854   6.558   3.092   4.571  0.1339 -0.3815 -0.2449
 9321W        W28855   2.270  16.890  12.057 -0.0507 -0.0611 -0.1577
 9322W        W28856  15.645  16.031   0.166 -0.1930 -0.1721 -0.3308
 9323W        W28857  18.980  11.819  14.790 -0.1476 -0.3842  0.2229
 9324W        W28858  10.982   3.514   0.542 -0.0776 -0.1555 -0.0593
 9325W        W28859   6.635   8.497   1.254 -0.2564 -0.1331 -0.4206
 9326W        W28860   4.113   4.804  14.531 -0.0699  0.0765  0.3093
 9327W        W28861   5.817   5.286   0.352  0.1273  0.3519 -0.2361
 9328W        W28862  17.628   8.988  10.289  0.0584  0.0816  0.1497
 9329W        W28863  15.524   9.697  14.212  0.1702 -0.0167  0.1199
 9330W        W28864  13.571  19.058   9.734  0.2366 -0.0765  0.1913
 9331W        W28865  15.015  18.015  12.500  0.0110 -0.1780  0.2251
 9332W        W28866  17.102   8.779  10.457  0.2358 -0.1171  0.1383
 9333W        W28867   1.156   0.302  13.608  0.1468  0.0467 -0.0278
 9334W        W28868  18.693  12.428  12.135 -0.0102  0.1402 -0.1828
 9335W        W28869  13.984   3.831  13.195  0.0505  0.1334 -0.1439
 9336W        W28870  13.231   9.757   4.193  0.1307  0.2528  0.0812
 9337W        W28871   2.473   7.647   1.025  0.2585 -0.1421 -0.1915
 9338W        W28872  16.091   0.948  11.312 -0.0981 -0.3620 -0.1032
 9339W        W28873   6.712   8.454  13.023 -0.2244 -0.4293 -0.0814
 9340W        W28874   7.999   5.580  11.636  0.1169  0.1807  0.1665
 9341W        W28875   1.900   0.649   3.150 -0.2506  0.1489  0.3486
 9342W        W28876   9.030   8.063   2.923  0.0181 -0.1694 -0.0702
 9343W        W28877   7.756   6.932  13.214  0.2821  0.1804  0.2554
 9344W        W28878   0.632  15.051  13.199  0.3137 -0.2427  0.1075
 9345W        W28879  10.680   5.624   3.547  0.2916 -0.0187 -0.0014
 9346W        W28880   5.291   3.107   0.727  0.1290  0.0739  0.5209
 9347W        W28881  14.594   5.368  10.290 -0.4705 -0.0116 -0.0731
 9348W        W28882   5.920  18.658  13.995 -0.1071 -0.1289 -0.2029
 9349W        W28883   5.200   4.513   3.013 -0.0724  0.0232 -0.0816
 9350W        W28884   9.283  13.029   0.168  0.1030  0.0506 -0.1132
 9351W        W28885   4.424  18.057   4.342 -0.1692 -0.0453  0.1081
 9352W        W28886   0.695   9.526  12.772 -0.1754 -0.0968 -0.0610
 9353W        W28887   5.057   4.876  11.273 -0.1363 -0.0895 -0.2107
 9354W        W28888   0.113  10.960  11.392 -0.2059  0.0955 -0.1443
 9355W        W28889   3.640   0.525  13.776 -0.1306 -0.0752 -0.0470
 9356W        W28890   1.842   4.573  11.872 -0.1863 -0.1227 -0.0092
 9357W        W28891   0.812   2.621   3.569 -0.0043  0.0441  0.0525
 9358W        W28892   9.238  12.348   1.046  0.2018 -0.1693  0.0013
 9359W        W28893  16.408   0.079  11.715 -0.0259  0.0036  0.1474
 9360W        W28894  13.152  18.342  14.758 -0.1482  0.3260  0.1869
 9361W        W28895  18.361  10.617   0.564  0.1660 -0.1545 -0.0190
 9362W        W28896  11.061   8.672   2.996 -0.1191  0.2482 -0.1137
 9363W        W28897   3.520   8.513   0.934  0.1225 -0.0008  0.3106
 9364W        W28898   8.120  17.541  13.269  0.1057  0.0325  0.0533
 9365W        W28899   1.043  12.613   1.433  0.1827  0.4353  0.2309
 9366W        W28900   5.757   2.396   5.166  0.0885  0.1736 -0.1634
 9367W        W28901  14.216   6.973   2.937  0.1040 -0.2867 -0.3333
 9368W        W28902  16.610  16.284  14.469 -0.3261  0.0999 -0.0207
 9369W        W28903   4.761   9.096  13.277 -0.0810 -0.1510 -0.2434
 9370W        W28904  11.792  14.554  14.413 -0.1550  0.1804 -0.2645
 9371W        W28905   3.422   7.993   2.813  0.0169 -0.1278 -0.1256
 9372W        W28906   6.832   4.295   2.706  0.2338  0.1624 -0.1216
 9373W        W28907   5.206  11.780  11.917  0.3100  0.2101 -0.1303
 9374W        W28908  17.437  13.472  13.906 -0.1348 -0.2901 -0.0268
 9375W        W28909  13.669   4.809  12.071  0.1291 -0.1589  0.0356
 9376W        W28910  11.736   4.111   0.872 -0.0930  0.0252 -0.0663
 9377W        W28911   8.889   2.260   2.298 -0.0512  0.2531 -0.0324
 9378W        W28912   3.644   1.073   3.229 -0.2607  0.1060 -0.2789
 9379W        W28913  18.219   6.437   0.524  0.0816 -0.2756 -0.0346
 9380W        W28914   7.564   1.721   3.408 -0.0819  0.2316  0.3235
 9381W        W28915   4.630   6.671  12.382 -0.0287  0.1507  0.0873
 9382W        W28916   8.675  15.023   0.983  0.0493 -0.2244 -0.4369
 9383W        W28917   8.297   1.025  12.501 -0.0928  0.1284  0.0852
 9384W        W28918  18.226   9.669   4.635 -0.1031 -0.0962  0.0691
 9385W        W28919   2.222   5.002  11.764 -0.1217  0.2318 -0.0371
 9386W        W28920   3.605   9.714  12.082 -0.2432 -0.2318 -0.0691
 9387W        W28921   0.176  17.067   2.056  0.3237 -0.0569  0.3834
 9388W        W28922  11.419   9.271  11.840 -0.3169 -0.1552  0.0788
 9389W        W28923  14.645   9.695   1.342  0.0970 -0.1533  0.2954
 9390W        W28924   8.857  14.294  14.253 -0.0523  0.1587 -0.1195
 9391W        W28925   5.506   9.472  12.198  0.0375 -0.1031 -0.1895
 9392W        W28926   9.541   6.138  13.174  0.0027  0.3402  0.1942
 9393W        W28927  16.972   2.396   0.619 -0.0588  0.0116 -0.3297
 9394W        W28928   8.388   8.672   0.471  0.2082  0.1559 -0.2373
 9395W        W28929  12.629   3.826  10.904  0.0202  0.1021 -0.0377
 9396W        W28930  14.707  14.547   3.587 -0.2310 -0.1093  0.1648
 9397W        W28931   2.596   6.499   3.743  0.2393 -0.0856 -0.0774
 9398W        W28932   9.508  10.053  11.123  0.2396 -0.2773 -0.1782
 9399W        W28933   3.909  11.541  12.599  0.0727  0.1862  0.2271
 9400W        W28934   2.952  14.777  14.783 -0.0063 -0.0201 -0.0395
 9401W        W28935  15.560  14.968   0.103  0.0359 -0.2785  0.1202
 9402W        W28936  18.314  17.921  14.417  0.4273  0.1061 -0.1372
 9403W        W28937  14.224   6.700   1.851 -0.0054 -0.1829  0.3089
 9404W        W28938   1.643  10.652  11.942 -0.1451  0.2240  0.2700
 9405W        W28939   1.311   1.837  11.166  0.1349  0.1107 -0.2182
 9406W        W28940   4.763   9.291  11.312  0.1173  0.2191 -0.0290
 9407W        W28941   0.682   4.441   9.375 -0.0458  0.1613  0.1537
 9408W        W28942  14.335   6.184   3.423  0.2656 -0.0905 -0.2072
 9409W        W28943   0.273  15.349  14.638 -0.1139 -0.1442 -0.1054
 9410W        W28944  13.136  11.068  11.525  0.1736  0.1385  0.1254
 9411W        W28945   5.477  15.320   0.268 -0.0803  0.2229 -0.1015
 9412W        W28946   5.326   9.312  14.051  0.0860 -0.0281 -0.0516
 9413W        W28947   0.396  10.559  12.230 -0.1277  0.0506  0.0235
 9414W        W28948   4.248   3.698   3.190 -0.1196  0.3022  0.1485
 9415W        W28949  15.904   4.435  12.367  0.1498 -0.0819 -0.0490
 9416W        W28950  11.497  14.558   0.504 -0.2280  0.1114  0.0369
 9417W        W28951  14.088  10.683  11.775 -0.0427  0.0921  0.0896
 9418W        W28952   2.285  18.832   3.970  0.1042  0.1591  0.3375
 9419W        W28953  10.146  10.950   3.514  0.2507  0.0763 -0.2047
 9420W        W28954  15.567  10.468   2.313 -0.1316  0.1428  0.0223
 9421W        W28955  16.355  17.772   1.903  0.0595 -0.0341 -0.5426
 9422W        W28956   1.397  11.019   0.697 -0.1117  0.3117 -0.4439
 9423W        W28957   9.886  13.655   2.852  0.1146  0.2175  0.1401
 9424W        W28958   9.758   7.831   3.572 -0.0365 -0.0719 -0.1165
 9425W        W28959   1.615   4.510   1.385  0.1297  0.2397 -0.2799
 9426W        W28960  18.256   3.039  11.165 -0.0699  0.0959  0.6518
 9427W        W28961  14.830  18.002  11.700 -0.1480 -0.2210  0.0691
 9428W        W28962   3.000   4.344   3.144  0.4586  0.0592 -0.0159
 9429W        W28963  11.983   5.503  12.897  0.2299 -0.1136  0.0478
 9430W        W28964  12.870  10.043   3.584  0.2031 -0.1814  0.0709
 9431W        W28965  16.237  12.580   1.207  0.0548 -0.0278  0.3033
 9432W        W28966  13.266  15.629  13.701  0.0172 -0.0348  0.1978
 9433W        W28967  18.683  10.821   3.426 -0.2735 -0.1429 -0.0669
 9434W        W28968   6.068   3.918  14.202 -0.2088  0.1989  0.3385
 9435W        W28969   5.673   8.258   0.886 -0.2549  0.4641 -0.1261
 9436W        W28970   2.464   1.480  10.372  0.0413  0.2814 -0.2704
 9437W        W28971   2.638  13.128   0.997  0.0505  0.2944 -0.1504
 9438W        W28972   5.047   9.523   4.414 -0.2676  0.1569  0.0054
 9439W        W28973   1.408   0.170   3.793 -0.1228  0.0631  0.0851
 9440W        W28974   1.759  12.243   0.131 -0.0486  0.0775 -0.0738
 9441W        W28975   4.817  18.017   1.112 -0.1738  0.0841 -0.2675
 9442W        W28976   8.527  16.371  13.369  0.1934 -0.0885  0.2636
 9443W        W28977   0.486   1.798   3.471  0.0858  0.0112 -0.1683
 9444W        W28978  17.105   5.613   2.271 -0.1561 -0.0977 -0.0526
 9445W        W28979  15.515  12.765   5.211  0.0200 -0.1077 -0.0595
 9446W        W28980  14.083  16.329   3.740 -0.0807 -0.1416  0.1171
 9447W        W28981   0.458   6.679   0.793 -0.2899  0.2231 -0.1072
 9448W        W28982   2.292   5.882   1.519  0.2215  0.1338  0.0834
 9449W        W28983   7.070  16.803  11.155  0.2804 -0.3081 -0.2553
 9450W        W28984  10.430   8.132   1.493 -0.0490 -0.1690  0.1274
 9451W        W28985  16.485   0.584   4.721  0.0668 -0.1242 -0.0673
 9452W        W28986  15.413   5.124   1.799  0.1408 -0.0676  0.1288
 9453W        W28987   5.774   3.668   3.258  0.2768 -0.0977 -0.5098
 9454W        W28988  10.413   6.416   3.109 -0.0378 -0.1808  0.0665
 9455W        W28989  16.502   0.479  11.353  0.0767  0.0402 -0.2637
 9456W        W28990  12.478  14.533   1.013 -0.1797  0.1727 -0.0326
 9457W        W28991   9.553   3.785  11.666  0.0031 -0.3693 -0.0145
 9458W        W28992   8.605   0.791  14.782 -0.0731 -0.0017  0.0202
 9459W        W28993  14.203   3.177  10.881  0.1280 -0.0559 -0.1117
 9460W        W28994   0.616   2.695   2.156  0.2450  0.1478 -0.1561
 9461W        W28995   8.934   7.792  10.998  0.1705  0.0332 -0.2976
 9462W        W28996   4.925   0.313  14.772  0.2137  0.0943 -0.2811
 9463W        W28997   7.088   5.245   3.893 -0.1522 -0.1080 -0.1035
 9464W        W28998   5.016   6.048   2.532 -0.1351 -0.1011  0.0507
 9465W        W28999  11.928   4.921  11.666  0.0446 -0.1247 -0.1243
 9466W        W29000   9.733  17.988  13.366  0.6019 -0.3859 -0.2193
 9467W        W29001   3.890  14.204  14.201  0.2980  0.0410  0.4107
 9468W        W29002  18.723  18.855  12.364  0.2169  0.0316  0.0184
 9469W        W29003   2.109  14.961   3.741 -0.0265 -0.3134  0.2062
 9470W        W29004   4.811  10.009   2.988 -0.4294 -0.2362 -0.3700
 9471W        W29005   1.028   1.985   4.090  0.1535 -0.2013 -0.1186
 9472W        W29006   2.258  15.913   3.166 -0.0033 -0.0015 -0.2225
 9473W        W29007  14.702   7.292  12.061 -0.0584  0.1420  0.0710
 9474W        W29008   0.541   3.759  13.272  0.2543  0.0301 -0.0268
 9475W        W29009  12.324   3.839  13.814 -0.1486 -0.2264  0.4653
 9476W        W29010   9.329   0.867  10.989  0.4206 -0.2110  0.0219
 9477W        W29011   1.734   5.347   0.239  0.3821 -0.0952  0.3124
 9478W        W29012   3.388   7.009  11.228 -0.1659  0.1746  0.2268
 9479W        W29013   1.173  13.320   4.160 -0.1004  0.2093 -0.1000
 9480W        W29014   5.916   4.381   3.445  0.1809  0.1187  0.0208
 9481W        W29015  15.161  17.727   0.465 -0.1224 -0.1395  0.0704
 9482W        W29016   6.013  14.909   1.760 -0.0999  0.0792 -0.1363
 9483W        W29017   5.456   0.513   1.645 -0.0468  0.0416  0.2375
 9484W        W29018   7.144   8.821   0.432 -0.2244 -0.1031 -0.0624
 9485W        W29019   0.567   6.716  10.964  0.3184  0.1934 -0.4391
 9486W        W29020  17.850   4.219  14.703  0.0806 -0.0320  0.1659
 9487W        W29021   0.481  12.323  12.436 -0.0737  0.0341  0.0391
 9488W        W29022   9.281   4.799   2.600 -0.0816  0.0837 -0.0538
 9489W        W29023  17.163  16.303  10.783 -0.0120  0.2823 -0.1594
 9490W        W29024  13.783   7.609  12.136 -0.0796 -0.2235 -0.0532
 9491W        W29025   8.527  11.691  14.283 -0.0443  0.0419 -0.2292
 9492W        W29026  11.748  14.928  12.749  0.0276 -0.0884 -0.0872
 9493W        W29027  10.689   8.538   4.529 -0.0749  0.0892 -0.5131
 9494W        W29028  17.329  16.375  13.403 -0.0679 -0.0970  0.2922
 9495W        W29029  10.120   1.426   0.975 -0.3482  0.0873 -0.0977
 9496W        W29030   7.669   4.207   0.938  0.3634 -0.0933  0.0478
 9497W        W29031  14.834   6.115   2.145 -0.1143 -0.1715  0.0806
 9498W        W29032   7.317   8.763  13.538  0.0654 -0.0312 -0.3042
 9499W        W29033   1.608   7.909   1.787  0.0376  0.0005 -0.3144
 9500W        W29034  12.863  10.110  10.647  0.1212 -0.2856 -0.1164
 9501W        W29035  12.174   5.236  14.608 -0.2198  0.0902 -0.4122
 9502W        W29036   6.215   7.729   0.868 -0.1751 -0.0057  0.0206
 9503W        W29037   0.231  15.726  11.852  0.1727 -0.0431 -0.0613
 9504W        W29038   3.876   9.118  10.678  0.0458 -0.2644 -0.1353
 9505W        W29039   9.931   1.426  13.525  0.3841 -0.1619  0.0228
 9506W        W29040   1.840   8.918   1.727  0.1369 -0.2939  0.0231
 9507W        W29041  15.247   0.815  13.192 -0.1600 -0.0891  0.0615
 9508W        W29042   8.800   9.042   3.559 -0.0615  0.2408  0.1026
 9509W        W29043   3.002   4.649   1.705  0.3707 -0.1997  0.0495
 9510W        W29044  10.570   9.574  13.674 -0.2889 -0.0280 -0.1121
 9511W        W29045   2.460   2.539   2.991  0.0131  0.5243  0.0926
 9512W        W29046  17.062   6.978   1.171  0.5458 -0.1053 -0.0168
 9513W        W29047   6.267   2.282  14.197 -0.1635 -0.1487  0.2527
 9514W        W29048   4.732   7.064   0.129  0.1082  0.2426 -0.0598
 9515W        W29049  14.798   7.179  12.576 -0.2223 -0.1933  0.0033
 9516W        W29050   4.125  13.208   3.568  0.2499 -0.2870  0.1508
 9517W        W29051  17.156   9.620   3.504  0.1535 -0.4221 -0.1599
 9518W        W29052  11.602  16.987  11.418 -0.1878 -0.1699  0.1352
 9519W        W29053   9.099  18.008   3.948 -0.0026 -0.2029  0.0676
 9520W        W29054   9.646   0.495  12.028  0.1091  0.2055  0.3329
 9521W        W29055   9.229  18.464   4.150  0.0494 -0.0012  0.0831
 9522W        W29056  13.103   1.218  14.786  0.2309 -0.1287  0.3266
 9523W        W29057   6.619  16.052  11.068  0.1939  0.0010  0.1776
 9524W        W29058  14.591   3.477   2.567  0.1348 -0.3769  0.0015
 9525W        W29059   2.987   6.863   0.335 -0.0577  0.4160 -0.0199
 9526W        W29060   3.326   5.434  12.515 -0.0145 -0.2204  0.0719
 9527W        W29061   3.088  18.991  10.943  0.2307  0.0818  0.0811
 9528W        W29062  13.799   2.555  13.437  0.1308  0.0691  0.0120
 9529W        W29063   0.065  13.573   2.634 -0.1406 -0.1218 -0.0101
 9530W        W29064  17.524  11.050  11.577 -0.2095  0.2191 -0.2866
 9531W        W29065   3.637   7.545  12.719  0.1733 -0.1565  0.0895
 9532W        W29066   0.129   3.193  14.189 -0.0479 -0.1044 -0.1915
 9533W        W29067   8.388   1.976   3.438  0.0799  0.1063 -0.0289
 9534W        W29068  18.749   5.813   1.710 -0.2708  0.2788 -0.1715
 9535W        W29069  13.488   3.106   0.673  0.1631 -0.0273 -0.0087
 9536W        W29070   9.434  11.636   0.384  0.0064 -0.1696 -0.2263
 9537W        W29071   1.650  11.632  12.196  0.3409  0.3937  0.1824
 9538W        W29072   9.239  14.657   1.795 -0.1672  0.0549 -0.1116
 9539W        W29073  13.636  16.216  14.052 -0.0306  0.0712  0.0603
 9540W        W29074  16.550   0.687   0.861  0.0499 -0.1706 -0.2907
 9541W        W29075  17.906  13.198  10.978  0.3057  0.1778  0.0672
 9542W        W29076  14.846  13.837   4.195 -0.2458 -0.1277 -0.0340
 9543W        W29077  17.572  17.563  12.013 -0.2649 -0.0205  0.1182
 9544W        W29078   1.456   0.572   1.115 -0.0829  0.1751  0.1333
 9545W        W29079  15.073   6.863   0.732  0.0659 -0.0389 -0.0902
 9546W        W29080   6.286   9.853  11.654 -0.1945 -0.1308  0.2555
 9547W        W29081   9.174  10.620   4.048  0.0337 -0.1326  0.2060
 9548W        W29082   9.589   8.391   0.409  0.0654 -0.3466 -0.2288
 9549W        W29083  14.758   2.198   2.822 -0.0260 -0.1464  0.0091
 9550W        W29084  18.048   0.395  14.418  0.3570 -0.2012 -0.2267
 9551W        W29085  11.639  11.348   2.134 -0.0437  0.0763 -0.0480
 9552W        W29086  18.293   5.751  12.890 -0.2311  0.1981 -0.0423
 9553W        W29087  10.588  17.176   0.703 -0.0269  0.3252  0.2904
 9554W        W29088   4.911   9.833  10.877 -0.1477 -0.0255  0.1926
 9555W        W29089   0.385  10.496   3.524 -0.0797  0.1912 -0.1850
 9556W        W29090  12.343  16.032  11.719 -0.1478  0.2568  0.2638
 9557W        W29091   3.822  17.974  11.425  0.0094  0.0518  0.1363
 9558W        W29092   4.290  14.400   0.540  0.2647  0.0334 -0.2438
 9559W        W29093   6.789   3.348  14.680  0.2212 -0.0122 -0.1580
 9560W        W29094   7.805   5.058   2.623  0.2406  0.0131 -0.0302
 9561W        W29095   9.661   6.283  10.951 -0.0800 -0.0126 -0.2283
 9562W        W29096  15.138   1.732  12.788 -0.1282  0.1116  0.2505
 9563W        W29097  10.243   1.874  11.297  0.2995 -0.1970 -0.0311
 9564W        W29098  17.025   7.455   3.469 -0.0157  0.1467  0.1158
 9565W        W29099   7.293   6.606  14.396 -0.4137  0.0431  0.5946
 9566W        W29100   3.132  17.186  12.308 -0.1032  0.1919 -0.1146
 9567W        W29101  11.930   5.199  12.497 -0.0643 -0.1699 -0.1177
 9568W        W29102  12.787   2.368   4.868  0.1544 -0.0159  0.2333
 9569W        W29103  14.120   7.553   2.720 -0.0484 -0.0605  0.1660
 9570W        W29104   0.318  12.716   2.206 -0.0393  0.0925  0.0330
 9571W        W29105  13.804   3.481  12.736  0.1859  0.1776 -0.1358
 9572W        W29106   4.550  10.096   1.218  0.1108  0.1836  0.0490
 9573W        W29107   9.643   7.233  12.456  0.2239 -0.1704 -0.6350
 9574W        W29108  10.138  14.123  12.392 -0.0045 -0.0220 -0.0731
 9575W        W29109  12.118  11.224  11.759 -0.0268  0.2594 -0.1552
 9576W        W29110  18.560   0.562   3.347  0.0318  0.2692  0.2213
 9577W        W29111   8.837  19.109  13.703 -0.0101  0.0270 -0.2294
 9578W        W29112  16.656  11.912   2.219  0.1479 -0.0302  0.0497
 9579W        W29113  13.009  11.644  14.408 -0.3272  0.4160 -0.1274
 9580W        W29114   8.064  18.103  14.166 -0.2669 -0.1651  0.1055
 9581W        W29115   2.076  17.956   1.165 -0.2348 -0.2344  0.1249
 9582W        W29116   8.187  18.262  10.469  0.1328  0.0926 -0.0421
 9583W        W29117  10.030  18.207  11.463  0.1961  0.0920 -0.0735
 9584W        W29118   0.324  10.088   0.524  0.0607 -0.1391  0.0264
 9585W        W29119   8.478   6.066   0.072  0.0462 -0.2799  0.2072
 9586W        W29120  12.770  10.697  12.208 -0.0064 -0.0599  0.1160
 9587W        W29121   5.123   5.643   1.668 -0.0889 -0.1736 -0.0284
 9588W        W29122   1.761  13.889   2.423  0.0359  0.2554 -0.1930
 9589W        W29123   3.443  14.620  10.738 -0.1381  0.0177 -0.2077
 9590W        W29124   2.155  13.232  13.234  0.3018 -0.4106 -0.3001
 9591W        W29125  11.183  15.002   1.147  0.3322  0.2509  0.3322
 9592W        W29126   1.205  16.093   0.520  0.0014 -0.1945 -0.0980
 9593W        W29127   3.368  18.705  14.349  0.1767 -0.5576 -0.0263
 9594W        W29128   7.534   8.693   1.583  0.1831  0.1269  0.2069
 9595W        W29129  10.238   2.841   0.669 -0.4830 -0.2947 -0.2561
 9596W        W29130  14.926  17.840   0.947 -0.2042  0.1763  0.4165
 9597W        W29131   0.170  16.756   4.296 -0.0749 -0.2615 -0.2487
 9598W        W29132  18.211  16.956   3.935  0.1646 -0.1811  0.0884
 9599W        W29133   7.170  11.701  13.298  0.1785 -0.3498  0.0258
 9600W        W29134  11.617  18.439   1.279 -0.1890  0.0338  0.0591
 9601W        W29135   8.075   7.482   4.593  0.0139 -0.0589  0.3106
 9602W        W29136   1.036   4.326  11.471 -0.1379  0.2818  0.0384
 9603W        W29137   7.098   9.802   0.487  0.1114 -0.0659  0.0797
 9604W        W29138  16.331  16.191   2.494  0.2770 -0.1146  0.0820
 9605W        W29139  12.788  11.999   1.238 -0.1179 -0.0768 -0.0588
 9606W        W29140  18.174  10.590   3.383  0.0006 -0.3761  0.4026
 9607W        W29141   0.069   5.785  12.420  0.2901 -0.2245  0.0847
 9608W        W29142   1.320   9.109   3.973  0.1989  0.0941 -0.2854
 9609W        W29143   3.469  18.853   3.123  0.0578  0.3197 -0.2361
 9610W        W29144   8.408  13.217  12.904  0.0694 -0.4356 -0.0579
 9611W        W29145   9.469  10.531  12.581  0.0294 -0.0011  0.0088
 9612W        W29146   9.973  13.256  12.432  0.0590 -0.2578 -0.0348
 9613W        W29147   4.843   1.420  11.435  0.0171  0.1063 -0.1959
 9614W        W29148   6.178  16.480  13.733  0.2317 -0.0133  0.0426
 9615W        W29149   5.738  18.782   3.706 -0.3688  0.0821 -0.3609
 9616W        W29150   4.494  14.105  13.508 -0.2272  0.0423  0.0724
 9617W        W29151   7.588   0.169   1.732  0.0009 -0.0325 -0.1385
 9618W        W29152   7.816  12.686   2.733  0.0340  0.0902 -0.0799
 9619W        W29153  17.857   4.855   4.152  0.0790 -0.2594 -0.2584
 9620W        W29154   6.987  16.206   4.051  0.1617 -0.1741  0.1490
 9621W        W29155  19.094   0.087  12.431 -0.0382 -0.4205 -0.1064
 9622W        W29156   8.373   4.026   3.338  0.1393  0.0824  0.0059
 9623W        W29157   4.719   3.795  12.728  0.0338  0.0831 -0.2334
 9624W        W29158  14.314  13.919   1.590  0.0845 -0.4963 -0.1507
 9625W        W29159  10.503   0.629   2.077 -0.5603 -0.0856 -0.0048
 9626W        W29160   6.504   2.772   1.813 -0.0897 -0.2962 -0.3170
 9627W        W29161  14.244  14.267   1.224  0.0730  0.0153 -0.0853
 9628W        W29162  15.581   4.922   4.065 -0.5260 -0.0221 -0.3121
 9629W        W29163  11.250  14.850   4.643  0.2675 -0.2894  0.1606
 9630W        W29164  18.630   5.840  11.388  0.0517 -0.0972 -0.0301
 9631W        W29165   8.743   8.753   9.625  0.1693  0.0894 -0.2103
 9632W        W29166  16.652   7.307   1.090 -0.3252 -0.0650  0.1888
 9633W        W29167   3.792   7.926   0.349  0.2350 -0.4897 -0.2219
 9634W        W29168   4.737   4.992   3.661 -0.1705 -0.0375 -0.0350
 9635W        W29169  17.753  12.713   1.384  0.0522  0.1431 -0.1407
 9636W        W29170   5.577   2.324  12.300 -0.0365  0.2458  0.2949
 9637W        W29171  13.324  15.321  14.163  0.1479 -0.3133 -0.0521
 9638W        W29172   2.889  11.022  12.828 -0.1737  0.2266  0.0430
 9639W        W29173   3.064  12.733  13.619  0.0891  0.2163  0.1879
 9640W        W29174   5.433  13.037  13.201  0.0999 -0.1817  0.0873
 9641W        W29175   4.450  12.954  11.810  0.0780  0.1906 -0.0283
 9642W        W29176   5.402   5.691   0.039  0.3176 -0.0119  0.0957
 9643W        W29177   3.482  14.864   4.303  0.1864  0.0120 -0.1630
 9644W        W29178   4.755   5.461   3.999 -0.0127  0.2774  0.0147
 9645W        W29179  11.652  10.125   3.238 -0.0060  0.0107 -0.0870
 9646W        W29180  17.460  15.135   4.301 -0.1194 -0.3029  0.1536
 9647W        W29181   1.608  10.472   1.902  0.0202  0.0535 -0.2260
 9648W        W29182  16.819  17.798  11.508 -0.0756 -0.1599 -0.2389
 9649W        W29183  11.467   0.708   1.207 -0.2118  0.0250 -0.1328
 9650W        W29184  17.271  15.440  11.602 -0.1657 -0.1647  0.0391
 9651W        W29185   7.346  14.874   0.733  0.1571 -0.0227  0.4331
 9652W        W29186  10.884  17.691   1.692  0.3137  0.2649  0.1359
 9653W        W29187  18.545   7.474  13.831 -0.2161  0.1102  0.1058
 9654W        W29188  16.397   2.580   0.876  0.2341  0.0374 -0.0821
 9655W        W29189  15.996   7.369  14.121  0.0987 -0.0531 -0.3634
 9656W        W29190  17.054   0.768   3.917 -0.1564  0.0628 -0.1090
 9657W        W29191  17.023   3.036   2.424  0.0281  0.1773 -0.1878
 9658W        W29192   9.513   1.394  14.550  0.1907 -0.0143  0.0493
 9659W        W29193  11.268  10.151   0.529  0.3584 -0.1474 -0.1828
 9660W        W29194  13.704   4.290  13.075  0.1672 -0.0312  0.0442
 9661W        W29195  16.816  12.354  14.622 -0.0921 -0.1175  0.0682
 9662W        W29196   7.468   2.224   0.040 -0.0957 -0.1081  0.0219
 9663W        W29197  15.544   9.287   2.632 -0.0636 -0.1584  0.0816
 9664W        W29198   5.354   5.908   4.290 -0.0682 -0.0787  0.1120
 9665W        W29199  12.617   1.483  14.768  0.2009  0.0685 -0.2662
 9666W        W29200  11.662   5.894   2.356 -0.3508  0.3700  0.1660
 9667W        W29201  10.736   6.333   0.514 -0.0459 -0.1788  0.1185
 9668W        W29202   3.512   4.946   9.920  0.1140  0.0703 -0.0347
 9669W        W29203   0.459   5.322  10.568  0.2016  0.2574 -0.1790
 9670W        W29204  16.450  16.830   3.943 -0.0531 -0.0971 -0.1359
 9671W        W29205   6.517  17.400   3.310 -0.1020  0.0751  0.1523
 9672W        W29206  16.656  15.779   1.223  0.1636 -0.2293  0.2072
 9673W        W29207   9.819   0.961   3.456 -0.4395  0.4445 -0.1609
 9674W        W29208  15.271  18.505   2.109  0.1623 -0.0513  0.1361
 9675W        W29209   6.316  16.890   1.422  0.0700  0.2079 -0.0414
 9676W        W29210  10.572  18.399  13.241  0.0656 -0.0955  0.0402
 9677W        W29211  18.706  17.477   3.286 -0.2273 -0.1775 -0.0207
 9678W        W29212  18.449  15.326  14.260 -0.1855  0.1623 -0.2125
 9679W        W29213  16.909  14.306  11.265  0.1543 -0.0250  0.2977
 9680W        W29214   8.401  10.352   4.200  0.1353 -0.1854  0.2911
 9681W        W29215  10.000   6.240  13.518 -0.0471 -0.3419 -0.3692
 9682W        W29216   0.767  12.830  12.813  0.0287  0.2234 -0.2930
 9683W        W29217  16.022  18.822   3.022 -0.2011  0.0384  0.1201
 9684W        W29218   1.097   7.770  13.208 -0.1391  0.1354  0.1222
 9685W        W29219   8.008   1.584   0.349 -0.0008 -0.3579 -0.1470
 9686W        W29220   1.665   9.186  11.965 -0.2643 -0.0163 -0.1968
 9687W        W29221  14.605  10.077   3.867  0.1618 -0.1866 -0.0647
 9688W        W29222   6.265   9.001  14.517  0.3686  0.1283  0.1739
 9689W        W29223  18.483  16.511   1.280 -0.1314  0.2024 -0.0840
 9690W        W29224  13.769  18.156  12.507  0.1805 -0.0672  0.1136
 9691W        W29225  12.979  18.360   0.371  0.0339 -0.1330 -0.0301
 9692W        W29226   1.953   0.093   1.415  0.1735 -0.0740 -0.1835
 9693W        W29227   5.525   2.835   1.647  0.0229 -0.0041 -0.2362
 9694W        W29228   5.534  11.597   3.202  0.2875 -0.0296 -0.3535
 9695W        W29229   4.807   3.604   2.986 -0.1340 -0.0115  0.1716
 9696W        W29230   1.477  16.272  13.974 -0.2045 -0.1101 -0.0364
 9697W        W29231   5.639  12.892  11.568 -0.0624  0.1772  0.1384
 9698W        W29232   2.906   0.255  13.821  0.2701 -0.1500  0.0716
 9699W        W29233   4.497  11.520   2.842  0.0648 -0.2428  0.0820
 9700W        W29234   2.815   0.504   4.612 -0.1347 -0.0587 -0.0616
 9701W        W29235   1.580  12.992  12.558  0.2388  0.0462 -0.3147
 9702W        W29236   2.416  17.297   0.036 -0.1234  0.2936  0.2654
 9703W        W29237   5.196   2.620   2.777  0.3436 -0.3816  0.1210
 9704W        W29238   7.342   2.398   2.239  0.2295 -0.5131 -0.0476
 9705W        W29239  14.327   3.192  11.582 -0.0308 -0.1662  0.2338
 9706W        W29240  14.240  14.395   1.858  0.0073 -0.0073  0.2053
 9707W        W29241  13.759  11.104  13.445 -0.1379 -0.5421  0.1851
 9708W        W29242   4.864   5.069   0.173  0.0771 -0.2625 -0.2268
 9709W        W29243  15.507  10.575  13.403 -0.0488  0.0584  0.1438
 9710W        W29244   5.537  13.444  13.999  0.0664 -0.0866  0.1094
 9711W        W29245   1.057   8.791   9.601  0.0749 -0.1085 -0.0869
 9712W        W29246  18.054  13.995   1.089  0.1545 -0.0447  0.1622
 9713W        W29247  18.796   5.948  14.271 -0.1058  0.2613 -0.1304
 9714W        W29248  10.611  19.062   3.859  0.2100 -0.0588  0.1924
 9715W        W29249   2.630   1.816   0.733  0.1304  0.3298  0.1341
 9716W        W29250   8.119  12.209   3.148 -0.0398 -0.0989 -0.1793
 9717W        W29251  11.633   4.459  13.582  0.0205 -0.3583  0.1594
 9718W        W29252   1.359   0.601  14.614 -0.4373 -0.2150  0.0696
 9719W        W29253   5.617  15.422   3.883  0.3953  0.1247 -0.3909
 9720W        W29254   8.103  14.704  11.951  0.0050  0.0620  0.0814
 9721W        W29255  12.897   6.023  13.731  0.0116  0.0011 -0.1846
 9722W        W29256   6.827  17.047   2.427 -0.0766 -0.0591 -0.1545
 9723W        W29257  17.440  15.543  13.929 -0.1050 -0.0027 -0.0350
 9724W        W29258  18.363   6.854  10.919 -0.1804 -0.1240  0.1360
 9725W        W29259   0.887  11.874  11.648  0.1969 -0.0245  0.1219
 9726W        W29260   5.479   7.639   2.598 -0.1070 -0.1765  0.3134
 9727W        W29261  13.705  11.131   2.378 -0.0029 -0.1177 -0.0620
 9728W        W29262   7.412  13.826  13.415 -0.1117 -0.0352  0.0371
 9729W        W29263  13.348   3.643  12.796  0.0189  0.1835  0.0352
 9730W        W29264  19.030  15.560   9.561  0.1350  0.2479 -0.2341
 9731W        W29265   6.469   2.561  12.031  0.0991 -0.0445  0.0305
 9732W        W29266   5.273   0.676  14.571 -0.1508  0.4088 -0.0493
 9733W        W29267   4.839   9.284   3.226 -0.0461  0.1414 -0.1984
 9734W        W29268  13.854   3.745   1.213  0.1278 -0.2523 -0.1722
 9735W        W29269   7.530  17.684   1.159 -0.0779 -0.2375  0.4403
 9736W        W29270  12.737  18.388   2.976  0.3890 -0.2769  0.1925
 9737W        W29271  14.832   1.250  10.114 -0.1048 -0.2152 -0.1531
 9738W        W29272   1.001   7.596   3.968  0.0822 -0.2869 -0.3416
 9739W        W29273   8.425   1.134   1.562 -0.2262 -0.2414  0.0318
 9740W        W29274  16.147  13.048  11.331 -0.1163 -0.0098  0.0523
 9741W        W29275  11.473   0.260   0.935  0.2158 -0.0854  0.2008
 9742W        W29276  13.366   8.965  14.037 -0.0869  0.1408  0.0089
 9743W        W29277   2.719   7.087  12.502 -0.0100  0.1041  0.1522
 9744W        W29278   2.473   6.787  11.229  0.1960 -0.0592 -0.2877
 9745W        W29279  10.512  19.069   2.672  0.0669  0.0716  0.0993
 9746W        W29280   9.675   2.976   4.944 -0.0680  0.0689  0.1654
 9747W        W29281   1.772   1.732   1.907  0.0189 -0.1575 -0.0755
 9748W        W29282   3.703   1.833   0.953  0.2393  0.1346 -0.0592
 9749W        W29283  17.876  13.523  14.228 -0.1309  0.2195  0.2977
 9750W        W29284   4.625   4.565  14.737 -0.1430  0.3167  0.3156
 9751W        W29285  15.063  10.887   0.038  0.0278  0.1943  0.1034
 9752W        W29286  16.899   2.341   3.238  0.0203 -0.1345 -0.0812
 9753W        W29287  16.517   6.812  13.308  0.1288 -0.0044 -0.0501
 9754W        W29288   9.004  11.942   1.121  0.3516  0.0602 -0.1978
 9755W        W29289   5.871  12.684  11.176 -0.0511 -0.0406 -0.1775
 9756W        W29290  10.311  12.278   0.823 -0.0563  0.0377  0.0141
 9757W        W29291  16.828   5.148  10.636 -0.0139  0.1368  0.0205
 9758W        W29292   7.836   8.537  10.709  0.0767 -0.1294 -0.0652
 9759W        W29293  15.329   3.273   5.525 -0.0378  0.0453 -0.3555
 9760W        W29294   5.800   9.270  11.127  0.2950  0.0130 -0.0511
 9761W        W29295  16.250   8.908   3.700 -0.1030 -0.1118 -0.0033
 9762W        W29296   5.704   9.374   1.479 -0.3094 -0.0460  0.0396
 9763W        W29297  18.932   2.293  13.820 -0.0964 -0.1154 -0.0066
 9764W        W29298   5.225   5.284   2.876 -0.2316  0.2301 -0.0618
 9765W        W29299  16.013   8.163   0.944  0.0907 -0.0463 -0.3148
 9766W        W29300  18.402  12.808   3.520  0.1835 -0.2284 -0.0638
 9767W        W29301   3.105   1.689  11.014  0.1120  0.3556 -0.2920
 9768W        W29302   8.695   5.291  11.933 -0.0924  0.1016 -0.1131
 9769W        W29303   6.577  12.056  11.552 -0.0443  0.2892  0.1934
 9770W        W29304   1.875  10.202  13.093  0.0156  0.5166  0.1420
 9771W        W29305  10.405  10.854   2.544  0.0332 -0.1717 -0.0237
 9772W        W29306   7.771   7.128   0.423 -0.1617  0.0772 -0.2487
 9773W        W29307  10.793  15.130  13.114  0.2715  0.3183  0.3904
 9774W        W29308  15.486   5.475  11.783  0.0705  0.0781 -0.2168
 9775W        W29309   4.347  13.168   0.463  0.2845  0.3144  0.0429
 9776W        W29310  16.416   4.013   5.078  0.1049 -0.4356 -0.3664
 9777W        W29311   3.423   8.432  10.567  0.2068  0.0233  0.2058
 9778W        W29312   4.881  16.627   0.113  0.2774  0.0993  0.0484
 9779W        W29313   2.744   5.358  12.749 -0.0287 -0.0475  0.0754
 9780W        W29314  10.051   7.757   1.523  0.0078 -0.3404  0.0079
 9781W        W29315   3.060   7.845  14.212  0.0427  0.1264  0.0434
 9782W        W29316   1.484  11.578  10.164 -0.0846 -0.2853  0.0403
 9783W        W29317  13.835   6.335  10.646 -0.3432  0.3143 -0.0769
 9784W        W29318   6.258   2.359   3.866  0.0893  0.3640 -0.0547
 9785W        W29319   5.773  12.100  13.251 -0.2951  0.2498  0.0399
 9786W        W29320  15.584  17.207   2.825 -0.0321 -0.0450  0.0019
 9787W        W29321  11.584   9.867   1.894 -0.2531 -0.2216 -0.0735
 9788W        W29322  16.715  16.250   2.154 -0.0008 -0.1321 -0.1636
 9789W        W29323  18.440  10.181  12.799 -0.2527  0.0979 -0.0167
 9790W        W29324  12.145   5.205  13.608  0.0667  0.0740  0.1782
 9791W        W29325  13.524   8.284   2.108  0.0269  0.1193 -0.1689
 9792W        W29326   5.974  11.428   1.856  0.0537 -0.1259 -0.3540
 9793W        W29327  16.454  18.861  12.125 -0.0533 -0.0788  0.2798
 9794W        W29328   1.347  10.652   3.004 -0.0400 -0.1215  0.0023
 9795W        W29329  11.037   3.666  14.474 -0.1513  0.2972 -0.0197
 9796W        W29330  17.567   6.390   3.716  0.2931  0.1026 -0.1581
 9797W        W29331  12.060   6.350  12.567 -0.0355 -0.1856 -0.0812
 9798W        W29332   6.542   8.572  13.553 -0.1313  0.1795 -0.0109
 9799W        W29333  16.759  11.899   0.496 -0.2065 -0.1216  0.2081
 9800W        W29334  14.695   6.558   3.634 -0.1328  0.1880  0.2106
 9801W        W29335  12.306   1.022  10.992  0.0011 -0.0208  0.0879
 9802W        W29336  16.657   1.014  11.265  0.0140 -0.0038  0.0455
 9803W        W29337  11.652  11.098  12.965  0.1700  0.4699  0.0397
 9804W        W29338   5.311  12.737   2.267 -0.2306  0.0502  0.1029
 9805W        W29339  14.558  15.489   3.875 -0.2844  0.2741 -0.1940
 9806W        W29340   8.227  14.093   2.300 -0.0904 -0.0567  0.0949
 9807W        W29341  18.146   8.790  14.418  0.2525  0.0028  0.0104
 9808W        W29342  14.792  16.775  12.299  0.3064  0.1123 -0.2505
 9809W        W29343  10.033  10.636  10.580 -0.0229  0.1607  0.1096
 9810W        W29344  14.360   0.309  14.724  0.0762  0.5485  0.1446
 9811W        W29345   8.318  15.323   0.419 -0.1880 -0.1201 -0.2343
 9812W        W29346  15.010   5.080  11.022 -0.1877  0.2768  0.0494
 9813W        W29347  16.931  15.711   0.063  0.0859 -0.0963 -0.5475
 9814W        W29348  12.553   1.912  12.869 -0.2949  0.0000 -0.0543
 9815W        W29349   4.036  17.015   3.595 -0.2192 -0.0636 -0.1676
 9816W        W29350  14.402  15.203   4.501  0.1506 -0.0772  0.0637
 9817W        W29351   0.907   8.736   0.383  0.1819  0.0081  0.0643
 9818W        W29352   9.611   5.489   1.756  0.1175  0.0427  0.1243
 9819W        W29353   7.372   6.888  13.458 -0.2081  0.0105  0.0506
 9820W        W29354  15.654  14.159   1.071 -0.0317 -0.0739  0.1394
 9821W        W29355   1.706  12.937   4.056 -0.0717  0.2446 -0.0996
 9822W        W29356  10.662  14.645   0.977 -0.1499  0.2722  0.2132
 9823W        W29357  16.987  13.201   3.816 -0.0584  0.1950  0.0173
 9824W        W29358  13.515  13.551  13.434  0.1748 -0.1923 -0.2520
 9825W        W29359  17.444   7.295   1.699 -0.0927 -0.0109  0.1479
 9826W        W29360   2.811  10.319  10.975 -0.3474 -0.0718 -0.1103
 9827W        W29361  12.056   2.928   4.193  0.1328 -0.2261  0.0034
 9828W        W29362   7.096   4.290  13.538  0.0367 -0.0209  0.0800
 9829W        W29363  12.029   0.801   1.348 -0.4084 -0.2591  0.0872
 9830W        W29364  18.112   9.769  12.941 -0.2857  0.2494 -0.2426
 9831W        W29365  15.190  17.782  12.070  0.0888  0.1068 -0.0475
 9832W        W29366   3.962   5.245   2.888 -0.1328  0.0430  0.1408
 9833W        W29367  16.137   1.655   1.785  0.0004  0.0886 -0.0467
 9834W        W29368   9.569  18.995   4.809 -0.1296 -0.1031 -0.2338
 9835W        W29369  15.384   8.521   4.244  0.1574  0.1375  0.0621
 9836W        W29370  17.660   6.445  12.781  0.0135 -0.1384 -0.1318
 9837W        W29371   2.448  17.886   0.803  0.0370  0.2129  0.0785
 9838W        W29372   5.393   7.438  14.571  0.2449 -0.1609  0.1709
 9839W        W29373   4.919   8.762   0.038  0.1655 -0.0222  0.3230
 9840W        W29374   1.616   2.348  12.956 -0.0157 -0.1348 -0.1618
 9841W        W29375   6.359   3.028  14.644  0.0144 -0.1490  0.0149
 9842W        W29376  12.864   1.016  11.684 -0.2917 -0.1864  0.2733
 9843W        W29377   1.823   2.180   4.697 -0.1219 -0.1500 -0.1635
 9844W        W29378  12.932  18.558  11.025 -0.1627  0.0711  0.2658
 9845W        W29379  11.093  10.776  13.057  0.1425  0.1184  0.3000
 9846W        W29380   3.055   7.435   2.056 -0.1623 -0.1883 -0.4483
 9847W        W29381   6.711  15.696  12.092  0.1479 -0.0603 -0.0275
 9848W        W29382  17.478   1.902   2.594 -0.4317 -0.0368 -0.1318
 9849W        W29383  17.318   1.709  10.236  0.1727  0.0267  0.0573
 9850W        W29384  17.178  18.604  12.664 -0.1178 -0.0424  0.0775
 9851W        W29385  11.833   1.873  12.441  0.2552 -0.2060  0.3512
 9852W        W29386  11.963  15.218   4.408  0.2828 -0.1666  0.2551
 9853W        W29387  15.168   1.185   4.296  0.0470 -0.2829 -0.1858
 9854W        W29388   6.834  12.813  13.842 -0.0780 -0.1503  0.1324
 9855W        W29389   5.288   6.389  13.650  0.2017 -0.2109  0.0771
 9856W        W29390  14.630   0.703  12.463 -0.1172  0.0827 -0.0415
 9857W        W29391   7.782   7.078  12.733  0.2022  0.1334  0.0325
 9858W        W29392  14.506  11.376   1.015 -0.2741 -0.2113  0.2486
 9859W        W29393   7.594  11.452   4.373  0.2655  0.0740  0.3775
 9860W        W29394   1.720   2.563  12.332 -0.3038 -0.0344  0.0320
 9861W        W29395   2.911  11.644  10.965 -0.1199  0.0818  0.1203
 9862W        W29396  10.672   4.996  10.694 -0.0667 -0.0526  0.1551
 9863W        W29397   4.807  17.490   2.243 -0.2349 -0.0214  0.0082
 9864W        W29398   3.820   4.010  10.475  0.0020  0.0632  0.1112
 9865W        W29399   0.087   0.489   0.111 -0.1728 -0.0837 -0.0710
 9866W        W29400  10.972   7.125  13.136 -0.3779  0.0897 -0.1761
 9867W        W29401  18.321   1.936  14.384  0.1360  0.1447 -0.3631
 9868W        W29402   2.932  11.964   3.868  0.0106 -0.0142  0.1526
 9869W        W29403  11.488   0.427  13.854 -0.1048  0.0332 -0.0418
 9870W        W29404   2.448  15.889   4.185  0.1887 -0.1138  0.0611
 9871W        W29405   9.516   5.237  13.645  0.1935 -0.0808  0.0246
 9872W        W29406  11.725  18.977   4.345 -0.1921 -0.0819  0.0523
 9873W        W29407  18.956  13.610   3.538  0.0390  0.1287 -0.1284
 9874W        W29408   1.150  15.870   1.598 -0.1173 -0.1042  0.1862
 9875W        W29409  11.486  15.262  14.545 -0.0219  0.3974  0.0686
 9876W        W29410  12.002  13.777   3.149  0.2618  0.1940 -0.1230
 9877W        W29411  17.742   5.552  12.111 -0.0364  0.0104  0.0957
 9878W        W29412   2.398   3.037   0.691  0.0677 -0.0657  0.4106
 9879W        W29413   3.383   0.992  12.838 -0.0954  0.0189  0.1475
 9880W        W29414  12.402  14.046   1.429 -0.2416 -0.1470  0.1103
 9881W        W29415  12.904  17.954   2.689 -0.4098  0.1594  0.2195
 9882W        W29416  11.438  14.790  13.608 -0.1611 -0.3639  0.1944
 9883W        W29417   9.687   8.871  12.081 -0.0583 -0.2050  0.0791
 9884W        W29418   4.519  12.017  12.037 -0.1752 -0.1421  0.0312
 9885W        W29419  19.000  14.741  11.027 -0.0808  0.1735 -0.3010
 9886W        W29420  10.243   3.811   2.510 -0.2995 -0.0285  0.0154
 9887W        W29421   6.799   1.106   1.866 -0.1098  0.1998 -0.1859
 9888W        W29422  11.868   4.606  10.968  0.1864  0.1028  0.1651
 9889W        W29423   9.756  13.800   1.324  0.2540 -0.0459 -0.0910
 9890W        W29424   9.340   8.426  11.850 -0.1241  0.1442  0.0917
 9891W        W29425  13.440   9.463  11.389  0.1502 -0.0080  0.1045
 9892W        W29426  18.904  12.784   1.293 -0.2144  0.0750 -0.1002
 9893W        W29427  15.200   5.113   2.271  0.1215  0.1599  0.2773
 9894W        W29428   3.476  12.460   1.511 -0.1058 -0.3014  0.0342
 9895W        W29429   3.444   2.655   3.394 -0.1552  0.1972 -0.1875
 9896W        W29430   1.128   8.016   3.694  0.2772 -0.0041  0.0929
 9897W        W29431   8.706  18.525  12.472 -0.2268 -0.0129 -0.4242
 9898W        W29432   0.254   5.433   0.630 -0.0657 -0.0530  0.0084
 9899W        W29433   0.487   3.595   1.283 -0.0410 -0.0659  0.3731
 9900W        W29434  12.393  10.807  13.068 -0.4440 -0.0015 -0.1326
 9901W        W29435   5.478   5.206  14.731 -0.0406 -0.4439 -0.2303
 9902W        W29436   7.911  16.817   0.937 -0.0348 -0.1592 -0.2068
 9903W        W29437   0.955   2.775   0.058 -0.1744 -0.0353 -0.2389
 9904W        W29438  13.460   0.229  11.699 -0.0250  0.0962  0.2154
 9905W        W29439   0.768  13.211   1.673 -0.1323 -0.1535 -0.3870
 9906W        W29440  11.276  17.471  11.401  0.0174 -0.2379 -0.2057
 9907W        W29441  10.640  11.440  13.795  0.2264  0.3600  0.1419
 9908W        W29442   0.977   9.982  12.839  0.0044  0.0931 -0.0193
 9909W        W29443  16.379   8.300   2.680  0.0561 -0.1201 -0.0350
 9910W        W29444  10.535   0.605  12.567  0.2894 -0.0593 -0.0843
 9911W        W29445  14.969   4.596  11.841 -0.2334  0.1500 -0.1255
 9912W        W29446   8.222   4.701   2.809 -0.2073  0.1400 -0.1780
 9913W        W29447  11.835  17.782   2.082  0.4286  0.1329  0.0496
 9914W        W29448   1.687   0.882  12.126  0.2405  0.0068 -0.2315
 9915W        W29449  16.785  14.892  12.052 -0.1723  0.0208 -0.3821
 9916W        W29450   0.267   4.892  14.158 -0.2395 -0.0863  0.1249
 9917W        W29451   1.054  11.524  12.712 -0.1654 -0.4944 -0.2104
 9918W        W29452  10.650   0.608  12.073 -0.0908  0.1540 -0.2436
 9919W        W29453   2.951   1.923  14.331 -0.1329 -0.2694 -0.3721
 9920W        W29454   0.535   1.531   1.306 -0.2249 -0.3573 -0.2417
 9921W        W29455  12.212   3.370   1.211  0.0454 -0.2212  0.0278
 9922W        W29456   6.824  12.124   2.451  0.4125  0.1441  0.0040
 9923W        W29457   6.840   5.591   2.268  0.1961 -0.1069  0.1435
 9924W        W29458   7.263   8.302   0.778  0.1575  0.1595 -0.3004
 9925W        W29459  15.773  10.894   2.557  0.0209  0.1063  0.1475
 9926W        W29460  17.667  18.655  14.648 -0.0267  0.0722  0.1785
 9927W        W29461   6.729  14.340   2.379  0.1499 -0.2308  0.1183
 9928W        W29462  13.947  10.128  12.515 -0.3704 -0.0396  0.0921
 9929W        W29463   5.686   4.201  14.411 -0.1988  0.3516 -0.2894
 9930W        W29464  13.461  18.477  14.278  0.0574 -0.2142 -0.1495
 9931W        W29465   8.379  16.411   2.810  0.1733  0.0618  0.0816
 9932W        W29466   3.978  17.276   1.200 -0.0072 -0.0299  0.0712
 9933W        W29467   4.716   9.683  12.259 -0.0428  0.0048 -0.1473
 9934W        W29468  14.335   8.036   0.168  0.1774  0.0341 -0.3453
 9935W        W29469  16.280   0.308   3.661  0.0777 -0.0443  0.0959
 9936W        W29470   7.864  15.333   3.339  0.2939  0.1320  0.1260
 9937W        W29471   8.442  10.172   1.817  0.1143  0.2507  0.3581
 9938W        W29472   3.331  11.727  11.229  0.0539  0.0385  0.0201
 9939W        W29473  13.816  12.526   2.611 -0.0168  0.0627 -0.2350
 9940W        W29474  14.855  13.896   0.458  0.1199  0.0388  0.0645
 9941W        W29475  17.261   8.924   1.431 -0.2644  0.0515  0.1756
 9942W        W29476   6.681   0.921  11.419  0.0068 -0.0413 -0.2836
 9943W        W29477   1.175   0.791  12.217 -0.0529 -0.1234  0.0728
 9944W        W29478  13.056   0.464   1.436 -0.0993  0.0493 -0.3536
 9945W        W29479  13.421  14.680   3.940 -0.6536 -0.1214 -0.0328
 9946W        W29480   4.213   2.447  13.490 -0.0047 -0.3808 -0.0214
 9947W        W29481   7.689  14.200   1.071 -0.1939  0.0054 -0.2221
 9948W        W29482   6.275  10.422   1.515  0.1259  0.1511  0.1427
 9949W        W29483  15.054  11.709  14.336 -0.0266 -0.2190  0.0653
 9950W        W29484   8.238   5.814   2.384  0.0576  0.5110 -0.3139
 9951W        W29485  13.802  17.610   3.046  0.1709  0.0972 -0.3103
 9952W        W29486   7.353   1.801   4.159 -0.0891  0.0254 -0.0857
 9953W        W29487  13.755   3.390   3.850  0.4349 -0.2409  0.0135
 9954W        W29488   4.544  12.087  11.292  0.4551  0.2612  0.1437
 9955W        W29489   4.332  19.020  14.216 -0.2592  0.1250  0.2967
 9956W        W29490  10.370  12.656  14.111 -0.0224  0.0333 -0.1658
 9957W        W29491   3.188   7.843   4.485  0.1269  0.2263 -0.1572
 9958W        W29492  15.067   2.397  11.244 -0.2139  0.1003 -0.1405
 9959W        W29493  10.571   1.421  14.263 -0.2680 -0.3785  0.0109
 9960W        W29494  15.446   8.138  12.574  0.1129 -0.0903 -0.1781
 9961W        W29495  14.473  16.755   0.209  0.2567 -0.3135 -0.0310
 9962W        W29496   6.941   4.425   0.120  0.2657  0.0261 -0.0265
 9963W        W29497  13.388  16.817   2.036  0.0400 -0.1659  0.2570
 9964W        W29498  18.884   0.843   0.381  0.0851 -0.1421 -0.2637
 9965W        W29499   4.130  13.870   1.247  0.1930  0.2009 -0.1741
 9966W        W29500   4.944  18.762   0.719 -0.0214 -0.0277  0.0435
 9967W        W29501   7.866   1.065  12.740 -0.0691  0.1939  0.3540
 9968W        W29502  12.829  18.140   4.193  0.1406 -0.1262  0.0838
 9969W        W29503  17.386  14.668   4.098 -0.0512 -0.0755  0.1029
 9970W        W29504  13.002  15.227  12.250  0.0789 -0.1914 -0.1614
 9971W        W29505   9.060  13.073   2.047  0.1162 -0.0739 -0.1353
 9972W        W29506  12.810  13.609   4.448  0.1362 -0.0050 -0.2172
 9973W        W29507   1.695  15.146  12.720 -0.0281  0.0200 -0.2254
 9974W        W29508   1.851  11.643   2.490 -0.2856  0.0206 -0.3471
 9975W        W29509  16.696   3.883   3.083  0.0557 -0.3183  0.0879
 9976W        W29510  16.192   9.044   0.897 -0.1949 -0.2293  0.0129
 9977W        W29511   5.619   4.771  14.021  0.0162  0.2265  0.0260
 9978W        W29512   7.186   0.153  10.130 -0.3679 -0.1326 -0.0219
 9979W        W29513  18.922   9.517  12.959 -0.1535 -0.1436 -0.0238
 9980W        W29514   6.790   1.584  11.445 -0.0049  0.1272 -0.0277
 9981W        W29515   2.110   9.268  13.724 -0.3533 -0.3184 -0.3700
 9982W        W29516  18.695  16.844  13.734 -0.2418 -0.0279  0.3259
 9983W        W29517  16.357   5.320  13.996  0.1266 -0.2293 -0.0549
 9984W        W29518   7.381   0.334  14.346 -0.0800  0.0381  0.0390
 9985W        W29519  10.408   8.465   1.959  0.0432  0.0475  0.0728
 9986W        W29520   2.756   6.659   1.037 -0.2035 -0.0325  0.3160
 9987W        W29521   9.213   6.598   0.192  0.0947 -0.1321  0.1101
 9988W        W29522  16.967   7.998   0.284  0.1756  0.0773  0.1778
 9989W        W29523  11.025  16.418  14.481 -0.2559 -0.1567  0.4444
 9990W        W29524   0.677  17.352   0.233 -0.0104 -0.0587  0.1560
 9991W        W29525   7.426   3.119  11.333 -0.1257 -0.2082 -0.0392
 9992W        W29526   1.980  17.399  14.586  0.3079  0.2696  0.0785
 9993W        W29527   1.386  16.034  11.356 -0.4234 -0.1430  0.0330
 9994W        W29528   6.401   1.437  12.807  0.2389 -0.1780  0.2504
 9995W        W29529   0.325   6.247  12.433  0.0038  0.0619  0.1239
 9996W        W29530   6.225   6.002   4.682 -0.1366  0.0218 -0.1765
 9997W        W29531   5.514  16.555  14.550 -0.1558  0.2260  0.0889
 9998W        W29532  15.604   3.623   0.218 -0.2957 -0.0044  0.1035
 9999W        W29533   7.446   2.153   2.701 -0.0236 -0.2000  0.2474
10000W        W29534  11.296  12.685   1.769 -0.0252 -0.1691 -0.0422
10001W        W29535   8.178   2.303   2.967 -0.1156 -0.2202  0.0349
10002W        W29536   8.335   5.705   1.267  0.1033 -0.1498 -0.0251
10003W        W29537   2.509   4.587   1.908  0.3096 -0.0327 -0.1314
10004W        W29538   3.480   2.313   0.255 -0.0892 -0.1371  0.0316
10005W        W29539   3.743  18.600  10.970  0.0010  0.1396 -0.1595
10006W        W29540  14.523  18.104   2.894  0.0687 -0.1792 -0.2266
10007W        W29541   9.610   4.935   2.196 -0.1178  0.1185  0.0259
10008W        W29542  18.780   7.226  13.122 -0.1028  0.3349 -0.0823
10009W        W29543  19.114   4.628  14.483  0.0443 -0.0641  0.1870
10010W        W29544   4.183  15.971  11.598  0.0395  0.0294  0.0085
10011W        W29545  10.488  12.745   1.031 -0.1183 -0.1491  0.0640
10012W        W29546   6.616   6.689   0.019 -0.1689 -0.0022  0.1761
10013W        W29547  10.087   6.973  12.243 -0.0473 -0.2174 -0.0908
10014W        W29548   8.513   6.469  13.835  0.2776  0.0790 -0.1566
10015W        W29549  18.751  13.204  11.659 -0.0094  0.0316 -0.2405
10016W        W29550  13.354  16.666   3.103 -0.1842 -0.1099 -0.0181
10017W        W29551   4.903   0.727   2.020  0.3074 -0.2891  0.2813
10018W        W29552  12.854   6.226   1.043  0.3548 -0.0520  0.2526
10019W        W29553   9.942   8.579   1.866 -0.1501  0.0997 -0.0040
10020W        W29554   8.665   6.219  12.347  0.0854 -0.2710  0.1138
10021W        W29555   0.142   0.254  13.892 -0.0628  0.1980  0.1016
10022W        W29556  16.739   0.856  13.267  0.3775 -0.0047  0.2689
10023W        W29557   6.690   0.815   1.321  0.2255 -0.3845  0.1335
10024W        W29558   4.334   6.923   3.469  0.2416  0.0604  0.0055
10025W        W29559  18.370   1.139   3.240  0.1122 -0.1864  0.3029
10026W        W29560  10.674   4.605  12.995 -0.0886  0.1089 -0.4847
10027W        W29561  16.997   5.578   2.776  0.1594 -0.0147  0.0719
10028W        W29562   0.312   3.446  11.627  0.0548 -0.0511 -0.0743
10029W        W29563   9.157   4.160  10.829 -0.2024 -0.0914 -0.1758
10030W        W29564  14.388  17.518   1.465  0.1514  0.2697 -0.2100
10031W        W29565  18.194   1.899   3.439  0.0616 -0.0134  0.1443
10032W        W29566   7.540   7.976   2.209  0.4085 -0.3565 -0.0524
10033W        W29567  17.986  12.079   3.687 -0.3129 -0.0752 -0.2779
10034W        W29568   8.009  12.782  12.473 -0.2260 -0.0665  0.1801
10035W        W29569   9.322   7.262   1.834 -0.1078 -0.0096  0.2955
10036W        W29570   6.361   1.830  11.320  0.4527 -0.1239 -0.1648
10037W        W29571   6.525   7.723   2.916  0.0218 -0.2744 -0.0653
10038W        W29572  15.714  13.584   1.678 -0.3158  0.0226 -0.1893
10039W        W29573  10.524   9.077   3.704 -0.1780  0.1043 -0.1228
10040W        W29574  16.822   0.156  14.464  0.3052 -0.0820 -0.1444
10041W        W29575   3.997   7.819   3.708  0.2442  0.0131 -0.2770
10042W        W29576  18.240  12.391  12.476 -0.1616 -0.1174 -0.2139
10043W        W29577  13.114  12.002   0.711 -0.2606 -0.2722  0.0207
10044W        W29578   3.431  12.283   4.543 -0.1128  0.0090  0.1089
10045W        W29579  11.869  16.005  14.124  0.0442 -0.0370  0.2421
10046W        W29580   4.070  17.277   0.668 -0.1042  0.1252 -0.0726
10047W        W29581  11.832  13.118  12.746 -0.3562 -0.0942 -0.0664
10048W        W29582   7.588   1.402   2.809 -0.2477 -0.0345 -0.0490
10049W        W29583   3.446  17.764  10.989 -0.1903  0.0494 -0.0471
10050W        W29584  18.427   1.802  12.436  0.1888  0.1055 -0.1925
10051W        W29585   7.276  16.142   4.660 -0.0366  0.1919  0.0023
10052W        W29586  18.204  18.092   1.341  0.2357 -0.0625 -0.0982
10053W        W29587   7.450  13.890   0.036  0.1053 -0.2419  0.0543
10054W        W29588   9.370   5.552  14.023  0.1381  0.0454 -0.1203
10055W        W29589   2.902   3.738  14.127  0.2193  0.0246 -0.2213
10056W        W29590  18.702   1.199   0.087 -0.1274 -0.1684 -0.3619
10057W        W29591  17.603   0.356   0.257 -0.0824 -0.1017 -0.0040
10058W        W29592  16.656   4.946   2.204 -0.0488  0.1174  0.1458
10059W        W29593   1.101  14.944   0.014  0.0676  0.3496 -0.3051
10060W        W29594  15.287  17.025  13.985 -0.0619 -0.1853  0.1805
10061W        W29595  11.458   8.943   3.866  0.1275  0.6042  0.1782
10062W        W29596  10.741   9.019   0.105  0.2760  0.0590  0.0505
10063W        W29597   2.101  10.194   1.837 -0.1237 -0.0498  0.2998
10064W        W29598   6.304   7.012   2.563 -0.3469  0.1194 -0.0010
10065W        W29599  16.644   6.637  12.867 -0.2093 -0.0886 -0.0438
10066W        W29600   0.374  15.375   3.162 -0.2425 -0.0853 -0.3527
10067W        W29601   9.154   1.681   1.591 -0.1231 -0.0923  0.0150
10068W        W29602   6.479   3.286   3.355 -0.1760 -0.0169 -0.0603
10069W        W29603  16.512  15.972   0.435 -0.0851 -0.1424 -0.3353
10070W        W29604   4.849   9.916  14.445 -0.3370 -0.4067  0.1854
10071W        W29605  15.364  14.915  12.093  0.1289 -0.2408  0.1859
10072W        W29606  15.589  10.076  13.416 -0.0560 -0.3836  0.0002
10073W        W29607  19.005  11.620  12.583 -0.0921  0.1028  0.2070
10074W        W29608   9.162  15.287  13.183 -0.0082 -0.0298 -0.1965
10075W        W29609  12.125   1.297  14.745 -0.2057 -0.3095  0.0785
10076W        W29610  13.038   8.858  13.230 -0.2936 -0.0329  0.1993
10077W        W29611   5.953   8.985   0.063  0.0574 -0.0426  0.0071
10078W        W29612   8.233   5.435  12.213 -0.2199 -0.1632  0.0747
10079W        W29613   1.206   8.193   2.470  0.2035 -0.0610  0.1558
10080W        W29614   7.074   5.358  11.080 -0.0183 -0.2888 -0.0147
10081W        W29615  16.652   9.942  11.356 -0.1701  0.2238 -0.0803
10082W        W29616   8.291   3.035   3.119  0.1303  0.2297  0.3585
10083W        W29617  14.619   4.627  14.166  0.1731  0.3296 -0.1014
10084W        W29618   8.361   3.319  13.650 -0.0268  0.0674 -0.2391
10085W        W29619   8.671   8.223   2.521 -0.0690 -0.1111  0.0890
10086W        W29620  18.372  16.149   0.392  0.2052 -0.0723  0.0514
10087W        W29621   2.141   8.800  10.962  0.3070 -0.0061  0.1812
10088W        W29622   1.774  11.522  13.981  0.0554 -0.3392  0.0947
10089W        W29623   3.246   7.009  13.035  0.1083  0.1416 -0.0954
10090W        W29624  14.535  15.074  13.082 -0.1377 -0.0239 -0.1329
10091W        W29625  17.612  10.647  12.742  0.2872 -0.0502 -0.1371
10092W        W29626  12.420  12.572  12.138  0.1137  0.3350 -0.0278
10093W        W29627   2.952   3.464   3.853 -0.3183 -0.1789 -0.0037
10094W        W29628  14.390  12.471   2.429 -0.0607  0.1839 -0.0745
10095W        W29629  12.981  13.597   1.791  0.1224 -0.0922 -0.1241
10096W        W29630   0.090   8.759  12.810  0.2127 -0.0293  0.0373
10097W        W29631  17.120   4.407   3.716  0.0297 -0.0648 -0.0825
10098W        W29632   8.917  10.089   2.284 -0.0388  0.2483 -0.1905
10099W        W29633  10.409   2.862  12.867 -0.0750 -0.0547  0.1807
10100W        W29634  13.282  17.340   4.224  0.0077 -0.0555  0.1672
10101W        W29635   6.761   0.333  12.489 -0.3174  0.1229  0.1021
10102W        W29636  15.136  18.631   2.556  0.2927 -0.2479  0.0134
10103W        W29637  15.980   7.629   3.120 -0.0685  0.1179 -0.0524
10104W        W29638   3.827   7.544   2.792 -0.1575  0.2570  0.0451
10105W        W29639  18.566  13.882   3.308 -0.3860  0.0007 -0.0632
10106W        W29640   6.411   1.621   2.348  0.0230 -0.0613  0.1090
10107W        W29641  17.270   8.009   4.131 -0.0653 -0.0248 -0.1278
10108W        W29642  11.927  13.753  11.137 -0.0410  0.1165  0.0953
10109W        W29643   5.029   7.812   0.181 -0.0020  0.2053  0.0988
10110W        W29644  16.900   1.623  12.249 -0.0452 -0.0132  0.0871
10111W        W29645  13.820   4.796  12.919  0.0320 -0.1854  0.0525
10112W        W29646   3.166   5.527   1.628  0.1953 -0.5552 -0.2085
10113W        W29647   2.531   2.849   3.480 -0.0549 -0.0929 -0.0435
10114W        W29648   1.053   4.674   2.267 -0.2597  0.2618  0.1738
10115W        W29649   3.443  15.466  13.219 -0.2562 -0.0934  0.4228
10116W        W29650  13.843  14.720  10.684  0.0098 -0.1773  0.0852
10117W        W29651  13.626   5.401  12.067 -0.3322 -0.0137  0.4067
10118W        W29652  13.972   2.600   2.262 -0.2198  0.1872  0.0553
10119W        W29653  14.276  17.666  14.269  0.2495 -0.1462 -0.2227
10120W        W29654   4.974  12.973   0.297  0.1556  0.0331 -0.1589
10121W        W29655   7.251   2.918  12.213 -0.1619  0.0375 -0.1104
10122W        W29656   7.055  16.962  11.683  0.2107 -0.0219  0.5303
10123W        W29657   3.792   1.799  11.927  0.1036  0.0804  0.0512
10124W        W29658   0.689  15.306   1.072 -0.2249  0.3909  0.0557
10125W        W29659   5.936  10.479  13.769 -0.0040 -0.1792  0.0271
10126W        W29660  17.015   8.835   0.603  0.2335 -0.1810 -0.0608
10127W        W29661  12.533   8.700  11.429 -0.2120  0.0374 -0.2746
10128W        W29662   4.949  12.591   2.563  0.0935 -0.0192  0.2599
10129W        W29663  14.834   6.777  14.831 -0.5040 -0.1571  0.1814
10130W        W29664  10.691   2.744  11.280 -0.0482 -0.2077  0.0299
10131W        W29665  17.132  10.678  12.505 -0.0725  0.0664  0.2874
10132W        W29666   0.995  14.698   4.205 -0.3148  0.2036 -0.1513
10133W        W29667   4.525  17.370   0.504 -0.2591  0.0248 -0.1739
10134W        W29668   8.941   5.622   2.131 -0.0039 -0.1702 -0.1467
10135W        W29669   9.942  10.412  11.886 -0.0416 -0.3025  0.1412
10136W        W29670  12.286   3.656  12.391 -0.1760 -0.2277 -0.0949
10137W        W29671   9.542   7.676   1.589 -0.0752 -0.2033 -0.0104
10138W        W29672  18.516  15.460   1.597 -0.0073 -0.0235  0.1322
10139W        W29673  14.702   3.809   1.270 -0.0406  0.2332 -0.1679
10140W        W29674   9.851   2.126  12.469  0.0045  0.3130  0.2182
10141W        W29675   4.697  13.523  11.041  0.0006  0.3121  0.3032
10142W        W29676   1.934  15.658   4.125  0.0100 -0.2458  0.0375
10143W        W29677  16.278  17.321   3.063 -0.5247 -0.2264  0.1972
10144W        W29678   8.989   4.683  13.994  0.0621  0.0650 -0.2305
10145W        W29679  17.793   3.199  14.765  0.2858 -0.0218  0.0563
10146W        W29680   4.957  17.793  13.694  0.2597 -0.2283 -0.1433
10147W        W29681  13.926   9.598  11.251 -0.0451  0.0465  0.2269
10148W        W29682  12.468  16.950  11.980  0.1317  0.0246 -0.1718
10149W        W29683   7.491  13.262  13.210 -0.2368  0.1249  0.0486
10150W        W29684  14.636   6.856   2.081  0.0920 -0.1385  0.1211
10151W        W29685  11.547   2.178   2.210  0.2473  0.4377  0.0019
10152W        W29686  10.781   4.409  13.862  0.0119  0.4297  0.0094
10153W        W29687  13.718   7.797  12.808 -0.2113  0.1235 -0.0583
10154W        W29688   9.624   2.853   1.859 -0.2555  0.1497  0.3635
10155W        W29689  13.257  11.192  14.281  0.0948  0.0333  0.4073
10156W        W29690   2.814  13.379   4.261  0.1285 -0.2497  0.0681
10157W        W29691   1.464  15.821   3.759  0.1683 -0.3841 -0.2071
10158W        W29692   5.563   8.770   3.853  0.0304 -0.2061 -0.1756
10159W        W29693   4.343   2.533   0.037 -0.0303 -0.0508  0.3246
10160W        W29694  14.777   7.577  13.410 -0.0650  0.4259 -0.0778
10161W        W29695  13.022  17.862   0.651 -0.1464  0.2348 -0.0721
10162W        W29696  11.264   4.991  14.209  0.2649  0.3359  0.1061
10163W        W29697  18.153   4.213   2.319 -0.1010  0.0857  0.0415
10164W        W29698  12.553  15.464  10.897 -0.2019  0.0942 -0.3893
10165W        W29699   0.874   7.304   1.684 -0.0498 -0.2179  0.1881
10166W        W29700   8.890   9.131  13.725 -0.0090  0.2258  0.0637
10167W        W29701  15.762   4.332  11.933  0.0308  0.0339 -0.1695
10168W        W29702   4.260   8.599  14.400 -0.1813  0.0215  0.3140
10169W        W29703   9.876  17.814  14.197 -0.1494 -0.0632 -0.0322
10170W        W29704   3.915  15.203  11.251  0.1630  0.1924  0.0060
10171W        W29705  12.794   0.636  10.539 -0.2329 -0.1774  0.3097
10172W        W29706   2.448  13.996  14.267 -0.0163 -0.0282  0.3451
10173W        W29707   0.995   3.489   3.742 -0.1171 -0.2750  0.1425
10174W        W29708  12.849  12.401   2.048  0.0410 -0.0042 -0.0432
10175W        W29709   6.105  11.837   2.077  0.0466 -0.2145  0.2078
10176W        W29710   0.471  10.053  12.783  0.0316  0.0996 -0.3625
10177W        W29711   2.040  16.565  12.885 -0.1616 -0.0113 -0.0846
10178W        W29712  12.806   0.432   4.450 -0.0832  0.0475  0.0834
10179W        W29713  12.663  13.410  13.220  0.0680  0.0230 -0.1232
10180W        W29714  12.540  18.039   0.268 -0.0970 -0.0570 -0.0392
10181W        W29715  12.613   3.726   2.602 -0.2766  0.0418  0.2875
10182W        W29716   0.862   3.255   4.141 -0.1894  0.0622 -0.0059
10183W        W29717   7.526  12.206  14.158  0.0084  0.2132  0.1284
10184W        W29718   9.774  12.667  13.026 -0.0460 -0.0826  0.2564
10185W        W29719  11.438   9.401  13.502  0.0904 -0.3097 -0.1572
10186W        W29720   7.984  13.250   2.586 -0.0140 -0.1885  0.0177
10187W        W29721   7.728  11.680   1.922  0.1850 -0.0174  0.0512
10188W        W29722  13.637  10.666  14.429  0.0049  0.1789 -0.1282
10189W        W29723   8.462  18.121  10.907  0.0450 -0.0904  0.2380
10190W        W29724  17.859  18.975   9.431 -0.2057 -0.0727  0.2274
10191W        W29725  14.090   3.837   0.739  0.1483  0.1808 -0.3410
10192W        W29726   6.855  10.637   0.294 -0.1442  0.0681 -0.0530
10193W        W29727   2.781   0.709  14.379  0.1821  0.0376  0.0809
10194W        W29728   4.600   9.244   4.517 -0.0277 -0.1480 -0.0058
10195W        W29729   5.979  17.868   2.735  0.4559 -0.1567 -0.0070
10196W        W29730   1.009  16.996   0.001 -0.0304  0.0042 -0.2312
10197W        W29731   3.853   9.584  12.819  0.3236 -0.4280 -0.0170
10198W        W29732  14.318   9.261   3.652 -0.0566  0.0379 -0.1147
10199W        W29733   9.775  12.881  13.887  0.2708  0.0669 -0.2019
10200W        W29734   5.825  16.152  11.993  0.0405  0.2498 -0.4263
10201W        W29735   9.547  13.040   0.637  0.1464 -0.1134  0.3010
10202W        W29736  10.673   7.475   3.643  0.0408 -0.3016  0.0506
10203W        W29737  14.639   7.857  11.498  0.1367 -0.0839 -0.2101
10204W        W29738   0.730  16.319  12.253  0.1068  0.1087 -0.0069
10205W        W29739  15.864  11.536   1.706 -0.1393  0.0255 -0.1003
10206W        W29740  17.490  11.885  13.545 -0.1367  0.0705 -0.1550
10207W        W29741  18.779   9.999  11.630 -0.0931  0.1118  0.0437
10208W        W29742   7.132  10.532   2.322 -0.1606  0.0871  0.4119
10209W        W29743   3.627  12.125  11.444 -0.0336 -0.1027  0.2618
10210W        W29744  15.438  15.933   3.612  0.0119  0.1836 -0.2924
10211W        W29745   7.689   3.068  14.078 -0.2966  0.1116  0.2681
10212W        W29746   0.984  10.879   3.219 -0.1140 -0.2075 -0.0201
10213W        W29747   3.789   1.483   3.662  0.1173  0.1672  0.1261
10214W        W29748  14.657  17.080  14.672  0.2034  0.1724  0.0428
10215W        W29749   8.036   3.980  11.412  0.1415  0.2711  0.2693
10216W        W29750   9.625   1.684   9.901  0.0096 -0.1998  0.2173
10217W        W29751   3.043  13.323  13.010  0.0442 -0.0505  0.1200
10218W        W29752   4.060   4.617   2.463 -0.0382 -0.1175 -0.0239
10219W        W29753   4.407  11.470   0.209 -0.3101  0.2225  0.2258
10220W        W29754   3.727   4.780   3.802 -0.1285  0.0722 -0.1927
10221W        W29755   0.407  10.104   0.987  0.1323  0.1264 -0.1439
10222W        W29756  14.519  17.113  12.762 -0.2695 -0.1509 -0.1204
10223W        W29757  12.825   2.812   2.354  0.0079 -0.2899  0.1908
10224W        W29758  11.774   5.917  11.288 -0.0442  0.0437  0.0407
10225W        W29759  15.676   7.310  10.352 -0.2143 -0.0282 -0.1337
10226W        W29760   1.957   7.587   1.247  0.0996  0.0060 -0.1359
10227W        W29761   9.007   0.549   0.078  0.1019 -0.2395 -0.0531
10228W        W29762   6.353   6.856  12.485 -0.2575 -0.1455 -0.0101
10229W        W29763  16.974   3.447   3.889 -0.0509 -0.1133 -0.0317
10230W        W29764   6.673  18.172  14.075  0.1351 -0.0711 -0.1284
10231W        W29765  19.091  15.791   0.784  0.2121 -0.1230 -0.2997
10232W        W29766   2.460   5.041   2.173 -0.1999  0.0757  0.4219
10233W        W29767  16.351  10.325  12.820 -0.1394  0.1455 -0.3381
10234W        W29768  14.404  12.782   0.676  0.4170  0.2234 -0.0046
10235W        W29769   0.276   9.577  12.163 -0.2438 -0.0586 -0.0416
10236W        W29770   7.782  14.210  13.482  0.0178 -0.0312 -0.0171
10237W        W29771   0.191  16.190  11.592  0.1201  0.1040 -0.2026
10238W        W29772  16.971   6.124   1.670 -0.1083  0.1371 -0.1405
10239W        W29773  17.223  12.454  11.787  0.2871  0.0536 -0.0581
10240W        W29774  10.913   4.587   3.403  0.1839 -0.0048 -0.0102
10241W        W29775  13.976  10.212   2.246  0.0527 -0.0730  0.2878
10242W        W29776  16.293   1.471   2.210  0.3529 -0.1100  0.2143
10243W        W29777  15.910   7.308   3.504  0.0931 -0.0965 -0.0891
10244W        W29778   9.419  15.785   3.172  0.0507 -0.0261 -0.3086
10245W        W29779  17.030   5.974   0.154 -0.1972  0.0355  0.2814
10246W        W29780  16.946   9.017  10.899 -0.0304  0.2414  0.1404
10247W        W29781  17.549   7.342   1.174 -0.0398  0.0493 -0.1041
10248W        W29782   0.237   3.672   3.151  0.1406 -0.3361  0.0520
10249W        W29783  10.410   4.646   1.131 -0.2796 -0.4194  0.0818
10250W        W29784   5.382  18.939   0.898  0.3492  0.0928 -0.0068
10251W        W29785  10.523   7.347   4.113 -0.2355  0.1301  0.1041
10252W        W29786  16.376   9.429   1.872 -0.2285  0.2412  0.2309
10253W        W29787  17.133  11.039  14.819 -0.0844 -0.2211 -0.0172
10254W        W29788   5.988   1.599   4.005  0.0474  0.0631  0.2342
10255W        W29789  10.983   9.241  14.088 -0.1391  0.0777  0.0634
10256W        W29790  17.702   5.006   0.786 -0.0942  0.1876 -0.1328
10257W        W29791  14.921  11.460   3.967  0.0364 -0.1386  0.0781
10258W        W29792  11.453  16.861  11.902 -0.2229  0.0392  0.2638
10259W        W29793  18.431  14.018   2.348 -0.1359 -0.1296  0.2051
10260W        W29794  11.813   7.298  13.358 -0.0086  0.0256 -0.1178
10261W        W29795  15.191   1.633   1.459  0.1370 -0.2667  0.0399
10262W        W29796   9.220   8.051  12.308  0.1629  0.1786  0.0634
10263W        W29797  10.879   6.387   0.024 -0.6182 -0.1738 -0.1996
10264W        W29798  15.793  15.775   0.926  0.1318  0.1042 -0.0552
10265W        W29799  13.268   8.726   2.906  0.1900 -0.2642  0.2964
10266W        W29800  16.489   3.728   1.342  0.3236  0.0443  0.2218
10267W        W29801  17.215  11.548  12.240  0.0724  0.1484  0.2090
10268W        W29802  13.271  11.927   1.509 -0.3025  0.0304  0.1422
10269W        W29803  11.632  13.130   3.709  0.0795 -0.3140  0.0142
10270W        W29804  11.867  16.133  14.744  0.0974 -0.0095  0.1179
10271W        W29805  14.319   5.656  11.138 -0.1511  0.0880 -0.0385
10272W        W29806  14.101  12.135  10.795  0.3200  0.4590  0.1621
10273W        W29807   9.400   5.381  14.611 -0.0627  0.1808  0.1633
10274W        W29808  10.790   5.494   2.153 -0.4434  0.1135  0.5436
10275W        W29809  16.362   6.407  11.242 -0.2878  0.0566 -0.1485
10276W        W29810   6.908  13.424   3.130  0.2008  0.1605 -0.2743
10277W        W29811  10.773   3.290  14.277 -0.1517 -0.2076  0.2717
10278W        W29812   6.557  15.823   2.372 -0.0803 -0.2853  0.2456
10279W        W29813   1.813   3.298  10.373 -0.0186 -0.0925  0.1877
10280W        W29814   1.042   4.474   2.844  0.0755  0.1522  0.1738
10281W        W29815   1.882   9.458   3.322 -0.0421 -0.0647 -0.1014
10282W        W29816   4.996   4.839   0.568  0.1447  0.0673 -0.2569
10283W        W29817  18.001   9.570   4.132  0.2038 -0.0143  0.0688
10284W        W29818  13.723  18.889  14.320  0.2068  0.2764  0.1660
10285W        W29819   8.210  11.751  13.307 -0.1778  0.1631 -0.0649
10286W        W29820  15.597   6.319   2.609 -0.1552 -0.1644  0.2894
10287W        W29821  13.296   8.490  14.221 -0.2287 -0.3247 -0.0410
10288W        W29822   4.683   2.796  11.682  0.0503  0.1659  0.1623
10289W        W29823  14.247  11.964  11.445 -0.0630 -0.1287 -0.1184
10290W        W29824   4.366  18.894  14.782  0.0714  0.3125  0.1705
10291W        W29825   3.873  18.648  13.642  0.0011 -0.0884 -0.0144
10292W        W29826  13.784   3.129   4.274  0.4218 -0.0689  0.1880
10293W        W29827  13.861  10.316   1.707 -0.0812  0.0895 -0.0117
10294W        W29828   6.074  17.585  11.455 -0.0640  0.1131 -0.0721
10295W        W29829  17.410  16.488   3.002 -0.1556  0.3529  0.0188
10296W        W29830  12.233   0.524   3.494  0.3380  0.2013 -0.2063
10297W        W29831  18.295  14.747   2.416 -0.4508 -0.1789  0.1278
10298W        W29832   2.165   9.624   2.025  0.1640  0.0146 -0.0445
10299W        W29833  12.354  11.693   5.101 -0.0172 -0.1269  0.1502
10300W        W29834   2.905   7.460  13.848  0.0989  0.2522 -0.1165
10301W        W29835  15.051   7.058  13.558  0.1407 -0.2251  0.1462
10302W        W29836  14.117  17.215   5.338 -0.2699 -0.1712 -0.2601
10303W        W29837   2.679   7.469   4.299 -0.0270  0.2750  0.0312
10304W        W29838   0.727   1.895  14.016 -0.0310  0.0658 -0.1186
10305W        W29839   6.497   5.628   1.043  0.0355  0.1685 -0.1396
10306W        W29840   0.171  10.304   2.311 -0.1516 -0.0689 -0.0964
10307W        W29841  11.687  11.187   0.165 -0.3009  0.0421 -0.0688
10308W        W29842  16.180   8.794  13.943  0.1068 -0.1653  0.1390
10309W        W29843  18.625   1.691   1.322 -0.3098 -0.1626  0.4341
10310W        W29844  14.470   7.521   0.286 -0.0676  0.1208  0.0545
10311W        W29845  12.595  11.377  11.588  0.2108 -0.0351  0.0483
10312W        W29846  11.180   6.458  10.562  0.2661  0.3035  0.3423
10313W        W29847   2.289   5.125   3.944  0.2267 -0.2159 -0.0353
10314W        W29848  12.866  10.760   0.671 -0.0941  0.0929  0.0949
10315W        W29849   8.318   6.378   0.549  0.4983 -0.0395  0.0626
10316W        W29850  11.896   8.810   0.819 -0.1443 -0.2445 -0.1666
10317W        W29851  17.749   2.942  13.159  0.3049  0.1213  0.0014
10318W        W29852   7.946   7.671   4.084  0.1574 -0.0348  0.0944
10319W        W29853  13.696   1.176   2.760  0.0819 -0.3319 -0.0796
10320W        W29854   8.255  12.402   3.575  0.2732 -0.0212  0.2323
10321W        W29855  19.068  12.416   2.062  0.1116 -0.0592 -0.0402
10322W        W29856   2.774  17.507   0.818  0.1684  0.2165 -0.0984
10323W        W29857  10.604  11.939   2.339  0.3165  0.0700  0.0991
10324W        W29858  17.932   8.490   1.936  0.1422 -0.1787  0.1017
10325W        W29859  13.777   7.058   3.529 -0.3018 -0.1629  0.1770
10326W        W29860   5.101   0.318  12.053 -0.1259  0.2038  0.3384
10327W        W29861  15.319   9.292  13.986 -0.0015 -0.2095  0.1286
10328W        W29862   0.712   0.475   0.593  0.2281  0.0386  0.0477
10329W        W29863  13.020  17.955  11.664  0.2183 -0.1393  0.1691
10330W        W29864   4.934  17.837  12.201 -0.0175  0.2494 -0.0565
10331W        W29865   8.517  10.711  13.215  0.3029 -0.1267  0.1774
10332W        W29866   7.294  18.377   2.760  0.3083  0.0172  0.0069
10333W        W29867  15.442  13.606  13.980 -0.0747 -0.0158 -0.0517
10334W        W29868   8.433  17.232   3.087  0.2423 -0.1169 -0.1228
10335W        W29869  15.574   1.646  11.856 -0.0268 -0.0180 -0.1089
10336W        W29870   7.945  17.546  11.480 -0.0337 -0.0266  0.0135
10337W        W29871   6.858   6.619  14.114 -0.0402  0.1285  0.3813
10338W        W29872   3.868   8.970  14.255 -0.0807  0.4544  0.0519
10339W        W29873  14.069  16.440  14.224 -0.1866  0.1980 -0.1452
10340W        W29874  14.167  18.018   3.374 -0.1268 -0.0182 -0.0016
10341W        W29875   9.674   2.812   1.367 -0.0126  0.3600  0.0652
10342W        W29876   3.240  12.371   0.037  0.0460 -0.1694  0.0215
10343W        W29877  15.703   1.730   0.134  0.2037 -0.0684 -0.0957
10344W        W29878   8.636   6.066   1.505 -0.0122  0.0389  0.3206
10345W        W29879   3.514   7.399   4.590  0.1214 -0.2906 -0.0637
10346W        W29880   8.501  14.342  14.640  0.1855  0.1770  0.0734
10347W        W29881   9.636   9.086  11.477 -0.0178  0.2710  0.1888
10348W        W29882   7.321   0.804  14.015 -0.3287  0.0405  0.1503
10349W        W29883   8.898  11.376  13.471  0.0431 -0.1908 -0.0976
10350W        W29884   0.084   9.289  11.247  0.2503 -0.0367  0.2223
10351W        W29885   1.204  13.962   1.196 -0.0659  0.1777  0.0191
10352W        W29886  18.536  16.012   2.997  0.1413  0.2628  0.1522
10353W        W29887  12.456   8.075  12.110  0.4138 -0.1006 -0.1309
10354W        W29888  10.798   1.084   2.848 -0.4174 -0.2290 -0.1671
10355W        W29889  11.742   9.198   3.469 -0.0739 -0.2550  0.1687
10356W        W29890   7.201   7.765   0.855 -0.0928  0.0341 -0.4161
10357W        W29891  13.446   8.869   0.234  0.0017 -0.0040 -0.1441
10358W        W29892  12.725  18.003  14.389 -0.0319 -0.0014  0.2662
10359W        W29893  19.000  13.111  13.866 -0.0168 -0.5433 -0.1377
10360W        W29894   9.548   6.780  14.555 -0.1017 -0.1977  0.2353
10361W        W29895   1.759   0.130   3.247  0.1640 -0.1899  0.3131
10362W        W29896  11.472   8.465  11.930 -0.1483  0.2003 -0.1463
10363W        W29897   3.849   2.716   0.199  0.1332 -0.0121  0.1339
10364W        W29898  13.161   2.996   0.310 -0.0581  0.2200 -0.1276
10365W        W29899   1.728  14.132   1.175  0.0599  0.3782 -0.0983
10366W        W29900   7.021  17.779   4.024 -0.1850 -0.0797 -0.1004
10367W        W29901   8.749  12.807   2.758 -0.0108 -0.0678 -0.3879
10368W        W29902   8.698   9.958  12.626  0.2186 -0.1857 -0.1119
10369W        W29903   4.857   1.164   2.454  0.1286 -0.1853  0.0417
10370W        W29904  18.905   3.483  13.112 -0.1011  0.0962 -0.0079
10371W        W29905   5.149   9.949   2.306  0.1567 -0.1938  0.0186
10372W        W29906   4.727   3.202  11.400  0.0371  0.0506 -0.2460
10373W        W29907  18.780   3.974  13.066 -0.0890 -0.1901 -0.0095
10374W        W29908   9.140   1.685  13.459  0.0393  0.2094  0.0585
10375W        W29909   5.643   1.160   0.726 -0.1433  0.3494 -0.0338
10376W        W29910   2.135  11.296   0.014 -0.0560 -0.1018 -0.0459
10377W        W29911  15.168  10.188   2.216 -0.0337  0.1048  0.1345
10378W        W29912   4.313  18.377   1.777  0.0265 -0.0546  0.2055
10379W        W29913   5.151   1.106   1.146 -0.3622 -0.1382  0.1789
10380W        W29914   7.950  16.374   1.147  0.2731 -0.0469 -0.0799
10381W        W29915   4.595  13.395  12.020  0.0050 -0.0536  0.2211
10382W        W29916  18.107   0.386  11.982  0.0354  0.2030 -0.0862
10383W        W29917   8.448  12.767  13.176 -0.1668  0.0344  0.2277
10384W        W29918  16.673  11.200  11.049  0.0242 -0.0351  0.0307
10385W        W29919  13.789  17.982  10.993 -0.0294 -0.2365  0.0341
10386W        W29920   8.660   2.584   1.321 -0.0113 -0.0952  0.0831
10387W        W29921  10.690  12.749  13.503  0.0885  0.1125 -0.2080
10388W        W29922   3.643   2.635   1.980 -0.0187  0.1352  0.3937
10389W        W29923  12.384  10.998  11.354  0.1946  0.0354 -0.4198
10390W        W29924  11.907  11.994  13.490 -0.0684 -0.0075  0.2099
10391W        W29925   1.898   9.855  12.719  0.0460 -0.0918  0.1561
10392W        W29926  16.051  11.677  11.513  0.0793  0.1172  0.0737
10393W        W29927  10.340  17.870  11.910  0.1667 -0.1219  0.0040
10394W        W29928  17.340  10.355  11.884 -0.1292 -0.1542  0.2766
10395W        W29929   7.159   7.446  12.360  0.0356 -0.1156  0.0581
10396W        W29930  14.000  16.959   0.205 -0.1232  0.1973 -0.4212
10397W        W29931  18.433  17.561   2.173  0.0500  0.3981 -0.2386
10398W        W29932  10.341  10.401   1.993 -0.0868  0.0281  0.0526
10399W        W29933  15.383  15.081  13.590 -0.2551  0.0774 -0.1763
10400W        W29934  12.569   1.896   3.454 -0.0089 -0.2275  0.4640
10401W        W29935   9.070   2.329  13.161  0.2288 -0.0018  0.1123
10402W        W29936  11.173   1.231  12.417 -0.1507 -0.2969 -0.1903
10403W        W29937  10.907  15.582  12.899 -0.6270 -0.2586 -0.0708
10404W        W29938   1.256  17.826  12.733 -0.0799  0.1803 -0.1483
10405W        W29939   9.160  13.355   4.039 -0.0509 -0.2114  0.2877
10406W        W29940   2.210   3.665   2.163 -0.3414  0.0059 -0.2429
10407W        W29941  12.351  10.033   0.182  0.3768  0.0078 -0.0022
10408W        W29942   0.149  13.586   0.603  0.0684  0.0133  0.2767
10409W        W29943  14.432   5.580   0.928  0.2176  0.0851  0.3598
10410W        W29944   9.656  12.584   2.531 -0.0416  0.0368  0.0181
10411W        W29945  12.625   6.844  14.492  0.0276  0.0021 -0.0946
10412W        W29946   4.813   2.259  11.655 -0.1558  0.1317 -0.1301
10413W        W29947  12.342  14.627   9.736  0.1285 -0.0201 -0.4341
10414W        W29948  16.597  13.766  13.785 -0.2576  0.1700 -0.3126
10415W        W29949   1.731   7.336   2.671  0.2424  0.0117  0.2948
10416W        W29950   6.700  12.463   2.082  0.1432 -0.3342  0.3984
10417W        W29951  13.669  15.256  10.053 -0.0358 -0.1706 -0.1144
10418W        W29952   8.041   0.411   3.434  0.1284  0.2691  0.1562
10419W        W29953   0.827  12.835  13.613 -0.0847 -0.1008 -0.2858
10420W        W29954   4.240  16.714   2.184  0.0577  0.2223  0.0787
10421W        W29955   6.744  18.123  12.579 -0.0685 -0.1296 -0.4058
10422W        W29956   1.454   2.448   4.873  0.0577  0.1583  0.0482
10423W        W29957   1.854  11.888   2.966 -0.0884 -0.2198 -0.3301
10424W        W29958   6.217   9.166  10.825 -0.0345  0.0196 -0.1906
10425W        W29959   9.888  11.541   2.970 -0.1676  0.1138 -0.0262
10426W        W29960   2.870   4.213   1.791 -0.1014 -0.2492  0.0285
10427W        W29961  11.356   4.451  11.257  0.2139  0.3546 -0.3430
10428W        W29962  18.410   6.535   3.592 -0.0596 -0.0722  0.0836
10429W        W29963   8.597   3.506  13.182 -0.1273 -0.4786  0.1536
10430W        W29964   5.448   3.133   3.057  0.0312 -0.0147  0.0440
10431W        W29965  11.121  10.902  12.603  0.0887  0.3336 -0.3076
10432W        W29966   2.360  14.635  14.130 -0.0005  0.0746  0.1176
10433W        W29967  11.165   4.470   0.276  0.0256 -0.0476 -0.0523
10434W        W29968   4.998   4.364  11.362 -0.2833  0.1661 -0.1409
10435W        W29969   2.758   9.182   4.451  0.0505  0.1294 -0.0048
10436W        W29970  12.775   6.030  14.393  0.0482  0.0105  0.1900
10437W        W29971   8.239  14.560   5.533  0.1734 -0.1811 -0.2647
10438W        W29972  11.068   1.793  13.025 -0.0222 -0.1360 -0.2092
10439W        W29973   5.922   4.336  13.954  0.1022 -0.0926  0.0704
10440W        W29974  18.008   4.398   4.006 -0.0656  0.2622 -0.0845
10441W        W29975   0.945   1.413  12.345 -0.2684  0.0000  0.0851
10442W        W29976   3.941   8.369  12.282  0.1172 -0.0452  0.2042
10443W        W29977  18.628  10.474  11.696  0.1018  0.0053 -0.1986
10444W        W29978  17.267  16.299   1.665  0.0994  0.0580 -0.0585
10445W        W29979  12.923   8.826   2.572  0.0705  0.1540 -0.0746
10446W        W29980   9.251   9.640  13.836  0.0804 -0.0237 -0.3105
10447W        W29981   8.794  13.382  13.757 -0.0833  0.2272 -0.1743
10448W        W29982   6.476   2.173   1.777 -0.0519 -0.1572  0.1754
10449W        W29983  13.809  13.938   1.291  0.2427  0.1881 -0.4552
10450W        W29984   4.551   2.537   0.726 -0.0826  0.0649  0.1333
10451W        W29985   1.617   5.768  11.841  0.1696  0.0305  0.0782
10452W        W29986   4.136   8.146   1.562 -0.0517 -0.0649  0.3671
10453W        W29987   3.082  11.373   0.225  0.1018  0.1978 -0.0567
10454W        W29988  17.658   4.985  12.087 -0.3033  0.0751 -0.0805
10455W        W29989  13.447  12.407  13.642 -0.2652 -0.1392 -0.1248
10456W        W29990  19.120   7.267  14.549  0.0646 -0.0746 -0.0986
10457W        W29991   0.168  10.018   3.555  0.2080 -0.3137 -0.0618
10458W        W29992   8.418  15.158   4.017 -0.2502 -0.1250 -0.1846
10459W        W29993  10.510  11.673   1.461 -0.0289  0.2950  0.1079
10460W        W29994  10.554  14.921  11.535  0.2579 -0.2315 -0.2398
10461W        W29995   3.833   6.915   3.600  0.2527  0.0607  0.0082
10462W        W29996  16.787  17.671  14.375 -0.0784 -0.0070  0.1243
10463W        W29997  15.116  18.093   0.163 -0.0522 -0.0220  0.0781
10464W        W29998  13.361   6.945   1.223 -0.1679  0.1943 -0.2325
10465W        W29999  17.871  12.242   0.604  0.5156  0.1144  0.1294
10466W        W30000  10.784   6.415  14.192 -0.0645  0.1338 -0.1026
10467W        W30001  18.309   3.285   2.609  0.1699  0.2177 -0.0768
10468W        W30002  17.189  10.274  14.403 -0.0510  0.0175 -0.1258
10469W        W30003   3.777  14.443   0.496  0.2058 -0.1473 -0.3015
10470W        W30004   7.866  14.285  11.278 -0.0066  0.0955 -0.2583
10471W        W30005  10.839   7.238   3.144 -0.3397  0.4170 -0.0719
10472W        W30006  12.958   1.047   3.490  0.1845 -0.1833 -0.1142
10473W        W30007   2.331   6.146   2.222 -0.1635  0.0873  0.0012
10474W        W30008  11.073   2.919   0.939 -0.0459  0.1364  0.0258
10475W        W30009   5.964   5.636   1.011 -0.1972 -0.0399  0.1487
10476W        W30010   5.448   0.950  10.725 -0.1034  0.0438  0.3720
10477W        W30011  13.445  11.295   2.799 -0.3083  0.1641  0.0121
10478W        W30012  16.879   4.831  13.485  0.2497 -0.3923  0.2416
10479W        W30013   0.295   7.020  11.852 -0.0046  0.0370  0.1702
10480W        W30014  11.148  14.273  11.054  0.0110  0.1645  0.0374
10481W        W30015  11.968  15.182   2.944 -0.1632 -0.3084 -0.0891
10482W        W30016  16.169   3.968  12.092 -0.2057  0.1834 -0.3863
10483W        W30017   9.283  17.790  13.010  0.2614 -0.1678  0.0101
10484W        W30018   5.671   6.012   0.805  0.1308  0.1457  0.0451
10485W        W30019  10.257  10.090  14.375  0.1282 -0.0917 -0.0093
10486W        W30020  13.526  14.680  14.508 -0.1529 -0.2571 -0.3317
10487W        W30021  18.685   8.661  11.881 -0.0344 -0.1455  0.1630
10488W        W30022   0.025   3.012   0.480  0.3787 -0.0986 -0.0611
10489W        W30023   6.853   0.852   0.842 -0.0270  0.1126 -0.2563
10490W        W30024   4.792   2.648  10.153 -0.2924 -0.2382  0.0360
10491W        W30025   7.473  15.590  11.954 -0.2815 -0.2418  0.3830
10492W        W30026   1.273  14.728   0.562 -0.0284  0.4416  0.0323
10493W        W30027  18.453   5.051   3.511 -0.0348 -0.1830  0.2146
10494W        W30028   0.150  10.257   0.049 -0.3466  0.0618  0.4030
10495W        W30029   2.569   0.889   0.182 -0.1889  0.0408 -0.1580
10496W        W30030   8.156  15.932   2.726  0.4102  0.1094 -0.2982
10497W        W30031   4.207   0.963  12.718  0.0387 -0.2546 -0.2775
10498W        W30032  17.558  13.992  14.722  0.1107  0.0090  0.2679
10499W        W30033  13.807   9.768  13.400  0.0254 -0.0809  0.2006
10500W        W30034   7.977   9.929  13.997  0.1148 -0.2347 -0.0687
10501W        W30035  17.216  10.764  10.370 -0.1728 -0.2220  0.0061
10502W        W30036   1.734   9.004  13.958 -0.3993  0.2929  0.1821
10503W        W30037  14.581   9.634   0.421 -0.1368  0.0791  0.5621
10504W        W30038   5.908   5.109  13.738 -0.1060 -0.1668  0.0698
10505W        W30039   5.211  15.080   0.843 -0.3304 -0.1489 -0.1111
10506W        W30040  13.261  10.796  12.088  0.0660 -0.0428 -0.0497
10507W        W30041   2.551   0.109   1.262 -0.1155  0.1804 -0.1255
10508W        W30042  17.336  15.533   2.334  0.0403 -0.0003  0.0279
10509W        W30043   9.782   0.081  12.719  0.2125 -0.2980  0.1227
10510W        W30044  12.497   7.908  14.732  0.2725  0.0559  0.0790
10511W        W30045   2.691   1.114   4.687 -0.0393  0.2910  0.0135
10512W        W30046   1.326   6.090  14.581 -0.1315  0.0625  0.2666
10513W        W30047   2.025   2.648   2.859  0.2871  0.0871  0.0922
10514W        W30048  10.120   8.635  13.463  0.0561  0.1905 -0.3805
10515W        W30049  18.605  15.606  13.876 -0.2042 -0.2906  0.3700
10516W        W30050   1.610  14.880   0.157  0.0960 -0.2222  0.3135
10517W        W30051   1.362   6.515  11.238  0.1035 -0.1252 -0.1100
10518W        W30052   8.539  11.250   3.775  0.0797 -0.5533 -0.0567
10519W        W30053   3.398   0.673  12.372 -0.2545 -0.2378 -0.1174
10520W        W30054   7.332   2.683  14.635  0.0099  0.0390 -0.3220
10521W        W30055   2.460  13.374   3.107 -0.0373  0.1761  0.0887
10522W        W30056   6.458  10.141  11.274 -0.1430  0.2889 -0.0742
10523W        W30057  12.585  10.702   2.126 -0.3107 -0.2647  0.2518
10524W        W30058   2.988  10.203   0.339  0.1925 -0.2775 -0.0446
10525W        W30059   0.548   6.977   1.459  0.1974 -0.1103  0.0342
10526W        W30060  10.830   4.896   4.203 -0.1417  0.1646 -0.2059
10527W        W30061  14.935  17.746  11.080 -0.3487  0.2859 -0.0760
10528W        W30062  15.447   2.415  13.437 -0.0718 -0.0960  0.2790
10529W        W30063  12.821   5.587  14.590 -0.1293 -0.2880  0.1926
10530W        W30064  16.924  18.425   0.774  0.0172  0.1014 -0.1459
10531W        W30065  16.806   2.230   1.958 -0.1787  0.0770 -0.1828
10532W        W30066   5.689  16.691   0.191  0.0178 -0.1128 -0.0132
10533W        W30067  11.758   4.576   1.044  0.0420  0.0276 -0.2553
10534W        W30068  15.883   0.899   3.576  0.0650 -0.1314 -0.3416
10535W        W30069   9.526  12.452  12.373 -0.0926 -0.0357  0.1797
10536W        W30070   3.985  10.750  11.816 -0.0422  0.1222  0.0535
10537W        W30071   2.080   5.423   1.697  0.0355  0.0536 -0.4019
10538W        W30072   1.789   7.106   1.236 -0.2469  0.0615 -0.1342
10539W        W30073   3.344  11.894   3.450  0.1188 -0.1771 -0.1029
10540W        W30074  17.606  17.884   0.576  0.1279 -0.0070 -0.1117
10541W        W30075   5.368  16.740  13.680 -0.3783  0.0067 -0.3260
10542W        W30076   1.495   2.295  13.521 -0.3100  0.1813 -0.1795
10543W        W30077  18.255   6.102   0.139  0.2969 -0.0490 -0.0446
10544W        W30078   7.524   3.793  13.568 -0.0659  0.1913 -0.1910
10545W        W30079  11.560  18.774  14.451 -0.1670  0.0645 -0.2486
10546W        W30080  10.554  18.033   0.001  0.2134 -0.0788  0.3193
10547W        W30081   9.222  14.159   2.551 -0.0038  0.1067 -0.1401
10548W        W30082  16.599  13.534  13.327  0.0174 -0.0352  0.3532
10549W        W30083  13.016  12.534   2.643  0.3771 -0.0645 -0.1701
10550W        W30084  18.843  15.315   0.718  0.2450 -0.1625 -0.4535
10551W        W30085  15.139   6.828   1.906  0.0356 -0.0186  0.0398
10552W        W30086  13.100  15.506  11.800  0.2094 -0.1815 -0.1673
10553W        W30087  14.380   3.781  13.538  0.0859  0.3825  0.1735
10554W        W30088  10.477  17.991  12.934  0.3024  0.2548  0.0916
10555W        W30089   0.581   7.520  11.871 -0.2507 -0.2008  0.0325
10556W        W30090   7.681  18.807  12.414 -0.1551 -0.1472 -0.0219
10557W        W30091   6.326  11.236  13.001  0.2970 -0.4637  0.1005
10558W        W30092   7.739  17.035  12.466  0.0691 -0.1450  0.1371
10559W        W30093   0.829   8.994  14.023 -0.3259 -0.1177 -0.1160
10560W        W30094   7.895  18.994  14.618  0.2548 -0.0361  0.1748
10561W        W30095   5.138  17.447   1.327  0.0923  0.3843 -0.0155
10562W        W30096  10.376  10.130   1.547  0.0203  0.0242 -0.1304
10563W        W30097  13.710   3.711  12.054 -0.2663  0.0155 -0.1319
10564W        W30098   9.478  14.677   4.173  0.3250 -0.0402 -0.3319
10565W        W30099  14.937  13.761  13.901 -0.2062  0.2357 -0.0939
10566W        W30100   8.491  11.197   1.698 -0.1144  0.1022 -0.1178
10567W        W30101   3.583  17.344  12.681 -0.2340 -0.0173 -0.0027
10568W        W30102  15.404   7.221   3.563 -0.3623 -0.1757  0.2001
10569W        W30103   4.585   4.450   0.385 -0.0277 -0.1593 -0.0533
10570W        W30104   5.589   7.909   3.464 -0.0336  0.0807 -0.2008
10571W        W30105   0.703  11.120  12.914 -0.4434  0.2258 -0.0285
10572W        W30106   0.167  10.019  13.173 -0.1778 -0.0751 -0.1888
10573W        W30107  11.304  15.149   2.176 -0.2996 -0.2036 -0.0261
10574W        W30108  10.623   9.067  14.430 -0.1627  0.2679  0.0400
10575W        W30109   9.637  13.292   1.150  0.1864  0.0396  0.2004
10576W        W30110  10.518  18.292  11.720 -0.0552  0.1732  0.1900
10577W        W30111   5.030  18.631  11.524  0.3240 -0.0370  0.0569
10578W        W30112   5.648   6.547   2.918  0.1567 -0.1088 -0.0622
10579W        W30113   2.164  12.564  14.839 -0.0724  0.1111 -0.1976
10580W        W30114  16.038  15.944  12.315  0.1242 -0.1657  0.1640
10581W        W30115   5.808  11.701   2.762 -0.1814  0.0926  0.0001
10582W        W30116  10.497  10.641  13.735 -0.3379  0.1537 -0.1329
10583W        W30117   2.135   4.526   1.284  0.3115 -0.0616  0.0351
10584W        W30118   6.145  10.090   2.939  0.1217 -0.3077  0.0567
10585W        W30119   4.979  16.462  11.988  0.0311 -0.0493  0.1852
10586W        W30120   7.976   6.274  10.880 -0.2964 -0.0427  0.3107
10587W        W30121  16.394   0.199   0.840 -0.1147  0.0871  0.0880
10588W        W30122  12.320   2.757   2.265  0.1358 -0.0270  0.1725
10589W        W30123   9.787   3.344   2.695 -0.0641 -0.3684  0.2778
10590W        W30124  10.372   1.036  11.804 -0.0659  0.2165  0.0198
10591W        W30125   3.859  18.730   3.435 -0.2519 -0.2430  0.0821
10592W        W30126   4.445   0.849   4.768 -0.0954 -0.0301  0.0749
10593W        W30127   0.446  14.814  13.719 -0.2721 -0.1082  0.4244
10594W        W30128  18.663   3.693  13.542  0.2498 -0.1185  0.2117
10595W        W30129   0.657   7.993  13.109 -0.0271  0.1404  0.0798
10596W        W30130   7.104   4.139   1.770  0.1302  0.0071 -0.0475
10597W        W30131   7.831   7.908  12.923  0.1435  0.0640  0.2528
10598W        W30132   9.744  12.899  12.136 -0.1895  0.0074  0.1152
10599W        W30133  12.308  14.343  14.656  0.2855  0.0209  0.4287
10600W        W30134   4.379  18.312   2.279 -0.4541  0.1145 -0.0078
10601W        W30135  12.693   3.216   2.642 -0.1811  0.2385  0.1618
10602W        W30136  14.247  18.689   4.641 -0.0446 -0.1866  0.1029
10603W        W30137   8.128  15.930   1.600 -0.2227  0.2031 -0.1527
10604W        W30138   7.213  13.043  11.145  0.0583  0.1809  0.1228
10605W        W30139  14.169   5.738   3.905  0.1369  0.1440  0.1353
10606W        W30140  16.976   4.340   2.957  0.1803  0.0859 -0.1263
10607W        W30141  16.696   1.181   2.216 -0.0059 -0.1831 -0.1676
10608W        W30142   6.521  13.203  11.078 -0.1837  0.0971  0.0426
10609W        W30143   1.976   1.215  13.507  0.2989  0.2345 -0.3415
10610W        W30144  15.673   2.156  14.718  0.1045  0.1673 -0.1593
10611W        W30145   9.387   9.231   2.228 -0.1161  0.0406  0.0589
10612W        W30146  15.485   5.670   1.896  0.1188 -0.0288 -0.0396
10613W        W30147  14.118  18.736   0.815  0.0742  0.0434 -0.2144
10614W        W30148  10.698   4.748   1.518  0.0973 -0.2476  0.2374
10615W        W30149   2.613  15.153  13.315  0.0268 -0.0393 -0.2133
10616W        W30150  16.387  10.026  14.284  0.0678 -0.2163 -0.4571
10617W        W30151   3.742   3.521  13.034  0.0592 -0.0623 -0.2118
10618W        W30152   2.997  15.237   0.148  0.0363 -0.0756  0.0556
10619W        W30153   0.726  16.630  14.825  0.0469  0.3545  0.1951
10620W        W30154  18.263  13.434   2.289  0.0531  0.0404  0.0108
10621W        W30155   9.041   1.730  10.845  0.1205 -0.0106 -0.1765
10622W        W30156   4.467   0.305   0.117 -0.1480  0.2138  0.1067
10623W        W30157  11.452  15.952  12.400  0.1525 -0.1837  0.2320
10624W        W30158   6.431   4.066   4.046  0.0031  0.0370 -0.1094
10625W        W30159  16.069  14.676  14.541  0.0595  0.1975  0.1554
10626W        W30160  18.150  12.279  13.332  0.2976 -0.0798 -0.0885
10627W        W30161  14.572  10.604   4.027  0.0184  0.0326 -0.0469
10628W        W30162   0.528   4.524  12.738 -0.2763  0.0288  0.0426
10629W        W30163   8.049  15.602  12.807  0.0718  0.0210  0.0319
10630W        W30164   5.985  13.819   1.320  0.1584 -0.1592  0.0185
10631W        W30165   1.540   3.890   2.553 -0.0949  0.1763 -0.2665
10632W        W30166   9.931   7.294  14.616  0.1325  0.0850  0.2242
10633W        W30167  10.816  18.554   3.317  0.0733 -0.3075  0.2886
10634W        W30168  13.614  11.218  14.772 -0.0758  0.0965  0.0747
10635W        W30169  15.297   3.895  12.084 -0.0915 -0.1575  0.0471
10636W        W30170  18.350   8.628   3.243 -0.0215  0.3480 -0.1261
10637W        W30171  18.145   2.823   4.240 -0.0922 -0.0499  0.0719
10638W        W30172  19.001  13.886   4.008  0.0354 -0.0020  0.1241
10639W        W30173  10.815   4.531  11.821 -0.1018  0.0936 -0.0266
10640W        W30174  14.158   1.790  10.649  0.0627 -0.1273 -0.1638
10641W        W30175   1.334   0.262   2.169  0.1912  0.2728  0.0175
10642W        W30176  13.235   4.585   4.387 -0.1422 -0.1499 -0.1599
10643W        W30177  12.423   1.063   3.158 -0.0607  0.0255 -0.3739
10644W        W30178  12.308  18.365   2.009 -0.0299 -0.0528 -0.0718
10645W        W30179   8.795  14.324  13.271 -0.1576  0.1034 -0.1699
10646W        W30180   5.802   3.631   1.791  0.1184  0.0109 -0.1896
10647W        W30181   5.659   0.997   1.745 -0.1391  0.1374  0.3541
10648W        W30182   0.078  14.941   1.798  0.1323 -0.0407  0.2639
10649W        W30183   3.429  18.630   2.356 -0.5641  0.1839 -0.2820
10650W        W30184  14.802   5.348  14.787 -0.1729 -0.1835  0.4305
10651W        W30185   6.539  10.166  14.275  0.1976  0.2563  0.0083
10652W        W30186  12.894  17.363   3.077 -0.1611 -0.0052 -0.1717
10653W        W30187   1.901  11.197  13.363 -0.0678 -0.0301 -0.0877
10654W        W30188   9.782  12.218  11.889  0.2916  0.0137  0.0832
10655W        W30189  13.625   8.481  13.470 -0.2301  0.0827 -0.1042
10656W        W30190  11.853   7.828   4.007 -0.2527  0.0714  0.1735
10657W        W30191  11.973  16.558   4.956 -0.0852  0.1834 -0.0154
10658W        W30192  16.419   0.343  12.606  0.1246 -0.1654  0.0833
10659W        W30193   2.158   2.149  11.031  0.0773 -0.3437  0.0407
10660W        W30194  17.595   7.897  13.413  0.2196  0.0050  0.0386
10661W        W30195   1.168  18.282   1.956  0.0597 -0.0715  0.1447
10662W        W30196  17.285  11.969  13.060  0.0060  0.1361 -0.0099
10663W        W30197  17.306   4.071   3.360 -0.1252  0.3728  0.2329
10664W        W30198  18.919   1.308   3.008 -0.0551 -0.0174 -0.1891
10665W        W30199  14.943  10.973   4.831 -0.2921 -0.0089  0.0354
10666W        W30200  11.510   5.516   1.333 -0.0061 -0.0005 -0.2408
10667W        W30201   8.346   8.472   2.270 -0.1167 -0.3346  0.3129
10668W        W30202  11.396   4.481  10.626  0.1136 -0.0567  0.2918
10669W        W30203  17.436   0.128  13.967 -0.0821 -0.0991  0.2723
10670W        W30204   8.408  11.281  13.541 -0.0710 -0.1167 -0.0401
10671W        W30205  12.377   2.736  13.399 -0.3902  0.0914 -0.0664
10672W        W30206   5.020  11.049   2.214 -0.2030 -0.1118  0.1041
10673W        W30207  16.150  11.227   1.952 -0.3066  0.1037  0.0226
10674W        W30208  17.228  16.806   1.741 -0.1563 -0.3031  0.1682
10675W        W30209   6.368  16.819   3.980  0.0829 -0.0600  0.0067
10676W        W30210   5.100  16.970   0.439 -0.2290  0.0694  0.3288
10677W        W30211   3.142  14.549  13.196  0.0559  0.1374  0.1976
10678W        W30212   5.391  11.318   4.016 -0.2825  0.0032  0.2205
10679W        W30213   6.278  15.640  12.607  0.1932  0.1367  0.1272
10680W        W30214  10.806   5.063  13.031 -0.1809 -0.4492  0.1015
10681W        W30215   5.553   4.039   0.701 -0.3717  0.0980  0.3886
10682W        W30216  11.270   1.767   4.773  0.0688 -0.2715 -0.0920
10683W        W30217   5.567  10.025  11.022  0.1216  0.0157  0.0504
10684W        W30218   1.788  15.852   3.034  0.0703  0.1569  0.2218
10685W        W30219  12.957  15.450   1.647 -0.1277 -0.2508 -0.3099
10686W        W30220   4.655   0.118  13.308 -0.0894 -0.0152 -0.0628
10687W        W30221   5.897  12.607  14.236  0.0665  0.0910 -0.0525
10688W        W30222   8.303   9.581  13.001 -0.1196 -0.0711  0.0220
10689W        W30223  16.317  15.555  13.279  0.1223  0.0758  0.0794
10690W        W30224   3.072  10.323   4.468  0.0181 -0.0923 -0.2458
10691W        W30225  13.335   1.044   3.169  0.1607 -0.1523 -0.1213
10692W        W30226   2.384   4.135   2.081  0.0510 -0.2463  0.1868
10693W        W30227  15.852   4.660  11.533  0.1071 -0.1447 -0.1570
10694W        W30228   7.277  10.958   0.134  0.1396  0.1016 -0.1484
10695W        W30229  18.629   4.496  11.282  0.0713  0.3077 -0.0430
10696W        W30230  18.027   5.774  14.345  0.0003 -0.0274  0.3867
10697W        W30231   6.592  17.014   2.970  0.1238 -0.1151  0.2089
10698W        W30232   7.584  17.973   2.872 -0.0012  0.0100  0.0073
10699W        W30233  18.682  14.569  11.423  0.0202  0.2625  0.1183
10700W        W30234  11.181   6.832   1.670 -0.1059  0.1846 -0.0083
10701W        W30235  10.686  13.654  13.551 -0.0104  0.2431 -0.0593
10702W        W30236   2.239   4.250  12.023  0.0839  0.0329 -0.0109
10703W        W30237  17.727   2.977   1.715  0.1023  0.3640 -0.0527
10704W        W30238   3.852   1.972   3.970  0.0110  0.0820 -0.3087
10705W        W30239  15.081  13.224  14.119 -0.1843  0.2002 -0.0244
10706W        W30240   7.856   8.173  10.323 -0.1328 -0.0817 -0.2818
10707W        W30241  15.156  10.649  13.807  0.0672 -0.0317  0.0282
10708W        W30242   5.825  18.131   3.211 -0.0393 -0.0883 -0.0045
10709W        W30243  15.672  10.045   0.105 -0.1661 -0.0813  0.0211
10710W        W30244  13.259   1.481   2.357 -0.0858  0.0941 -0.1305
10711W        W30245  10.037   5.195  12.388 -0.1115 -0.0929 -0.0641
10712W        W30246  14.580   2.551  13.293 -0.0289  0.0898  0.1734
10713W        W30247  10.828   3.434   2.793  0.0777  0.3006  0.1906
10714W        W30248   8.245  16.402   2.326 -0.4469 -0.0894 -0.0043
10715W        W30249   0.955  10.632  11.911 -0.1055 -0.1013  0.3412
10716W        W30250  15.078   1.050   0.638 -0.1348  0.1988 -0.1650
10717W        W30251   7.178   4.320   2.269 -0.1627 -0.2221  0.1010
10718W        W30252   5.804   9.208   3.006 -0.1169  0.2239 -0.5536
10719W        W30253   6.130   0.608   4.299 -0.0608  0.2293  0.2969
10720W        W30254  15.078  18.850   3.580 -0.0699  0.2190  0.0912
10721W        W30255   1.977   8.192  11.061  0.0178 -0.1401  0.1883
10722W        W30256  17.304  13.119   3.431  0.0969 -0.2362  0.5255
10723W        W30257  12.694   6.665   1.771 -0.2683 -0.0583 -0.2186
10724W        W30258  12.966   2.244  12.812  0.0518  0.0737  0.0203
10725W        W30259  17.670   6.827   0.974  0.1196 -0.2135 -0.2391
10726W        W30260   0.730   4.960   1.770  0.2365 -0.3016  0.3620
10727W        W30261  14.269  10.772  13.255  0.1100  0.0267 -0.2182
10728W        W30262   7.661   6.284  14.135 -0.2714  0.0940  0.0029
10729W        W30263   2.410  17.215   3.977 -0.1572 -0.2272  0.0094
10730W        W30264  17.942  10.008   1.088  0.0165 -0.1695  0.2466
10731W        W30265   7.739  17.521  10.555 -0.0485  0.1162 -0.2544
10732W        W30266   3.337  11.856   0.162 -0.2537 -0.0677  0.2046
10733W        W30267  18.842  10.195  13.181 -0.1387  0.2961 -0.0613
10734W        W30268   8.736  10.499   1.332 -0.0424 -0.2543 -0.1890
10735W        W30269  12.489  11.260   1.882 -0.1876 -0.0600 -0.0417
10736W        W30270  10.192   8.970   2.995 -0.0802  0.2866  0.1773
10737W        W30271   4.607  10.933   1.669  0.0336  0.3464  0.0821
10738W        W30272   9.798  10.850   3.094 -0.1850  0.1248 -0.3311
10739W        W30273  15.442  17.877   0.971  0.0556 -0.2959  0.3085
10740W        W30274   1.898  12.460  13.318  0.0030 -0.1195  0.2503
10741W        W30275  12.668  11.220   3.842  0.1294  0.2375  0.0007
10742W        W30276   0.407   1.685  13.295  0.2117  0.0615 -0.1239
10743W        W30277   1.545  11.490   0.819 -0.0024 -0.1989 -0.0664
10744W        W30278   0.299   8.871  14.617  0.0569  0.0214 -0.1577
10745W        W30279  13.855   5.369   4.206 -0.0151 -0.3002  0.0128
10746W        W30280  12.474   3.676   0.838 -0.0528  0.1355  0.0494
10747W        W30281   6.135   3.546  10.044 -0.2727  0.1834 -0.2688
10748W        W30282   9.181   2.185   3.964  0.1209  0.3822 -0.0370
10749W        W30283   0.851  13.393   0.193  0.1287  0.1056  0.0573
10750W        W30284  12.340  18.287   3.382  0.0955 -0.0849 -0.0057
10751W        W30285  13.466  13.336  10.349  0.3189  0.2744  0.0001
10752W        W30286   8.509   8.809   2.607  0.3042  0.0227 -0.0875
10753W        W30287   6.592   4.747   9.346 -0.1415  0.0665  0.4369
10754W        W30288   3.432  17.377  14.646  0.0692 -0.2622  0.5255
10755W        W30289  15.229  14.213  14.415 -0.2024 -0.0467 -0.0585
10756W        W30290   8.949   3.512  11.762 -0.4934  0.1100 -0.0340
10757W        W30291  16.035   3.966   1.560  0.0116 -0.0239 -0.1308
10758W        W30292   1.770   6.461   3.858  0.1247  0.1470  0.1723
10759W        W30293   1.032  11.149  13.656 -0.0394  0.2952 -0.1331
10760W        W30294  11.998   1.579  13.291 -0.0253  0.2085 -0.3118
10761W        W30295   3.483  15.684  14.802  0.2576  0.1009 -0.3524
10762W        W30296  18.325  18.555  10.645  0.0561 -0.0288 -0.5877
10763W        W30297  17.476   6.823  14.292 -0.1638  0.0853 -0.0632
10764W        W30298   1.627   6.430  12.867  0.1177 -0.2262 -0.2135
10765W        W30299  18.415   9.920  11.130 -0.1500  0.0430 -0.2176
10766W        W30300  18.131  13.669  11.235 -0.2548  0.1139  0.0630
10767W        W30301   5.627   3.039   3.913  0.0190 -0.0084  0.2641
10768W        W30302   8.450  15.876  11.576  0.2139  0.0350 -0.0988
10769W        W30303   5.069  15.465   4.426  0.0698  0.0033  0.2594
10770W        W30304   4.256   9.487  11.542 -0.2569 -0.1268  0.0743
10771W        W30305   8.784  15.393  11.667 -0.0952 -0.1473 -0.0030
10772W        W30306   4.357   9.614   2.120  0.1824 -0.3247 -0.1128
10773W        W30307  16.474   1.256   0.815  0.0061  0.0060  0.0916
10774W        W30308  11.860  15.799  11.099 -0.2044 -0.0566 -0.1515
10775W        W30309   0.998   6.775   1.761 -0.1458  0.2488 -0.3198
10776W        W30310   8.964   5.980  11.827  0.1409  0.0037 -0.5643
10777W        W30311  16.616  10.264  10.840  0.2882  0.2419 -0.1366
10778W        W30312   6.824   0.620  13.010 -0.0184  0.1672  0.1148
10779W        W30313  15.957   8.595   1.545 -0.1134  0.0467  0.0812
10780W        W30314  13.303  10.995  13.255 -0.4026  0.1444 -0.1777
10781W        W30315  10.395  16.739   0.320  0.1829  0.0911  0.1802
10782W        W30316   3.820  12.615   4.382  0.1680 -0.2429  0.1246
10783W        W30317   5.127  18.711   0.222  0.2695 -0.0333  0.0155
10784W        W30318   7.754   6.802  10.902  0.2116  0.0435 -0.2538
10785W        W30319   2.488  17.853  11.099 -0.0194  0.2351  0.0414
10786W        W30320  12.086   8.532   2.736 -0.1005  0.1301 -0.0066
10787W        W30321   6.157   5.806  11.146  0.1015  0.1895  0.1485
10788W        W30322  18.355   8.716   1.219  0.2291  0.0960  0.1250
10789W        W30323   6.371   9.667   4.255  0.0861  0.2028 -0.2574
10790W        W30324  11.909   2.323  11.067 -0.0033 -0.0641 -0.0104
10791W        W30325   3.818   4.243  12.762 -0.1737 -0.2009 -0.0452
10792W        W30326  11.611  16.209   1.204  0.1538  0.3023 -0.2821
10793W        W30327  12.007   1.409  11.039 -0.1862 -0.1326  0.1441
10794W        W30328  13.464  16.583   4.523  0.1418  0.1532  0.0384
10795W        W30329   8.935   1.293  11.998  0.1107  0.0334  0.2486
10796W        W30330   9.293   6.493   1.236  0.3879  0.0754 -0.1389
10797W        W30331   9.374   3.518  14.601 -0.0179 -0.0067  0.2370
10798W        W30332  14.622  17.618   0.554 -0.0428 -0.3316  0.2480
10799W        W30333  17.274   2.582   3.469  0.0731 -0.1605 -0.3100
10800W        W30334   0.454  15.740   0.786 -0.0489 -0.0230 -0.3179
10801W        W30335  10.313   6.653  12.877  0.0268  0.3350  0.2543
10802W        W30336   1.482  15.254  13.969  0.3469 -0.0870  0.1038
10803W        W30337  17.746  15.833   1.127  0.2882 -0.0803 -0.2076
10804W        W30338   4.346   1.056   4.133  0.2194  0.0674 -0.0092
10805W        W30339  12.793   4.638  10.718  0.1319  0.2633  0.4059
10806W        W30340   2.848  11.965   3.263  0.0488  0.4123  0.1266
10807W        W30341  12.588  13.977  11.504 -0.1361 -0.1727  0.2168
10808W        W30342   2.834   4.429   9.374  0.1947  0.2938 -0.0292
10809W        W30343   9.085   2.311   1.391  0.2184 -0.0782  0.0471
10810W        W30344   0.145   4.010   1.554 -0.0401  0.0331 -0.1993
10811W        W30345  17.571  14.639  10.871  0.0074  0.1282  0.1661
10812W        W30346   8.318  15.539  11.931 -0.0235  0.1145  0.0777
10813W        W30347  12.804  16.278  12.433 -0.0716  0.4145 -0.1043
10814W        W30348  12.738  16.509  11.943  0.0192  0.0434  0.2800
10815W        W30349  16.458   6.749  11.642 -0.1383 -0.2408 -0.1493
10816W        W30350   5.953  18.877   0.365  0.0497  0.0413 -0.3539
10817W        W30351  14.245  12.403  12.212  0.0966 -0.0371 -0.3025
10818W        W30352   8.350  10.731  14.508 -0.0586  0.0873 -0.0137
10819W        W30353   4.062  15.614   0.991  0.3530 -0.0885  0.2709
10820W        W30354  17.051  15.698  12.066 -0.0245  0.0730 -0.1549
10821W        W30355   8.539   6.771   3.822  0.1722  0.1316 -0.4169
10822W        W30356   5.548   4.915  10.478 -0.3063  0.0045 -0.1438
10823W        W30357   8.590   9.715  14.819  0.2115 -0.0268 -0.1687
10824W        W30358  16.859   5.020  14.825  0.2167  0.0200  0.1097
10825W        W30359   3.238   9.419  11.801 -0.5594 -0.2645  0.4547
10826W        W30360   5.051  15.531  11.999 -0.1380 -0.0153 -0.1826
10827W        W30361  11.482   4.601   2.603  0.1750  0.0959  0.0114
10828W        W30362   0.326   3.718   0.666 -0.1973 -0.2154 -0.4531
10829W        W30363  10.825   0.970   1.911  0.0486 -0.4625  0.1368
10830W        W30364  10.839  11.090   0.545  0.1347  0.3370 -0.0555
10831W        W30365  12.086  15.347  12.459 -0.0495 -0.0090 -0.1971
10832W        W30366  18.149   5.295  13.109 -0.0342  0.0284 -0.2099
10833W        W30367   0.759   1.019   1.503  0.0486  0.0629 -0.1989
10834W        W30368   6.822  12.247   3.882 -0.2124 -0.2358 -0.1614
10835W        W30369  11.050  18.454   2.751 -0.0313  0.1769  0.1351
10836W        W30370   7.018  11.240   0.983 -0.0720 -0.1565 -0.0145
10837W        W30371  11.440  15.225   3.618 -0.0115 -0.1540 -0.0319
10838W        W30372   2.939  15.393   2.556  0.1588  0.0342 -0.1664
10839W        W30373   2.209   5.171  12.552 -0.1247 -0.0697 -0.1984
10840W        W30374  10.849   0.978   5.799  0.0172  0.1021  0.0770
10841W        W30375  16.175   5.241   2.482 -0.0482 -0.0958 -0.2860
10842W        W30376  11.743  14.689   4.717 -0.0239 -0.0474  0.1128
10843W        W30377  11.207  15.127   1.625  0.1548 -0.1245  0.0992
10844W        W30378   5.830   7.272   0.565  0.1142  0.0454 -0.0324
10845W        W30379  10.486  16.831   2.438  0.1530 -0.1396 -0.4090
10846W        W30380  13.739  16.095  11.133 -0.1635  0.2274 -0.2309
10847W        W30381   5.765  16.838   4.167  0.0355  0.2154  0.1590
10848W        W30382  14.457  16.307  13.987 -0.2672  0.3769  0.0877
10849W        W30383  17.130  11.359  13.755 -0.0311 -0.3029  0.3094
10850W        W30384   6.999  17.283   3.241  0.0416 -0.0912  0.1020
10851W        W30385   6.638  12.883   0.351 -0.0609 -0.0113 -0.2438
10852W        W30386   9.739   5.255   3.645 -0.1463  0.4651 -0.1360
10853W        W30387   3.079   1.157  13.873 -0.1355 -0.2314 -0.3118
10854W        W30388  17.967   3.838  12.697 -0.4159 -0.0342  0.3252
10855W        W30389   7.161   9.364  11.093 -0.0875  0.3879 -0.2277
10856W        W30390   0.446  10.091  11.333 -0.1902  0.3129 -0.0934
10857W        W30391  17.251   4.713   2.167  0.3374  0.1073  0.1273
10858W        W30392   1.636   0.587   3.511 -0.0322 -0.0752 -0.0230
10859W        W30393  18.212   3.706  10.955 -0.3173  0.1630 -0.1564
10860W        W30394  17.125   8.153  13.469  0.3908  0.0465  0.0670
10861W        W30395  12.385  16.098  13.563 -0.2172  0.2719  0.2290
10862W        W30396   4.371   7.540   2.931 -0.0738  0.0919 -0.1591
10863W        W30397  18.785   6.642   0.116 -0.0114  0.0828  0.3495
10864W        W30398  10.867   8.652   0.777 -0.3181  0.2417 -0.1075
10865W        W30399  18.927   1.324  11.315  0.3691  0.0427  0.3123
10866W        W30400   9.405  14.073  14.159  0.1144  0.0043  0.3160
10867W        W30401  15.258   6.546  11.797 -0.0879  0.4560  0.0987
10868W        W30402   1.700  12.822   0.224 -0.2470 -0.3231 -0.0049
10869W        W30403  14.221   2.070  12.502  0.0537 -0.1768 -0.0242
10870W        W30404   3.789   9.629   0.876  0.1661 -0.3378 -0.0379
10871W        W30405   4.784   1.340   0.906 -0.3590  0.1324 -0.0914
10872W        W30406  12.048   7.561  12.666  0.0727  0.1100  0.0830
10873W        W30407   5.790  14.571  11.741 -0.0123 -0.0104  0.0158
10874W        W30408   5.225   7.587   3.333  0.0637 -0.0918 -0.0840
10875W        W30409   6.572   8.193  13.864  0.2223 -0.2184  0.2880
10876W        W30410  14.632  13.402  10.832 -0.2227  0.1133 -0.1456
10877W        W30411   7.229   4.913   0.535  0.0728  0.1317  0.0055
10878W        W30412   3.994  15.740   1.756 -0.0196  0.2454  0.1432
10879W        W30413  17.598  18.703   2.935  0.1756 -0.0970 -0.0524
10880W        W30414  16.888   2.617   1.700  0.1122  0.0747 -0.3108
10881W        W30415  15.015  15.938   1.305  0.1413 -0.1552 -0.0546
10882W        W30416   2.245  18.085  12.094 -0.0942  0.0933 -0.0941
10883W        W30417  16.420   3.628  12.410 -0.1089 -0.0084 -0.1729
10884W        W30418  14.425  10.726   1.975 -0.1728 -0.1044 -0.1185
10885W        W30419  18.882   1.868  12.075 -0.2686  0.0509  0.0974
10886W        W30420  10.674  15.803   2.652  0.1648 -0.3444  0.1980
10887W        W30421   2.949   3.850   0.300 -0.1018 -0.0452 -0.1403
10888W        W30422   7.968  11.874  11.730  0.1187 -0.0075  0.0250
10889W        W30423   3.793  10.728   0.158  0.3300 -0.2671  0.1762
10890W        W30424  18.400  10.537  13.980 -0.3600 -0.3396  0.0712
10891W        W30425   1.908  18.484   3.895 -0.0947 -0.0614  0.4098
10892W        W30426  14.027   3.629  11.640 -0.3082  0.2846 -0.0591
10893W        W30427   2.678  18.252   4.029 -0.0655  0.0538 -0.0263
10894W        W30428   4.726  18.772  13.249 -0.3742 -0.3100  0.1732
10895W        W30429  16.946  12.868  12.912 -0.1208 -0.2319  0.0208
10896W        W30430   2.933  14.635  11.242  0.0252  0.0790  0.1862
10897W        W30431   4.696  10.125   0.623  0.1472  0.0906  0.0096
10898W        W30432   2.699  15.087   3.949  0.2906  0.4074  0.2552
10899W        W30433  10.675   9.899   2.376  0.4308  0.1004  0.0190
10900W        W30434  18.162  17.381  13.276 -0.1177 -0.1230  0.0879
10901W        W30435  16.351  15.799  12.678 -0.2553 -0.2362 -0.1969
10902W        W30436  14.115  16.402   2.536  0.1276  0.3155  0.0477
10903W        W30437  11.964  11.959   4.089 -0.0211 -0.2003 -0.3423
10904W        W30438   8.200   6.317  13.324 -0.1043  0.0566 -0.1172
10905W        W30439  12.529   1.477  12.657 -0.0816  0.2618  0.0759
10906W        W30440   0.148   6.868  13.728  0.0101  0.2378 -0.0758
10907W        W30441   8.973   4.757   2.152  0.3326 -0.0726  0.2712
10908W        W30442   7.469   0.000  11.864 -0.0398 -0.1608  0.0833
10909W        W30443  18.729  18.111  13.266 -0.0238  0.1237 -0.1541
10910W        W30444   4.525   5.502  14.340 -0.1151 -0.1964 -0.0306
10911W        W30445   7.910   9.856   0.570 -0.0513  0.1979 -0.2139
10912W        W30446  15.312  16.387  13.920  0.0662  0.0302  0.3047
10913W        W30447   0.131  17.961   3.768  0.0856  0.1041  0.0999
10914W        W30448   4.599   6.894  13.582  0.1218  0.3123  0.0370
10915W        W30449   2.938  11.781  14.646  0.0267 -0.0295 -0.4391
10916W        W30450   3.589   9.155   1.766 -0.1542  0.0068 -0.0512
10917W        W30451   7.355   9.920  13.034 -0.0907  0.0195 -0.1166
10918W        W30452  13.940  18.972   3.175 -0.1810  0.1420  0.1194
10919W        W30453   2.788   6.554  12.153  0.0601 -0.1648  0.3130
10920W        W30454  18.889   2.970  11.989 -0.0346 -0.1125  0.3200
10921W        W30455  13.833  11.485   3.196 -0.5055  0.0259  0.0748
10922W        W30456  15.349  10.689  11.065  0.1268  0.1897  0.1450
10923W        W30457  10.198   3.733   0.895  0.0016 -0.7655 -0.1430
10924W        W30458   8.282   5.285   1.546 -0.0674 -0.1442 -0.4846
10925W        W30459  14.265  12.224   0.784  0.0175  0.0914  0.2061
10926W        W30460   7.433   7.554   3.229 -0.3089 -0.1333 -0.3281
10927W        W30461  18.698   3.479  11.042  0.1916 -0.3820  0.1024
10928W        W30462  17.421  18.989   3.315  0.0376 -0.1506  0.0882
10929W        W30463  11.054   8.512   2.049 -0.1159  0.1617 -0.2831
10930W        W30464   2.301   7.751  12.447  0.0733 -0.0438 -0.3595
10931W        W30465   6.495   9.102  13.592  0.2070  0.1867  0.0504
10932W        W30466   4.038   5.919  13.459 -0.1845  0.2628  0.1053
10933W        W30467   3.268   0.902   0.651 -0.1374 -0.0906  0.1130
10934W        W30468  18.786  14.746   2.207  0.1450 -0.1779  0.0437
10935W        W30469   6.320  18.337  13.718  0.3784 -0.2079  0.3543
10936W        W30470   0.777   9.970  10.950  0.1503 -0.0133  0.0180
10937W        W30471   3.750  11.471  11.123 -0.0387  0.1387 -0.1500
10938W        W30472   2.346  15.772  12.815  0.3423  0.0582 -0.1150
10939W        W30473   5.012  16.636   1.741  0.0857  0.1798  0.0853
10940W        W30474   0.163   3.240  12.078 -0.2475 -0.1806 -0.0857
10941W        W30475  10.513   6.899  13.314 -0.0294 -0.2773  0.1636
10942W        W30476  14.158  14.194  14.695 -0.0391  0.1044 -0.3633
10943W        W30477   8.897  14.407   1.576  0.3321  0.0603  0.3652
10944W        W30478   7.457  13.392  10.508  0.0113  0.3189  0.1545
10945W        W30479  18.715  12.098   2.815 -0.2055  0.1373 -0.0923
10946W        W30480  10.017   0.544   2.068 -0.0356 -0.3267 -0.2473
10947W        W30481  13.359  15.800  11.258  0.0782 -0.1143  0.5299
10948W        W30482  10.781  10.462   2.287  0.0692 -0.1418 -0.1672
10949W        W30483   1.688   2.026  13.944 -0.3954  0.0049  0.0539
10950W        W30484  10.481  14.220  11.888 -0.1297 -0.0608  0.2666
10951W        W30485   3.401   8.987   1.149  0.0939 -0.1729 -0.1598
10952W        W30486  14.580  10.507   3.485 -0.0487  0.2153 -0.3303
10953W        W30487   7.339   8.980   3.822  0.2450  0.0991  0.0606
10954W        W30488  16.725  15.199  11.243  0.0544 -0.1334 -0.2523
10955W        W30489   1.318   2.288   4.407  0.5098 -0.0367  0.0053
10956W        W30490   6.527   0.272   3.760  0.0786  0.2370  0.1461
10957W        W30491  14.520   4.324  12.092  0.1677  0.1182 -0.1772
10958W        W30492   0.416  11.041  12.141 -0.0176 -0.1434  0.2657
10959W        W30493  12.505  11.345  13.116 -0.0983  0.0133  0.0791
10960W        W30494  12.115   9.970   4.072  0.0037  0.1549  0.3144
10961W        W30495  13.458   0.226   3.827 -0.0559  0.1660  0.0708
10962W        W30496  11.535   6.541  13.552  0.1734 -0.3547 -0.2345
10963W        W30497   8.350  13.115   0.104 -0.1652 -0.1098 -0.0360
10964W        W30498  16.890  17.999   0.018  0.1605 -0.1857 -0.3028
10965W        W30499   2.731   2.084   3.723 -0.1961  0.1655 -0.0122
10966W        W30500  10.953  16.936   0.106  0.2619 -0.2362 -0.0771
10967W        W30501   7.270   4.654  13.304 -0.3851  0.1099 -0.2021
10968W        W30502   8.543   8.440  14.520 -0.1139  0.2614 -0.3191
10969W        W30503   3.239  12.184   0.584 -0.1523 -0.0790 -0.0802
10970W        W30504   2.281  18.835   1.609  0.2747  0.0197  0.2553
10971W        W30505  18.955  16.395   4.078  0.2747 -0.0428  0.1380
10972W        W30506   2.691   6.350   4.243  0.0148  0.2926 -0.2480
10973W        W30507  17.877  14.089  12.909  0.1520 -0.1788  0.0187
10974W        W30508  18.050  13.954  10.306 -0.0853  0.1420  0.0058
10975W        W30509  11.087  17.311  13.841 -0.1708 -0.1457  0.2391
10976W        W30510  13.520  16.173   3.031  0.2333 -0.0548  0.2871
10977W        W30511   4.680   4.842  10.240 -0.0548 -0.3037  0.1820
10978W        W30512   9.962   2.648   3.132 -0.1627  0.3421 -0.0844
10979W        W30513  12.183  12.389   4.281 -0.0553 -0.0264 -0.2343
10980W        W30514  18.896   0.794  14.692 -0.1923 -0.2150  0.0129
10981W        W30515  17.564  12.769  11.985 -0.0115 -0.0990 -0.0112
10982W        W30516   0.481  16.120  13.427  0.3253 -0.1164 -0.1674
10983W        W30517   4.087   0.931  13.244 -0.1020  0.4514 -0.0784
10984W        W30518  14.289   5.445   2.766 -0.0610  0.1457  0.1386
10985W        W30519  12.648   9.679  13.685 -0.3234  0.0628  0.0279
10986W        W30520   2.907   6.532   2.793 -0.2553  0.0127  0.0680
10987W        W30521   6.827   1.445   1.456 -0.0826 -0.1632  0.0463
10988W        W30522   9.498  10.413  14.707  0.1021  0.2235  0.2374
10989W        W30523   5.169  18.270  13.814 -0.0359 -0.0172  0.2172
10990W        W30524   7.853  13.680   3.594 -0.1000  0.0116 -0.1320
10991W        W30525   3.785   9.943  11.656  0.1702 -0.0697 -0.2553
10992W        W30526   6.624   1.439  12.396  0.1153 -0.1104 -0.2467
10993W        W30527   0.100  15.788  14.463  0.3328  0.0067 -0.4333
10994W        W30528  11.211  16.481  11.389  0.1353  0.2119  0.2072
10995W        W30529  16.888   0.116   0.869  0.0595 -0.2063  0.0719
10996W        W30530  11.665   0.511   2.771 -0.2447 -0.0968  0.1126
10997W        W30531   0.093   2.351   1.548 -0.0282 -0.0617 -0.2592
10998W        W30532  15.201  12.598  12.954  0.1273  0.2037  0.0292
10999W        W30533   3.849   0.074   0.649  0.1296 -0.1834  0.4055
11000W        W30534  10.297   8.266   3.485 -0.1968  0.0417  0.1983
11001W        W30535   2.756  15.686  13.805 -0.1196  0.0915  0.2223
11002W        W30536  12.141   2.234  13.157 -0.1195  0.2980  0.1896
11003W        W30537  19.092   8.207  13.498 -0.0523 -0.0360  0.1513
11004W        W30538  16.285  10.795  12.985 -0.3040  0.1215  0.2458
11005W        W30539   0.114   5.076  10.881  0.2112  0.3402 -0.3416
11006W        W30540  15.868  13.819  13.838 -0.0124  0.1107 -0.2400
11007W        W30541   3.189  15.114  13.563 -0.0364 -0.1537  0.2665
11008W        W30542   2.618  11.160   0.006  0.0033 -0.0721 -0.2502
11009W        W30543  15.775  14.871  11.661 -0.1623 -0.0170 -0.1120
11010W        W30544   2.269  17.362  14.142  0.0464  0.2078  0.2603
11011W        W30545   0.861  12.193   2.092  0.0898 -0.0412 -0.3262
11012W        W30546  10.605  11.198   3.435 -0.1032 -0.4235  0.0721
11013W        W30547  14.052   5.535  12.707  0.1242  0.0306  0.1963
11014W        W30548   5.914  17.671  14.196  0.2163 -0.0899  0.0202
11015W        W30549   4.784  16.865  13.629 -0.0736  0.0960 -0.0512
11016W        W30550   6.751   4.425  11.054 -0.2888  0.0733  0.1636
11017W        W30551   1.831   9.168   4.087  0.1866 -0.2102  0.0370
11018W        W30552   0.106  12.913  14.722  0.3141  0.0736  0.2592
11019W        W30553   4.996  13.135  14.622  0.4565  0.0728 -0.1413
11020W        W30554   0.480   7.940   0.951  0.1783 -0.0541  0.0592
11021W        W30555   8.582   9.889   3.290  0.1145  0.0341  0.1522
11022W        W30556  18.468  12.425  12.965  0.0544  0.1098 -0.2165
11023W        W30557  16.829   8.570   2.820 -0.0361 -0.1710  0.1190
11024W        W30558   8.353   5.290   0.247  0.0640 -0.1555 -0.1320
11025W        W30559  18.952   6.853  10.259  0.0152 -0.2192 -0.2955
11026W        W30560   0.879   6.918   2.559 -0.0879 -0.1158 -0.0269
11027W        W30561  17.351   2.817  14.163  0.0914  0.0507  0.1775
11028W        W30562   3.552   3.069  12.919 -0.1535  0.0969 -0.0176
11029W        W30563  14.058  14.756   3.758  0.1241  0.0573 -0.2445
11030W        W30564  16.390   4.258   1.851 -0.3278 -0.1576 -0.2144
11031W        W30565   7.885   8.726  12.729  0.1087  0.1056  0.2364
11032W        W30566  11.852  16.936   0.964  0.3468 -0.0213 -0.1340
11033W        W30567   7.155   1.744   2.473 -0.1169  0.1148 -0.0060
11034W        W30568   7.357   9.424   3.419  0.3045 -0.1088 -0.1102
11035W        W30569   5.275   0.286   4.071  0.2694  0.1864 -0.0545
11036W        W30570   4.892  12.111  11.738  0.2542 -0.1519  0.1629
11037W        W30571  17.219   8.355   1.437 -0.3758 -0.0931 -0.2772
11038W        W30572  13.477   7.410  12.532  0.0494 -0.1621  0.2343
11039W        W30573   0.971  12.237  13.668 -0.1245  0.4162  0.3641
11040W        W30574   0.186   9.840  14.569 -0.1843  0.1295  0.1298
11041W        W30575  13.426   1.740   1.285 -0.3397 -0.1651  0.0288
11042W        W30576  10.609  14.396  12.532  0.1310  0.0034  0.0879
11043W        W30577   4.903  11.582   0.275  0.0230 -0.0396  0.0698
11044W        W30578   9.963   5.815  13.173 -0.1664  0.0860  0.1209
11045W        W30579  12.496  15.319   1.796  0.3700  0.1380  0.0988
11046W        W30580   1.064   4.162  13.165 -0.1651 -0.1033  0.0292
11047W        W30581   6.772  12.535  14.242 -0.2783  0.0947 -0.0835
11048W        W30582  14.736  11.388   3.494  0.0752 -0.2463 -0.1772
11049W        W30583   4.541  12.276   2.719  0.2013  0.1118 -0.1719
11050W        W30584   5.840  10.450   0.504  0.0093  0.2179  0.2086
11051W        W30585   2.297   5.845   0.976  0.1135  0.1356  0.3549
11052W        W30586   0.991  18.295  11.433  0.1348  0.1055  0.0866
11053W        W30587  15.111   6.234  14.790 -0.1474  0.1392 -0.0724
11054W        W30588   2.027  16.344   3.328  0.3265  0.3629 -0.3677
11055W        W30589   0.617  14.253  14.498 -0.0009  0.1287 -0.1150
11056W        W30590   1.050   9.206  14.589  0.2329  0.1583 -0.1243
11057W        W30591   3.763   5.124  14.249  0.0196 -0.0636  0.0872
11058W        W30592   1.335   1.089   0.580  0.0562 -0.0428  0.1840
11059W        W30593   3.118  18.672   0.499 -0.1649  0.1852 -0.1017
11060W        W30594   8.694   5.086   4.430  0.0397  0.1712 -0.0995
11061W        W30595   2.623  18.058  13.452 -0.0051  0.0184 -0.3371
11062W        W30596  17.621   7.733   3.022  0.1042 -0.0823  0.2128
11063W        W30597   5.335  17.539  11.064  0.2385  0.0450 -0.1093
11064W        W30598  12.928   2.405  11.056 -0.3025 -0.0299  0.1730
11065W        W30599   8.468   7.787  10.793  0.0391  0.3264 -0.1171
11066W        W30600  18.723  12.546   4.417 -0.0987  0.2256 -0.1465
11067W        W30601   1.592   7.160  11.020  0.1396  0.1173 -0.2177
11068W        W30602   2.820  16.879   4.744 -0.0322 -0.3775  0.0833
11069W        W30603   0.543   8.325  13.799  0.4460 -0.1680 -0.1081
11070W        W30604   0.258  14.318   3.051  0.2954 -0.1501 -0.1473
11071W        W30605   1.335  16.343   3.861 -0.0696  0.2231 -0.0841
11072W        W30606   0.862   2.000  11.004 -0.2178 -0.0332 -0.2391
11073W        W30607  12.243   6.035   3.050  0.6084  0.2408  0.0607
11074W        W30608  15.679   5.990   4.147 -0.0458 -0.0102  0.2093
11075W        W30609   8.312   8.338   2.876 -0.0946 -0.1819  0.1793
11076W        W30610  10.882  12.366   0.965  0.0642 -0.3022 -0.0157
11077W        W30611   0.901   8.664  12.394 -0.0530 -0.0824 -0.0799
11078W        W30612  16.615   1.520   2.626  0.0409 -0.3733 -0.0945
11079W        W30613   3.147   8.796   4.290  0.0533 -0.1625  0.0609
11080W        W30614  15.176  18.876   5.109  0.1583  0.1323 -0.3896
11081W        W30615   1.853   0.379   2.599 -0.0693  0.1053 -0.0148
11082W        W30616   3.395  12.633   2.637 -0.1099  0.2594  0.0155
11083W        W30617  15.091   9.520   1.579  0.2581  0.0621  0.4465
11084W        W30618  18.743   0.072  13.734  0.0547  0.1057  0.0766
11085W        W30619   1.801  11.828   1.125  0.0572 -0.1466  0.0494
11086W        W30620   7.476   2.472   9.972 -0.5266 -0.0187  0.0978
11087W        W30621  13.280   7.775  12.091 -0.1161  0.3255  0.1349
11088W        W30622  17.485  10.707   0.773  0.0374 -0.0773 -0.2344
11089W        W30623   6.789  11.882   4.956  0.1079 -0.1736  0.2804
11090W        W30624  16.163   6.186   4.232  0.2306 -0.3098  0.0525
11091W        W30625   8.700   5.620  13.605 -0.0551 -0.6385  0.2286
11092W        W30626   7.686  16.075   4.988  0.2235  0.1782  0.2858
11093W        W30627   8.895   7.635   3.057  0.3653  0.1691 -0.2669
11094W        W30628   9.967   1.919   3.868  0.1149  0.0325  0.1403
11095W        W30629  10.148   0.788  14.398  0.3742 -0.0736  0.3226
11096W        W30630  10.406   5.270   3.269  0.1748 -0.2068 -0.2652
11097W        W30631   5.351  16.448  14.109  0.2737 -0.0341 -0.2195
11098W        W30632   7.917   2.661  14.459  0.1418  0.1806  0.1277
11099W        W30633   8.158   7.778  13.350  0.2473 -0.0656 -0.0133
11100W        W30634  16.774  17.691  12.353  0.0312  0.1126 -0.0156
11101W        W30635  11.104  10.230  10.986 -0.1123  0.0055  0.0419
11102W        W30636  14.383  12.676   1.190  0.1519 -0.3634  0.2484
11103W        W30637   4.438  11.480   0.794  0.0626  0.0824  0.0561
11104W        W30638  15.644  12.338  10.882 -0.1119  0.0248  0.2724
11105W        W30639  18.819  16.908   2.091  0.1600  0.0603 -0.3289
11106W        W30640  12.783  12.237   3.522 -0.1056 -0.3836 -0.0327
11107W        W30641  13.663   2.794  12.586  0.1225 -0.0271  0.0231
11108W        W30642   1.093  18.172   0.208  0.1852  0.2491  0.2758
11109W        W30643   7.839   4.305  14.803  0.1922 -0.0424  0.0696
11110W        W30644  13.608  16.896   1.114  0.1081  0.1470  0.3285
11111W        W30645   0.768   9.663  13.798 -0.0175  0.2884 -0.1244
11112W        W30646  12.407  18.891  13.432  0.2090  0.3518 -0.3142
11113W        W30647   2.810  13.573  13.415 -0.2120 -0.1056 -0.0547
11114W        W30648   4.851  17.101  12.876  0.2738  0.2070 -0.2864
11115W        W30649  13.692   7.751  11.630 -0.2558  0.0121 -0.1246
11116W        W30650  17.833  15.748  12.748  0.1132  0.0803  0.0034
11117W        W30651  16.344   2.452   4.236  0.1673 -0.1103  0.2019
11118W        W30652  10.181   9.857   1.107 -0.3078  0.0974  0.4072
11119W        W30653   1.397   3.454  12.914 -0.2159  0.2431 -0.0738
11120W        W30654  18.922   7.716   3.364  0.1599 -0.1255  0.0834
11121W        W30655   7.512   2.783   4.054 -0.0777  0.0150  0.1657
11122W        W30656  12.932   9.072   0.182 -0.0404 -0.1346  0.0254
11123W        W30657   0.820  15.849  12.696 -0.2623 -0.3334 -0.0404
11124W        W30658   9.800   1.587  12.993 -0.0242  0.1007  0.0074
11125W        W30659   3.729  12.817   2.302  0.3352 -0.0815 -0.0308
11126W        W30660  13.145   4.984  13.282  0.1195 -0.2013 -0.0826
11127W        W30661   0.257   2.502   3.796  0.2935  0.2000  0.2623
11128W        W30662   9.825  16.511  12.665  0.2919  0.5015 -0.0071
11129W        W30663   7.748   5.751  14.356  0.0136  0.1582  0.0227
11130W        W30664  12.133  13.956   2.407  0.1270  0.2869  0.1197
11131W        W30665   3.883   1.023   1.884 -0.1555 -0.0430  0.0653
11132W        W30666   1.968  11.367   3.842  0.0148  0.3498  0.2499
11133W        W30667   6.419   6.921   4.311  0.2686  0.0697 -0.0859
11134W        W30668   8.959   4.504  12.992 -0.0046  0.0600 -0.3209
11135W        W30669  18.727   7.944  12.800  0.3433  0.0174 -0.1857
11136W        W30670  18.935  11.974   9.747  0.0536 -0.0742  0.0227
11137W        W30671  18.167  14.419  10.531 -0.1042  0.1588  0.0600
11138W        W30672   1.993  12.284   3.320  0.1119  0.1316  0.2841
11139W        W30673   0.595  13.230  11.613  0.0359  0.0091 -0.1389
11140W        W30674  12.379   5.502   5.173  0.2301 -0.3561  0.1175
11141W        W30675  16.897   2.462  12.351 -0.3545  0.1084 -0.1490
11142W        W30676  12.093   3.246  12.198 -0.2145  0.2524 -0.1900
11143W        W30677   1.225   5.102  13.662 -0.2467 -0.0641  0.0803
11144W        W30678  11.078   9.807   1.658  0.3314  0.4038 -0.0330
11145W        W30679   6.144  15.605  11.860 -0.1584 -0.3804  0.0576
11146W        W30680   6.239  18.073  14.343 -0.1066 -0.0420  0.1766
11147W        W30681   9.968   8.466   3.812  0.0329 -0.5074  0.0911
11148W        W30682   8.807   4.760   0.192  0.2718  0.1717  0.4028
11149W        W30683   7.009  15.227  12.552  0.1809  0.1671  0.1839
11150W        W30684  17.563   7.844  10.633  0.0669 -0.1970 -0.0121
11151W        W30685   2.588   9.926   1.862  0.0446  0.0164 -0.1739
11152W        W30686  15.949  14.451   1.998 -0.1543 -0.4694 -0.1347
11153W        W30687   7.734   2.014   1.620 -0.0010  0.3775 -0.1232
11154W        W30688   1.256  12.740  12.811 -0.0901 -0.2464 -0.1794
11155W        W30689   6.189   8.830  11.296 -0.1707 -0.3254  0.1469
11156W        W30690   5.184  11.150   0.397 -0.2131  0.0933  0.2344
11157W        W30691  17.313   6.652   4.098 -0.0064 -0.0426 -0.1850
11158W        W30692   8.394   1.377   0.041 -0.1027  0.1615  0.0788
11159W        W30693   0.354   7.403   1.591  0.1135  0.1802  0.0611
11160W        W30694  16.390  13.165   2.348 -0.1435 -0.0628  0.0619
11161W        W30695  12.228   9.321  13.102  0.2415  0.0510 -0.1098
11162W        W30696  10.456  14.349   0.035  0.1477 -0.0746  0.2845
11163W        W30697  13.397   5.686  13.925 -0.0020  0.3219  0.1715
11164W        W30698  18.929   4.054  13.814 -0.1961  0.1491  0.0600
11165W        W30699  19.098   8.590   0.013  0.2513 -0.0297 -0.0310
11166W        W30700   6.737   8.789   5.349  0.0910 -0.1005  0.1915
11167W        W30701   6.332  16.808   0.837  0.0745  0.1283  0.0975
11168W        W30702   9.695   8.863   3.597  0.1858 -0.2082  0.0502
11169W        W30703   4.212  10.515  14.740  0.0319 -0.0006 -0.0124
11170W        W30704   1.174   9.117  12.000 -0.0758  0.0457 -0.0341
11171W        W30705   9.376   5.831   1.994  0.1669 -0.0834  0.1060
11172W        W30706  10.236   9.740   2.522 -0.1502 -0.2229 -0.2327
11173W        W30707  13.334  11.701  13.211  0.0783  0.3688  0.0261
11174W        W30708  10.788   7.710   3.181 -0.2936 -0.0811  0.0030
11175W        W30709  12.409   5.930  11.356  0.1817  0.1355 -0.0941
11176W        W30710  10.765  18.924   2.179  0.0038  0.1837 -0.1366
11177W        W30711   2.322  13.897  13.288 -0.1400  0.2249 -0.5004
11178W        W30712   1.301  12.845   2.495  0.4729  0.0746  0.2170
11179W        W30713   2.967   2.079   1.622  0.1727  0.4616  0.1725
11180W        W30714   4.806  10.577   3.203  0.3343 -0.0933  0.0267
11181W        W30715   3.791   9.986  14.022  0.1027  0.0640  0.0272
11182W        W30716  15.065   9.959   3.700  0.2362 -0.0434 -0.0306
11183W        W30717  11.417  16.353  14.830 -0.2282 -0.0152 -0.3094
11184W        W30718   0.857  13.903  14.184  0.0002 -0.0229  0.0292
11185W        W30719   5.656   0.481  13.336 -0.0069  0.3920  0.1943
11186W        W30720  16.567   1.738   1.109  0.1836  0.1366  0.0414
11187W        W30721   4.794   6.705  14.157 -0.1153  0.1671  0.2592
11188W        W30722   0.384   5.472  12.949  0.0500  0.0070 -0.0902
11189W        W30723   9.348   8.171   2.034  0.0127 -0.0399  0.3052
11190W        W30724   6.678   3.641  11.157 -0.1524 -0.0471  0.0091
11191W        W30725   2.167   5.850  14.415  0.1803 -0.0527 -0.0198
11192W        W30726   9.613  16.536  11.401 -0.2568 -0.0282  0.1489
11193W        W30727  17.330   8.256  11.324 -0.4052  0.3397  0.3383
11194W        W30728   1.305  14.477  13.669 -0.3241  0.1009 -0.0631
11195W        W30729   2.190   1.976  11.522 -0.0128 -0.0057 -0.1912
11196W        W30730   2.635   4.853  12.625  0.2121 -0.0734  0.0435
11197W        W30731   0.013   6.213   4.222  0.0958  0.0134  0.1757
11198W        W30732   4.874   9.456   4.902  0.1423 -0.0709  0.0336
11199W        W30733  13.761  15.501   1.523  0.1521 -0.0415  0.0346
11200W        W30734   7.446   2.253   0.817 -0.0054 -0.2194  0.1559
11201W        W30735   2.593   3.588  13.262 -0.1118  0.0266  0.2612
11202W        W30736  17.937  16.709  12.126 -0.1815 -0.3487 -0.1208
11203W        W30737   2.521   2.385  12.076  0.1676 -0.1106 -0.2718
11204W        W30738  14.598  13.498  14.254  0.2649  0.0627  0.0166
11205W        W30739   8.803   2.151  11.018  0.0268  0.1378  0.0273
11206W        W30740  12.555  17.514  11.709 -0.2206 -0.4300  0.1789
11207W        W30741  10.886   7.702  12.039  0.1059  0.0433 -0.3405
11208W        W30742   7.034  12.904   1.975 -0.0966  0.1847  0.0009
11209W        W30743   5.189  13.387  11.089  0.1159 -0.1821  0.1047
11210W        W30744  18.254  10.160  13.291  0.1510 -0.1549 -0.0256
11211W        W30745   9.428   8.817   2.641  0.1247 -0.1584 -0.6587
11212W        W30746  13.975   5.649  13.256 -0.0829 -0.4117  0.2921
11213W        W30747  13.080   7.515   1.902 -0.3682  0.0539  0.1118
11214W        W30748  18.972   8.936   1.472 -0.1028  0.0665  0.0476
11215W        W30749  11.396   3.668   2.974 -0.1858 -0.1567 -0.0565
11216W        W30750  18.161   8.291   0.607  0.1771  0.0208 -0.2436
11217W        W30751   4.064   8.057  11.651  0.1027 -0.0452  0.2552
11218W        W30752   4.726   5.857  14.686 -0.2652  0.0474 -0.0249
11219W        W30753  10.960   1.599   1.974  0.1828  0.1140 -0.2301
11220W        W30754   4.724   5.133   0.962 -0.0516  0.0926  0.2289
11221W        W30755   1.861   8.839  10.319  0.0341 -0.1461 -0.3361
11222W        W30756   2.042  16.803   1.329  0.0806 -0.1128  0.0070
11223W        W30757  10.639   6.023   2.235  0.0213 -0.1548 -0.0422
11224W        W30758  12.994  18.073   3.235 -0.2788 -0.1242 -0.1652
11225W        W30759   3.649  13.054   3.824 -0.0941  0.5291  0.2308
11226W        W30760  13.739   1.449   2.171 -0.2955  0.0550 -0.0460
11227W        W30761  13.384  18.444   1.654  0.1618 -0.0655 -0.1354
11228W        W30762   6.331   9.696  14.347 -0.0341 -0.3918  0.1610
11229W        W30763  13.725   4.119  14.673  0.0711 -0.4237 -0.0258
11230W        W30764  18.065  11.971   2.247 -0.0949 -0.0458  0.0150
11231W        W30765  13.241   2.958  12.279 -0.5098 -0.1158  0.1126
11232W        W30766  18.389  13.162  11.254 -0.2116 -0.1226 -0.0157
11233W        W30767   7.172   0.473  13.530  0.1043 -0.0710  0.0699
11234W        W30768  13.775  11.124  14.276  0.1518  0.2408 -0.1336
11235W        W30769  16.332  16.245   5.093 -0.1419  0.1275  0.0184
11236W        W30770   0.470  18.398  11.196 -0.1836 -0.1851 -0.1159
11237W        W30771   3.736  11.164   2.546  0.1072  0.2810  0.0564
11238W        W30772   4.037  17.882  12.231  0.0412  0.0270  0.0123
11239W        W30773   4.068   2.925   1.929  0.2867  0.2031  0.0813
11240W        W30774   4.046   6.606   1.422 -0.2131 -0.0755  0.2393
11241W        W30775   1.369   4.110   3.641 -0.1581  0.0600  0.1026
11242W        W30776   6.912   4.307  12.479  0.1572  0.1292  0.0929
11243W        W30777  10.175   5.519  14.705 -0.0179 -0.1113 -0.2650
11244W        W30778  11.937   9.735  13.334 -0.1142  0.0198  0.1251
11245W        W30779  15.862  10.501  11.134 -0.2553 -0.1251  0.1951
11246W        W30780   7.134   6.852   1.280  0.0296 -0.1003  0.0945
11247W        W30781   8.476   0.655   3.515  0.1319 -0.1566 -0.2473
11248W        W30782   4.906  10.731  11.570 -0.3770 -0.2231  0.0165
11249W        W30783  13.054  14.943   1.144 -0.1253 -0.0259 -0.0331
11250W        W30784  13.057  11.582   0.465  0.0630  0.0832 -0.0640
11251W        W30785  17.408   8.906  12.348  0.0448  0.3113 -0.2478
11252W        W30786  12.166   6.512   0.462 -0.0922  0.1792  0.0382
11253W        W30787   3.858   6.508  10.639 -0.0076 -0.0041  0.0390
11254W        W30788  13.254  15.834   4.275 -0.0465  0.3554 -0.2589
11255W        W30789  10.735   8.758  11.476 -0.0785  0.1563  0.0881
11256W        W30790  12.526  11.334  13.722 -0.1725  0.0195  0.0952
11257W        W30791  12.869   5.877  13.183  0.0043  0.0594  0.2369
11258W        W30792   4.904  10.071  13.444 -0.2942 -0.0446 -0.1180
11259W        W30793  11.650   7.268  11.839  0.0971  0.2466  0.0015
11260W        W30794   7.882   1.058   2.524  0.0404  0.0593  0.3458
11261W        W30795   9.395  11.414   2.098 -0.0640  0.0949 -0.2577
11262W        W30796   1.598   7.246   2.160  0.1448  0.2012  0.1607
11263W        W30797  12.239   4.607   2.949  0.1225  0.0856  0.2346
11264W        W30798   7.652   1.501  11.175 -0.0410  0.0490  0.1774
11265W        W30799   8.782   1.520  10.392  0.1178  0.0876 -0.1656
11266W        W30800  18.217  14.841  13.077  0.1068  0.1304 -0.0131
11267W        W30801   9.928  10.003  11.379 -0.0273 -0.4520 -0.0567
11268W        W30802  12.394   2.536  12.485 -0.0448 -0.1233  0.1051
11269W        W30803   2.731   5.524   3.766  0.1320  0.0262  0.0995
11270W        W30804  16.870  17.002   1.298  0.0490  0.1841  0.1234
11271W        W30805   6.653  18.266   2.537  0.0940  0.2094  0.1299
11272W        W30806  18.086   0.377  12.954 -0.1314 -0.0692 -0.0590
11273W        W30807  16.997  10.006  11.735 -0.0624 -0.0038 -0.1552
11274W        W30808   7.752  11.015   0.516 -0.5408 -0.0837 -0.0336
11275W        W30809   3.493  11.691   2.679  0.0109  0.1403  0.0647
11276W        W30810  18.179  14.634   1.548  0.0749 -0.0997  0.2680
11277W        W30811  13.351   6.441  11.999  0.2095  0.0235 -0.3328
11278W        W30812   8.927  10.298   0.824  0.1476 -0.1460 -0.2913
11279W        W30813  17.297  15.496   0.402  0.0684  0.1029 -0.1829
11280W        W30814  18.895   7.665  10.792 -0.3071  0.2978 -0.0214
11281W        W30815  17.669   7.374  13.489  0.0636  0.0578  0.3475
11282W        W30816  15.988   0.406   9.936  0.0803 -0.2156 -0.1368
11283W        W30817  10.126  15.056   3.707 -0.0869  0.0717  0.3305
11284W        W30818  18.403   7.769  12.020 -0.1814 -0.0262  0.1128
11285W        W30819  18.967   4.813   0.089  0.3634  0.1081 -0.0001
11286W        W30820  13.952  14.414   4.622 -0.1080  0.0218  0.0963
11287W        W30821   3.395   3.504  13.938 -0.1317 -0.0050  0.0306
11288W        W30822   5.529  10.306  13.284 -0.0261  0.0739 -0.1066
11289W        W30823   8.432   6.440   1.744 -0.1150 -0.0899 -0.1425
11290W        W30824   4.109  13.513   0.737  0.0229 -0.1438 -0.0968
11291W        W30825  10.652   9.465   4.004  0.0578  0.1971  0.1274
11292W        W30826   6.903  16.971   0.117 -0.1185  0.0054 -0.2387
11293W        W30827   3.070  10.280  11.422  0.0911 -0.1012 -0.0782
11294W        W30828   2.508   1.033  14.126 -0.0062  0.0903  0.2208
11295W        W30829  13.809  13.673  14.705 -0.0030 -0.1142  0.0909
11296W        W30830   0.877  11.402   3.292  0.2167 -0.2065  0.1475
11297W        W30831   7.405   7.069  10.534 -0.2399 -0.0977 -0.0025
11298W        W30832   9.919  17.693   1.683  0.0530 -0.0280  0.4194
11299W        W30833  12.398   2.836  11.564  0.0994  0.0147 -0.1313
11300W        W30834   1.368   7.871   0.990  0.4441  0.3147  0.2069
11301W        W30835  18.211   0.660  11.065 -0.1349 -0.0672  0.0565
11302W        W30836  19.071   9.316   3.193 -0.2933  0.0363 -0.3639
11303W        W30837   9.960   2.335   1.303 -0.2237  0.0255 -0.2128
11304W        W30838  12.687  18.147  11.212 -0.0052 -0.1600  0.1047
11305W        W30839   2.827   3.796   3.146  0.0913  0.2181 -0.1705
11306W        W30840  13.296  10.735   1.628  0.1264  0.0963 -0.0185
11307W        W30841  15.336   8.316   2.780  0.2190 -0.5532  0.0174
11308W        W30842   9.496  11.773  10.883 -0.0850 -0.0541  0.0955
11309W        W30843   3.208  17.035   0.173 -0.2788  0.1447  0.4472
11310W        W30844  15.207  17.844   3.272 -0.0414  0.0055  0.2421
11311W        W30845   3.934   1.139  14.237  0.2275 -0.2441  0.0186
11312W        W30846   1.396  17.539  13.977  0.1675 -0.1488 -0.0199
11313W        W30847   7.934   6.176   0.036 -0.3121  0.0397  0.2338
11314W        W30848   8.878   1.816  11.957  0.1153 -0.2242  0.0494
11315W        W30849  16.320  11.496  14.191  0.1507  0.0440  0.0099
11316W        W30850   8.691   3.182   0.224  0.1941  0.3488 -0.0078
11317W        W30851   7.814  18.984  13.734  0.1494 -0.0231 -0.0802
11318W        W30852   9.861   9.650   3.568 -0.0685 -0.1027  0.2220
11319W        W30853  13.869   6.749   0.413 -0.0313 -0.2940 -0.0310
11320W        W30854  16.320   2.680  11.929 -0.0140 -0.2114 -0.0775
11321W        W30855  15.491  16.150   3.110 -0.2204 -0.0553 -0.1117
11322W        W30856   3.659  18.650   4.386  0.3669  0.0945  0.0726
11323W        W30857   4.612  11.562  11.077 -0.3225  0.1120  0.2335
11324W        W30858   5.948  11.233   3.968  0.0690 -0.0164 -0.1668
11325W        W30859  10.431   2.114   3.802  0.4286 -0.1101  0.0791
11326W        W30860  11.776  18.104  12.321 -0.0465 -0.0667 -0.0141
11327W        W30861   2.384  10.070  14.014 -0.1432 -0.1302  0.0555
11328W        W30862  10.468  18.543   0.679 -0.2065 -0.2291 -0.2658
11329W        W30863   1.284   1.581  11.658  0.4383  0.1720 -0.0407
11330W        W30864   1.210   9.713  11.056 -0.0439 -0.1714  0.1941
11331W        W30865  11.090   8.826   1.239  0.0964 -0.0172 -0.2513
11332W        W30866  13.614   9.571  12.674  0.1868  0.0945  0.1403
11333W        W30867   4.553  15.005  12.102  0.2475 -0.0060  0.0756
11334W        W30868   5.090  15.471   3.943 -0.3684 -0.1854  0.1536
11335W        W30869   4.220  17.940  14.101 -0.2867 -0.0809 -0.1859
11336W        W30870   3.327   0.118   1.582  0.1592  0.0603  0.2729
11337W        W30871   6.554   3.753  14.431 -0.0540  0.2736  0.1815
11338W        W30872  13.892  11.459  12.542 -0.2900 -0.1091  0.0074
11339W        W30873  17.605  18.800  10.816 -0.1195  0.1380 -0.2744
11340W        W30874   2.425   4.282   1.552  0.0339  0.2061 -0.2504
11341W        W30875   5.174  12.231  12.255 -0.0130  0.0983  0.1333
11342W        W30876  15.615  14.390  11.870 -0.4360  0.1126  0.0341
11343W        W30877   6.040   6.627   9.644  0.1762  0.0788  0.1229
11344W        W30878  17.994   0.516   4.087  0.2647 -0.1377 -0.5907
11345W        W30879   5.350  16.348   0.158 -0.2062 -0.2996 -0.1820
11346W        W30880   7.380   2.609  14.068  0.0420  0.2431  0.0517
11347W        W30881  13.604   5.007   9.607  0.0739  0.0774  0.1544
11348W        W30882   7.805   8.881   3.744 -0.1236  0.2246  0.1024
11349W        W30883   4.784   4.097  10.973 -0.2588 -0.0564 -0.1107
11350W        W30884   9.259  16.514  11.900  0.0367 -0.1646  0.3527
11351W        W30885   1.231  16.506   2.969 -0.2208 -0.0345  0.1409
11352W        W30886  14.573  11.958   0.203 -0.3369 -0.0688 -0.3991
11353W        W30887   8.787  16.589   1.546  0.0639  0.1027 -0.0292
11354W        W30888  12.750  18.298   1.763 -0.2347 -0.2099  0.0597
11355W        W30889  15.927   7.389  13.664 -0.1947  0.2808  0.0388
11356W        W30890  16.477   0.408  13.438  0.0707  0.2697  0.0661
11357W        W30891  14.837   7.771  10.493 -0.1344  0.2586  0.1400
11358W        W30892   5.182   5.533  13.402  0.0351  0.0332 -0.1618
11359W        W30893  15.304   3.819  13.910 -0.1750  0.4007  0.0367
11360W        W30894  14.219   7.804   0.586  0.0989  0.0943 -0.4503
11361W        W30895   7.329   6.690  13.917 -0.1300  0.1774  0.0860
11362W        W30896  18.686  18.468  12.813 -0.3369 -0.0344 -0.1804
11363W        W30897   8.975  16.160  10.879 -0.2356  0.2101 -0.0421
11364W        W30898  15.286  13.331   1.683  0.0830  0.0695  0.2291
11365W        W30899   5.094  18.001   3.740  0.2346  0.1422  0.1131
11366W        W30900  17.055   1.758   1.221 -0.2714  0.1522 -0.1393
11367W        W30901  11.458  15.536   2.597 -0.1172 -0.5057 -0.0370
11368W        W30902  11.498  13.915   4.293  0.0808  0.0975  0.1404
11369W        W30903   8.735   7.313   4.587  0.0877  0.2663  0.0164
11370W        W30904   0.710  17.167   3.652  0.2160 -0.1330 -0.1809
11371W        W30905   4.536   7.890  14.765  0.1204  0.0051 -0.0938
11372W        W30906   4.269  16.867  14.101  0.1078  0.4561 -0.0299
11373W        W30907   4.783   2.967   0.671 -0.1781 -0.1206  0.1333
11374W        W30908   7.481   8.904   3.374  0.1859  0.0908 -0.0629
11375W        W30909   8.968   0.195   4.031  0.1115  0.2784 -0.2054
11376W        W30910   4.968  17.681   1.701 -0.0151 -0.1245 -0.2599
11377W        W30911  11.255  17.909  12.391  0.1572  0.0174 -0.2753
11378W        W30912  16.956   8.425  14.684 -0.3607  0.2629  0.0780
11379W        W30913   6.209  15.476   3.919  0.0945  0.1605  0.3554
11380W        W30914   0.842   0.101  13.190  0.0790  0.3659  0.1691
11381W        W30915  13.526  18.901   1.650 -0.1174  0.0075 -0.2716
11382W        W30916  18.054   1.190   0.797 -0.1071  0.0658  0.1695
11383W        W30917  12.312  11.948  14.332  0.4368  0.1915  0.3217
11384W        W30918   7.367   2.500   1.746 -0.0171 -0.1314  0.2127
11385W        W30919   9.869   2.584  14.671  0.4390 -0.2571  0.3254
11386W        W30920   0.155  18.367  10.727  0.2396  0.0337 -0.1289
11387W        W30921   7.154   6.816   0.013  0.3972  0.1216  0.1199
11388W        W30922  16.017  12.993   2.654 -0.2587  0.0289  0.2255
11389W        W30923   4.119  10.500   2.502 -0.1485  0.2279 -0.0038
11390W        W30924  16.101  13.081   1.922 -0.0839  0.0139 -0.1753
11391W        W30925  17.909  17.714  13.085  0.0196  0.1110 -0.3127
11392W        W30926   7.892  17.163  13.000 -0.0326 -0.0038 -0.0227
11393W        W30927  18.455   4.126  13.838  0.3007 -0.1481 -0.1421
11394W        W30928  10.803  14.611  11.865 -0.2324 -0.1718  0.2292
11395W        W30929  14.965   1.609   2.999 -0.0219 -0.1321 -0.0116
11396W        W30930  10.602   8.098   0.316 -0.1108  0.0716 -0.1434
11397W        W30931  17.523   5.561   2.630 -0.0053  0.3269  0.1325
11398W        W30932   6.985   1.623  14.073  0.3211 -0.0009 -0.1004
11399W        W30933  13.698   0.922   0.338 -0.3097 -0.1010 -0.4759
11400W        W30934   9.327   0.893   0.946 -0.1617 -0.4164 -0.1263
11401W        W30935   2.266  19.063   5.589  0.1686  0.0170 -0.0112
11402W        W30936  13.239   2.856  14.678  0.1268  0.1490  0.0191
11403W        W30937   4.849   6.246   2.948  0.3505  0.3091  0.0818
11404W        W30938   0.415   1.762  10.016  0.0488 -0.0881  0.0074
11405W        W30939   5.149  14.458  11.029 -0.4458 -0.0516  0.1332
11406W        W30940   9.978  10.453  12.858  0.0734  0.1085  0.2771
11407W        W30941   7.681   1.976   3.799  0.0510  0.2335 -0.0827
11408W        W30942   5.822  17.139   2.160  0.0502  0.1216 -0.2238
11409W        W30943  16.976   6.640  13.278 -0.0700 -0.2300 -0.1344
11410W        W30944  17.862   2.501  13.478  0.0682 -0.1094  0.3536
11411W        W30945   3.310   9.776  14.080 -0.1122 -0.0541 -0.0115
11412W        W30946  15.533  11.074   1.406 -0.0970  0.1513 -0.0192
11413W        W30947  15.903   9.910  12.997  0.1101  0.0271  0.2568
11414W        W30948   2.709   5.853   4.328 -0.0265  0.0628 -0.0392
11415W        W30949   3.035  19.041   1.155  0.1449  0.2687  0.0529
11416W        W30950  12.616  13.223   1.927 -0.3143 -0.1349  0.1221
11417W        W30951   0.220   7.476  11.498 -0.2928 -0.3810  0.0442
11418W        W30952  10.941  11.965  13.152 -0.2162 -0.2199 -0.1733
11419W        W30953   8.274  15.820  12.409 -0.0934  0.0358 -0.1126
11420W        W30954  12.384   4.740  10.983  0.2616 -0.2419  0.2316
11421W        W30955  18.478  15.240  13.583 -0.1586  0.0371 -0.0758
11422W        W30956  14.873   5.342   0.856 -0.0876  0.0739 -0.0513
11423W        W30957  16.303  14.580   3.344 -0.1406  0.1813 -0.0602
11424W        W30958   2.662   9.305  11.846  0.3950  0.1173 -0.1138
11425W        W30959   7.195  11.128  12.744  0.0152  0.2178  0.4286
11426W        W30960   6.654   3.395  13.524  0.4032 -0.0773 -0.0361
11427W        W30961  11.885   0.947   3.617  0.3460  0.0586 -0.0529
11428W        W30962   5.038   2.888  14.263 -0.0061  0.0634  0.0548
11429W        W30963   2.439  11.711  13.167  0.0485  0.1096  0.1060
11430W        W30964   0.739  13.951  12.004 -0.2309  0.3600 -0.1115
11431W        W30965  15.694   1.235  11.059 -0.4007 -0.1424 -0.1293
11432W        W30966  18.705  13.232   2.112  0.2371 -0.1949  0.2200
11433W        W30967  10.911   8.512   0.295  0.2332 -0.1627  0.0533
11434W        W30968  12.081   1.726  11.992 -0.2425 -0.2083  0.0617
11435W        W30969   0.166   9.770   4.014 -0.1967 -0.1231 -0.1123
11436W        W30970   4.314   8.994  14.075  0.2086  0.1789 -0.3009
11437W        W30971  13.235   8.286  11.063 -0.2184 -0.1201 -0.0981
11438W        W30972  14.537   2.383   1.566 -0.2090 -0.2161 -0.0043
11439W        W30973   8.123  18.807   2.895  0.2075 -0.1205  0.3076
11440W        W30974   3.108   0.210   3.835  0.0092  0.2753  0.2502
11441W        W30975   7.946  12.949   9.541 -0.2118  0.1521 -0.1963
11442W        W30976  10.886  12.869   4.003 -0.3343  0.2433  0.1798
11443W        W30977   3.758  16.081   3.535 -0.0020 -0.3352  0.1560
11444W        W30978  16.405   9.931  13.239  0.1190  0.1290 -0.0594
11445W        W30979  11.569  10.052   0.927 -0.2829  0.2754  0.0510
11446W        W30980   9.430   6.608   3.436  0.0570  0.0838  0.2531
11447W        W30981  18.165  14.596   4.667 -0.0480  0.3302  0.0766
11448W        W30982  15.874   9.521  11.131  0.0655  0.2643  0.0251
11449W        W30983  15.603   9.539  13.195 -0.2222  0.0417 -0.0499
11450W        W30984  13.975   0.125   0.178  0.0464  0.0977 -0.1293
11451W        W30985   5.470   2.202   2.602  0.0637 -0.2350 -0.1220
11452W        W30986  10.480   1.857  13.257 -0.2481  0.0150  0.1377
11453W        W30987   8.754  11.776   3.005 -0.4582 -0.1416 -0.1050
11454W        W30988   5.669   2.708  12.590  0.0622 -0.0421 -0.1013
11455W        W30989  18.754   9.969   1.388  0.3011 -0.0053 -0.1265
11456W        W30990  16.893  10.249  12.594 -0.1885 -0.3947 -0.0785
11457W        W30991   8.962   0.262  11.354  0.2655 -0.1967  0.0484
11458W        W30992   9.472   2.547  13.612 -0.1244  0.1088  0.0928
11459W        W30993  11.475  16.701  13.586  0.1160 -0.1392  0.1846
11460W        W30994   1.405  17.349  10.266  0.2692  0.1498  0.0689
11461W        W30995  18.506  12.917  12.117  0.0227 -0.3139  0.0653
11462W        W30996   7.666   1.479   0.828 -0.0897  0.1231 -0.3896
11463W        W30997   5.392  10.729  11.809 -0.1424 -0.1114  0.1363
11464W        W30998   0.733   2.369  14.153 -0.1571  0.2687  0.3336
11465W        W30999   5.361   2.111  14.127 -0.3387 -0.0855  0.3196
11466W        W31000  11.726  17.669  13.204  0.0326  0.2326  0.1102
11467W        W31001   7.242   2.784  11.735 -0.2321 -0.0595 -0.1198
11468W        W31002   1.184  15.423   1.396  0.0423  0.1202  0.1878
11469W        W31003   5.969  15.009   2.482  0.0949 -0.0596  0.0530
11470W        W31004  11.915   3.119  14.138  0.1942 -0.0360  0.1778
11471W        W31005   8.357  18.281  12.739 -0.2763  0.1365 -0.2807
11472W        W31006   7.392  13.985  12.570 -0.0035  0.1153 -0.1094
11473W        W31007   8.087   4.293  10.832  0.0003 -0.0509 -0.1697
11474W        W31008  10.682   2.655   4.093  0.0661 -0.4461 -0.3936
11475W        W31009  16.419  12.227   3.654  0.0618  0.0597  0.0184
11476W        W31010  15.958  17.248  12.414 -0.0072  0.2425  0.1518
11477W        W31011   9.111  12.562   2.388  0.1103  0.0063 -0.2250
11478W        W31012   3.349   1.326  13.470  0.2168 -0.0326 -0.4292
11479W        W31013  16.783   5.296  14.366 -0.0854  0.1250  0.2280
11480W        W31014   7.012  12.796   0.664  0.1222  0.1515  0.1774
11481W        W31015   8.544  16.371   5.144  0.3035  0.1746  0.3682
11482W        W31016   2.569  12.699  13.958  0.2884 -0.0275 -0.0972
11483W        W31017   3.464   4.379   2.737  0.0598  0.0059  0.0171
11484W        W31018   8.677  12.948  11.154 -0.3414 -0.3645 -0.0882
11485W        W31019   0.344  14.407   0.880 -0.0596  0.0381  0.0037
11486W        W31020  18.049  15.296  11.385 -0.1739  0.1018 -0.2658
11487W        W31021   6.760   3.110  10.513 -0.3312 -0.1611 -0.1087
11488W        W31022  11.118  15.943   3.391 -0.1258 -0.2200 -0.0261
11489W        W31023   4.093   5.812   0.686  0.4015 -0.1297  0.3856
11490W        W31024   6.609  13.616  11.552  0.1374 -0.1262 -0.1013
11491W        W31025   0.683   4.223  11.816  0.0575  0.2411 -0.0321
11492W        W31026   2.969   8.565   0.433  0.2263  0.0471  0.4544
11493W        W31027   2.309   5.343   2.628  0.1660 -0.0515 -0.2360
11494W        W31028   1.043   9.937  13.417 -0.1476 -0.3406 -0.0953
11495W        W31029   5.989  15.023   1.236  0.4244  0.1334 -0.3264
11496W        W31030   2.478   7.472  11.140 -0.2014  0.3349 -0.1600
11497W        W31031  17.320  17.372  13.043 -0.0906  0.2014 -0.0615
11498W        W31032   0.764  12.148  10.415  0.2713 -0.3207  0.0795
11499W        W31033  17.686  15.997   1.622 -0.2359 -0.1041 -0.0514
11500W        W31034   9.167  17.132   0.262 -0.1415 -0.1763 -0.1024
11501W        W31035   8.415   9.283  14.634 -0.3124  0.3186  0.1345
11502W        W31036   7.952  13.851  14.010  0.0054 -0.0996 -0.2971
11503W        W31037  16.463  18.676  11.627 -0.2855 -0.2026 -0.1178
11504W        W31038   4.585  16.874   1.902 -0.2026  0.0146  0.0169
11505W        W31039   0.447  12.480  13.471  0.1497  0.0700 -0.0589
11506W        W31040  13.972  13.574   1.721  0.0976 -0.0382 -0.1062
11507W        W31041  11.910   1.806   0.876 -0.2806  0.2266 -0.3306
11508W        W31042  15.884  10.173   4.494  0.1541  0.3417 -0.3373
11509W        W31043  17.116  14.180  12.485  0.0002 -0.3223 -0.2124
11510W        W31044   6.150   1.505   0.927  0.1224  0.1594  0.0250
11511W        W31045  12.745   7.661  12.070  0.3135 -0.0891  0.0021
11512W        W31046  11.757  19.073   2.816  0.2859  0.1471 -0.3204
11513W        W31047  13.429  13.279   2.632  0.2315  0.0331 -0.0288
11514W        W31048   4.335   7.987   4.373 -0.1662  0.0083 -0.0631
11515W        W31049  11.300  18.675   3.580  0.0613 -0.0097 -0.0891
11516W        W31050  15.874  18.663   0.448 -0.0419 -0.1248  0.0398
11517W        W31051   1.377  10.991   0.189 -0.0670  0.1037 -0.0383
11518W        W31052  13.627  18.261  13.834 -0.1464  0.1463  0.0941
11519W        W31053   0.110   0.640   2.277  0.1401  0.1772 -0.1035
11520W        W31054   1.214  15.932  10.901  0.1826  0.0445  0.0935
11521W        W31055   9.088   1.983   4.389 -0.0187 -0.1820  0.0073
11522W        W31056  11.953   5.870  11.749  0.0289 -0.1309 -0.2310
11523W        W31057  18.253   7.268  13.449  0.0351 -0.3510 -0.4440
11524W        W31058   1.733  18.956  10.824  0.3131  0.0806 -0.2580
11525W        W31059   1.615   7.175  13.421  0.4493 -0.3677 -0.0465
11526W        W31060  12.924  18.912  12.814 -0.2159 -0.0660 -0.0933
11527W        W31061   8.663  11.545  11.985  0.1251 -0.2557 -0.0893
11528W        W31062  15.090   4.519  14.378 -0.1765 -0.1830  0.1055
11529W        W31063   6.380   7.582  14.671  0.0293 -0.2549 -0.0135
11530W        W31064  18.657   3.794   0.171 -0.1676 -0.1666  0.0478
11531W        W31065   4.804  11.472  13.954  0.0767 -0.1846 -0.0378
11532W        W31066  14.369   2.652   2.001  0.1788 -0.3151  0.0295
11533W        W31067  18.960  11.637  10.712  0.0888 -0.1572  0.0480
11534W        W31068   3.739  11.952   3.742  0.0703 -0.1896  0.0567
11535W        W31069   3.242  15.059   1.683  0.4741  0.0646  0.0450
11536W        W31070   1.091   5.232   1.710 -0.0678 -0.1224 -0.5563
11537W        W31071   2.114   3.266  14.193  0.1324 -0.0604  0.0973
11538W        W31072  12.151   1.192   2.234  0.0681  0.0969  0.0612
11539W        W31073  18.803  14.629   3.513  0.1381 -0.4027  0.1727
11540W        W31074  15.141   6.471   2.870 -0.0047 -0.1308  0.1156
11541W        W31075  11.541  14.486  13.152 -0.0592 -0.1171  0.0498
11542W        W31076  11.146   1.498   4.206 -0.1487  0.1396 -0.0910
11543W        W31077   2.968  15.517  14.578  0.1952  0.5613  0.1738
11544W        W31078  13.270   1.228   0.401  0.1159 -0.2167  0.1848
11545W        W31079  14.743   1.344  13.679  0.0179 -0.1650 -0.0295
11546W        W31080   8.499   3.075   1.324 -0.0857 -0.0366  0.0242
11547W        W31081  13.209   2.248  11.456  0.0700  0.3683  0.5761
11548W        W31082  19.014   7.078  11.556 -0.1556  0.1877 -0.0958
11549W        W31083  12.188   2.171   0.177  0.0495 -0.0089 -0.1402
11550W        W31084   4.335   0.503   3.475  0.1485 -0.0422 -0.0058
11551W        W31085  18.092   9.211   3.206 -0.1946 -0.1245  0.0495
11552W        W31086   9.943  18.093   2.021  0.1395  0.2807 -0.1583
11553W        W31087   1.007   0.801   1.028 -0.0336  0.0334  0.0249
11554W        W31088   6.320   0.472   1.165 -0.1561 -0.2026  0.2104
11555W        W31089  14.397   4.967   3.595 -0.2892  0.3559 -0.0896
11556W        W31090   2.745  14.988   2.825 -0.0654  0.1235  0.4381
11557W        W31091   3.888   3.159  13.346  0.0675 -0.0920 -0.1873
11558W        W31092   6.577   5.847  11.584 -0.0185 -0.0040 -0.1557
11559W        W31093   5.242  12.054   4.024  0.3211 -0.2197 -0.1170
11560W        W31094   2.517   4.599  14.590  0.2218  0.0679  0.0434
11561W        W31095  18.929   2.479   9.279 -0.0314 -0.0105 -0.1612
11562W        W31096  13.377  15.339   4.625  0.3205  0.6392  0.1362
11563W        W31097   3.930  18.925   2.913  0.0519  0.4251  0.0101
11564W        W31098   6.566  17.645  13.434  0.1255 -0.1025 -0.1489
11565W        W31099  17.258   5.923   1.344 -0.2334  0.1199  0.2610
11566W        W31100  13.505   7.409   0.009 -0.3228  0.0707 -0.0039
11567W        W31101   6.263   3.825  13.393  0.0288  0.0712  0.2762
11568W        W31102  10.708   8.213  11.816 -0.0250 -0.0416 -0.5026
11569W        W31103  18.416   7.334  10.930  0.1680 -0.0171  0.0608
11570W        W31104   3.733   7.842   1.326  0.2627 -0.0241  0.1405
11571W        W31105  16.122   7.895   2.770 -0.0202 -0.1814 -0.1640
11572W        W31106   8.137   7.108   0.083 -0.2370  0.0498 -0.0003
11573W        W31107   8.400   0.969  11.332  0.1256 -0.0915 -0.0436
11574W        W31108  17.640  16.026   3.665 -0.0584 -0.2546  0.1469
11575W        W31109   4.412   4.914   2.688 -0.0303 -0.4067 -0.2090
11576W        W31110  18.811   1.215   2.319 -0.2194 -0.2536 -0.4998
11577W        W31111  14.172   0.419   4.207  0.0298 -0.0487  0.0563
11578W        W31112   4.544  11.889  13.604 -0.0550  0.2193  0.0218
11579W        W31113  16.638  18.322  13.595  0.3219 -0.0187 -0.0302
11580W        W31114  10.267  16.701   1.779  0.5967  0.0006  0.0577
11581W        W31115  11.610   6.714  10.834 -0.1673  0.0638 -0.1966
11582W        W31116  12.728  15.086  11.844 -0.1010  0.1297 -0.1067
11583W        W31117   2.635   0.792   3.645 -0.0371  0.0326  0.2190
11584W        W31118   4.953   9.753   3.967  0.0965  0.1893  0.0412
11585W        W31119   3.613  10.196   2.739  0.0750 -0.0281 -0.1617
11586W        W31120  14.035  13.348  13.698 -0.2746 -0.2248  0.1574
11587W        W31121   0.538  16.201   3.589 -0.1506 -0.0528 -0.1448
11588W        W31122  17.776  12.592  12.596  0.0821  0.1036 -0.3044
11589W        W31123   1.179  15.112   1.847 -0.2296 -0.0564  0.1088
11590W        W31124   6.413   0.988   3.937  0.0920  0.0452  0.2184
11591W        W31125  11.886   8.985  12.730 -0.4707  0.0046 -0.1699
11592W        W31126   5.749  10.665   1.463 -0.2387 -0.2796 -0.2182
11593W        W31127   8.236  17.813  12.829  0.1015  0.0882 -0.1042
11594W        W31128  18.028   2.423   9.510 -0.0053 -0.1540 -0.1619
11595W        W31129   7.995   5.642  11.081 -0.0163  0.3998 -0.0869
11596W        W31130  10.189  14.711   1.409  0.0957 -0.1591 -0.0207
11597W        W31131  10.282   9.949   0.622  0.1006  0.3099  0.0832
11598W        W31132   4.196   3.648  12.871  0.2469 -0.1460 -0.1040
11599W        W31133  12.272   4.073  11.581  0.1833  0.0667 -0.0039
11600W        W31134  16.170   7.986  11.125 -0.2619 -0.1524  0.2855
11601W        W31135   3.629   9.648   2.726  0.0603 -0.1642  0.1937
11602W        W31136  16.805  15.433   1.517 -0.1437 -0.1173 -0.4171
11603W        W31137   1.183   2.650  13.278 -0.1385 -0.1627 -0.1911
11604W        W31138  19.020  13.913   2.986 -0.2555  0.5198 -0.2112
11605W        W31139   9.018   7.507   1.538  0.0965  0.2146 -0.0309
11606W        W31140  10.323   8.643  11.663  0.0629  0.4552 -0.0212
11607W        W31141   9.897   0.940  13.516  0.3855  0.1357 -0.0960
11608W        W31142  18.420   4.612  10.497  0.2253  0.0392  0.0326
11609W        W31143   8.292   5.771   4.205  0.1769 -0.0876 -0.2911
11610W        W31144   9.161  17.912   1.523  0.1229  0.0877  0.0765
11611W        W31145   1.707  12.838  13.048  0.1903  0.2203  0.2181
11612W        W31146  10.033  14.606  12.521  0.1884  0.1986  0.1152
11613W        W31147  12.108  14.713   4.222 -0.3023 -0.1971  0.1687
11614W        W31148  11.710   0.554  11.470  0.0306  0.0125 -0.1801
11615W        W31149   0.907  12.051   2.649  0.2451  0.2264 -0.2070
11616W        W31150  16.096   4.075   1.008  0.1973 -0.1026 -0.0520
11617W        W31151   7.211  17.896  12.694 -0.0663  0.1437 -0.0226
11618W        W31152  18.843   2.050  14.299  0.0577 -0.0726 -0.2923
11619W        W31153   7.045  11.520   1.403  0.1952  0.0629  0.1038
11620W        W31154  17.624   5.213  11.538 -0.0569  0.1522 -0.0395
11621W        W31155   0.023  16.271  13.275 -0.0607  0.1657  0.3721
11622W        W31156   3.817  14.255  10.701 -0.2298  0.2035  0.1181
11623W        W31157   7.022  13.583   3.619  0.0369 -0.3408  0.2014
11624W        W31158   6.025   2.055   1.666  0.0086 -0.2530 -0.1349
11625W        W31159   1.177  17.777  10.105 -0.1312  0.1055 -0.0337
11626W        W31160  11.590   5.715   1.832 -0.2829  0.0999  0.0869
11627W        W31161  15.449   6.435   1.708 -0.1537  0.1069  0.0301
11628W        W31162  11.270  10.999   2.040  0.2584 -0.1775 -0.0210
11629W        W31163   8.825  12.721  12.866  0.0152 -0.1014  0.2843
11630W        W31164  13.581   0.250  12.342 -0.0062 -0.0501  0.0317
11631W        W31165   0.348  15.335  13.663 -0.1650  0.0581  0.0543
11632W        W31166   9.050  19.111  14.149  0.1270  0.0848 -0.0239
11633W        W31167   8.054   4.271   9.853 -0.1654 -0.0534  0.0209
11634W        W31168  14.280   9.481   2.715  0.4244  0.0184 -0.0435
11635W        W31169   4.243   8.332   2.558 -0.2373  0.0502 -0.1244
11636W        W31170  14.880   6.063   4.225  0.2793 -0.0980 -0.1314
11637W        W31171  14.848   7.380   0.005 -0.3361 -0.2875 -0.3549
11638W        W31172  16.132   1.786  13.593  0.0648 -0.2710 -0.1051
11639W        W31173  18.381  13.799  12.460 -0.0177  0.0780 -0.0920
11640W        W31174   1.681   4.338   4.305 -0.1662  0.1075 -0.0273
11641W        W31175  11.905  12.167   0.294  0.0078  0.1095  0.2019
11642W        W31176   9.053  16.749  14.642  0.3342  0.1455 -0.3298
11643W        W31177  17.736  17.065   3.065  0.1673  0.4042  0.1574
11644W        W31178  12.316   1.962  12.388  0.2042  0.1861 -0.1352
11645W        W31179   1.616   1.990   3.353 -0.2585 -0.1711  0.0277
11646W        W31180  14.222   3.597  12.490 -0.0109 -0.2498  0.1580
11647W        W31181   1.546   1.342  11.240 -0.4472 -0.1534 -0.2828
11648W        W31182   9.494  15.540  11.338 -0.0544 -0.0173  0.0023
11649W        W31183   7.554   9.229   0.242 -0.0353  0.0381  0.3684
11650W        W31184  17.958   2.050   0.873  0.0302  0.0149  0.0773
11651W        W31185   7.696  10.822   1.762 -0.0626 -0.1024 -0.0074
11652W        W31186   6.796   1.353   2.308 -0.2495 -0.1467  0.1169
11653W        W31187   4.691  11.699   2.355  0.2578 -0.1775 -0.0012
11654W        W31188  12.416  16.267   0.797 -0.2802  0.2814  0.2731
11655W        W31189   7.865  18.844  11.940  0.1487 -0.0773 -0.2194
11656W        W31190  15.887   4.551  11.066 -0.2399  0.1317  0.0812
11657W        W31191   9.783  14.047  11.362 -0.0996  0.0152 -0.3926
11658W        W31192  18.357  15.989  14.156  0.3962 -0.2116 -0.0708
11659W        W31193   0.256   3.634  13.934  0.2430 -0.1237  0.0424
11660W        W31194  18.765   3.067   3.596 -0.1436  0.0788 -0.2069
11661W        W31195  17.471   1.484  11.494 -0.2379 -0.0618  0.1258
11662W        W31196  15.583   4.884   3.051 -0.2095  0.1819  0.1222
11663W        W31197  16.574  11.499   3.016  0.2734 -0.0390 -0.2056
11664W        W31198  11.191   0.367  11.248 -0.1028  0.1053 -0.0176
11665W        W31199  10.719   4.315   1.014 -0.2607  0.1415  0.0884
11666W        W31200   7.855  11.734   3.390  0.0415 -0.0948  0.0657
11667W        W31201  10.510   7.166  13.835 -0.0635 -0.3040  0.4132
11668W        W31202   7.528   1.491   0.316 -0.1971  0.4749 -0.0860
11669W        W31203   3.960  15.470   3.265  0.4059  0.0526  0.3498
11670W        W31204   3.204   4.154  11.065  0.2575 -0.0006  0.4777
11671W        W31205  17.132   9.923  14.020 -0.0066  0.0369 -0.1062
11672W        W31206  17.844   5.733   3.623  0.2161  0.1535  0.1442
11673W        W31207   0.438   8.037  11.187 -0.1020  0.2983  0.3273
11674W        W31208   3.112  11.246  12.370  0.0239  0.1226  0.1666
11675W        W31209  10.511  16.290   2.639 -0.0483 -0.1790 -0.0706
11676W        W31210  11.654   0.142  12.719  0.0971 -0.0712 -0.1018
11677W        W31211  12.286   6.737   3.571  0.1685 -0.0761 -0.0992
11678W        W31212  11.006   0.439  14.059  0.2500  0.0918  0.2419
11679W        W31213  15.340  13.844   1.387 -0.1433  0.3942 -0.1378
11680W        W31214  14.694   1.190   4.125  0.1217 -0.0619  0.1225
11681W        W31215   7.676   1.934   0.461 -0.0902 -0.0030  0.2595
11682W        W31216  14.342  16.030  13.589  0.3979  0.0273  0.2414
11683W        W31217  12.620   1.933   0.134 -0.2942 -0.3915  0.1665
11684W        W31218   6.948   5.349   1.212  0.0605 -0.3015 -0.1573
11685W        W31219   0.505   4.418  14.112 -0.4082  0.3164 -0.0605
11686W        W31220  11.890  18.641   1.834 -0.1567 -0.2020 -0.0352
11687W        W31221  11.712  12.763   1.054  0.0869  0.0667 -0.0483
11688W        W31222   4.921  17.821  10.990  0.0409 -0.0739  0.2839
11689W        W31223   7.801   4.235  10.275  0.0828  0.0345  0.0072
11690W        W31224   3.516   0.010   4.231  0.1045  0.0302  0.2650
11691W        W31225   8.433  14.635  14.160 -0.0853 -0.3910  0.1672
11692W        W31226  16.125   1.548  14.036  0.2461 -0.0015  0.2650
11693W        W31227   4.214  17.682  14.605  0.0033 -0.0280  0.0164
11694W        W31228   1.962  17.978  14.660 -0.1843  0.0581  0.0943
11695W        W31229  14.360  12.519   1.855 -0.1566 -0.0453 -0.0185
11696W        W31230   1.757  16.467   2.899 -0.0385 -0.2336  0.2823
11697W        W31231   9.595  14.976  11.250 -0.1200 -0.0442 -0.0913
11698W        W31232   9.863   6.557  14.052 -0.0297  0.1070 -0.1220
11699W        W31233  17.003   9.709  13.193 -0.1939 -0.3660 -0.0306
11700W        W31234  17.645   5.314  10.662 -0.3253  0.0802 -0.0213
11701W        W31235  15.030   8.393   4.660 -0.0929 -0.0745  0.1020
11702W        W31236   0.638   3.698   4.114 -0.2851  0.2720  0.1342
11703W        W31237   4.289   1.059   0.835  0.0029  0.2354  0.2992
11704W        W31238   9.080  13.506  11.899 -0.1355  0.1895  0.2313
11705W        W31239   1.996   2.470  11.367 -0.2433 -0.1873  0.4982
11706W        W31240  14.016  17.309   4.548 -0.0544 -0.1098  0.0306
11707W        W31241  16.489  16.039  13.106  0.1611  0.3383  0.3422
11708W        W31242   2.310   5.744   3.415 -0.2318 -0.4315 -0.0861
11709W        W31243  12.007   5.633  13.810  0.2801 -0.0009 -0.3817
11710W        W31244   5.856   3.464  13.338  0.1584 -0.1219 -0.0721
11711W        W31245  15.599  17.534   2.378 -0.1438  0.1024  0.3111
11712W        W31246   8.274  16.181  12.051 -0.5749  0.1608  0.0062
11713W        W31247  11.406   4.253   2.239 -0.0899 -0.3906  0.2000
11714W        W31248  17.459  18.130  12.820  0.0047 -0.2163  0.0012
11715W        W31249  18.449  13.547  13.307  0.2345  0.0601  0.0140
11716W        W31250   7.318  11.176   0.567  0.1773 -0.2679  0.0640
11717W        W31251   5.652  18.858  14.392 -0.2291 -0.1156  0.0175
11718W        W31252   4.635   6.999   2.389  0.0796 -0.1700  0.5011
11719W        W31253   5.912   0.167  11.929 -0.4342 -0.0050  0.0525
11720W        W31254  15.125  15.578  14.281  0.1665  0.0633 -0.1296
11721W        W31255  17.752  12.690  14.646  0.1494  0.1564  0.0661
11722W        W31256  13.582   7.271   3.933  0.0007  0.1393 -0.1630
11723W        W31257  12.410   5.620   0.039 -0.0400 -0.1556  0.1564
11724W        W31258   0.757  17.459  13.424 -0.3705 -0.0602  0.1089
11725W        W31259  12.252   1.494  11.533  0.0989 -0.0937 -0.0519
11726W        W31260   3.311   4.040  13.613  0.1007  0.2251  0.0410
11727W        W31261  16.572   7.203   2.439  0.1013 -0.1566  0.1020
11728W        W31262   5.827   5.559  14.687 -0.2207  0.0099 -0.0857
11729W        W31263  11.388  14.019   0.415  0.1507 -0.1550  0.0698
11730W        W31264  18.681  14.172  12.759  0.1117 -0.0209 -0.2874
11731W        W31265  16.556   9.870  12.762 -0.3850 -0.0411 -0.0280
11732W        W31266   3.801   7.743   3.215  0.1520 -0.2027 -0.1337
11733W        W31267  13.890  17.831   1.272 -0.0603  0.0348 -0.0939
11734W        W31268  11.941  17.062  14.420  0.1529 -0.3674 -0.0825
11735W        W31269  12.364   4.950  12.588 -0.1611  0.4934  0.0181
11736W        W31270   4.996   8.757   3.365  0.1510 -0.2303  0.0429
11737W        W31271  15.856   1.427   0.800  0.0337 -0.3438 -0.0338
11738W        W31272   9.339  12.810   4.972 -0.1261 -0.0031  0.3013
11739W        W31273  17.938   8.470  12.578  0.0226  0.2267  0.1729
11740W        W31274  19.066  14.537  12.760  0.1095 -0.2751 -0.1902
11741W        W31275   0.397   2.721   3.290 -0.3193  0.0708 -0.0547
11742W        W31276  14.841  13.136   1.404 -0.0673 -0.2157  0.4036
11743W        W31277  12.971   6.635   0.802 -0.1835 -0.2959 -0.0243
11744W        W31278  11.164   3.122  12.471 -0.0973 -0.2404 -0.2217
11745W        W31279  15.464   7.518  10.906  0.0745  0.1416 -0.1376
11746W        W31280   8.910   1.569   2.994  0.3256 -0.1636  0.0587
11747W        W31281   4.948  15.645   1.948  0.0786  0.0903 -0.1723
11748W        W31282   4.786  10.421   5.261 -0.1278  0.2341  0.3345
11749W        W31283   6.250  16.404   4.862 -0.3550  0.0847  0.0004
11750W        W31284   5.534  15.294   2.489 -0.0397 -0.0507  0.0233
11751W        W31285   8.836   1.814   0.057 -0.0322  0.2144 -0.0188
11752W        W31286   2.875   8.957  11.231 -0.1486  0.1318 -0.3716
11753W        W31287   6.961   5.356   1.776 -0.2310  0.6698  0.2452
11754W        W31288  18.420  13.399   0.251  0.4092  0.2358 -0.1186
11755W        W31289  17.821   0.622  14.766 -0.0996  0.0526 -0.1558
11756W        W31290   6.554  14.712   0.625 -0.2140  0.1237  0.0754
11757W        W31291   3.433  10.780   1.822  0.1230  0.0600 -0.5201
11758W        W31292  17.805   6.750  12.268  0.2583  0.0409 -0.0151
11759W        W31293   2.429   0.146   1.802  0.2570 -0.0085  0.0131
11760W        W31294   3.479   8.625  12.983 -0.2275  0.1183 -0.1604
11761W        W31295  11.288   1.393   1.527 -0.0962  0.0694  0.1614
11762W        W31296   0.546  18.841  11.287 -0.0428  0.1176  0.2362
11763W        W31297   8.844   7.344  11.275  0.2556  0.1765  0.0308
11764W        W31298   4.017  10.930  11.320 -0.0748  0.0734 -0.1235
11765W        W31299   5.624   1.733  12.941 -0.0170  0.3391  0.0991
11766W        W31300  12.186  16.021   3.764  0.4118 -0.0949  0.1720
11767W        W31301   8.452  15.515   0.907  0.4748  0.0984  0.1333
11768W        W31302  18.144  14.921  14.523 -0.0078  0.1660 -0.0028
11769W        W31303   5.950  11.654   4.361 -0.1583 -0.0098 -0.2119
11770W        W31304   2.615   3.334   3.514 -0.2883 -0.3879 -0.0018
11771W        W31305  13.401   3.152  12.711  0.1136 -0.1647  0.2493
11772W        W31306  15.020  14.777   1.694 -0.0131  0.1284  0.2551
11773W        W31307   1.541  18.433  13.511  0.2780 -0.2864  0.2066
11774W        W31308  10.341   9.132   2.522  0.0802  0.2174  0.0539
11775W        W31309  13.159  14.123   0.256  0.1592  0.1071  0.0355
11776W        W31310  12.060  18.720   2.612  0.1955 -0.2143  0.0646
11777W        W31311  11.840  10.164   2.654  0.2912 -0.3001 -0.0108
11778W        W31312   9.534  18.457  13.568 -0.0951  0.0560  0.2159
11779W        W31313   5.956  17.276   1.607  0.1556  0.1558  0.4096
11780W        W31314  13.517  15.431   1.100 -0.0778  0.2587  0.1686
11781W        W31315   3.444   0.605   2.470 -0.1069 -0.3761  0.1244
11782W        W31316   9.968   2.406  13.543  0.2056  0.2511 -0.0763
11783W        W31317  16.899  13.932   2.185  0.0853 -0.3852 -0.1703
11784W        W31318   8.391   8.457   0.869  0.0738  0.2925 -0.0869
11785W        W31319   5.395  11.658  13.179 -0.2136 -0.1428 -0.2106
11786W        W31320   2.956   0.634   2.266 -0.1886  0.2911  0.0070
11787W        W31321   2.900   1.936   2.183 -0.1048 -0.1257 -0.0400
11788W        W31322  14.542  10.577  14.363 -0.0186  0.0258  0.0208
11789W        W31323   7.330   3.717   2.857  0.0759  0.0674 -0.1268
11790W        W31324  12.579   6.588   3.999  0.1923  0.1115 -0.3127
11791W        W31325  14.789  11.447  13.235 -0.0568 -0.0959 -0.1143
11792W        W31326  15.006  11.813   0.031  0.2872  0.1535  0.1627
11793W        W31327   9.451   9.679   0.980 -0.2119  0.3736 -0.0158
11794W        W31328  10.621  14.938   2.431  0.1498  0.0079 -0.0104
11795W        W31329  15.720  13.674   4.626 -0.1122  0.0383  0.1452
11796W        W31330  11.484  16.175  14.356 -0.0957 -0.0451  0.0337
11797W        W31331  18.992  18.836   1.266 -0.1116  0.0885  0.0463
11798W        W31332   7.051  17.511  11.775 -0.1023 -0.2318  0.1450
11799W        W31333   0.860   8.141   1.243  0.2680  0.0663 -0.1897
11800W        W31334  14.624   8.258  13.324 -0.1050 -0.0188 -0.3261
11801W        W31335   8.717   5.188   0.968 -0.2233  0.1754  0.1001
11802W        W31336   7.573   5.330  10.942  0.2430  0.0825  0.0657
11803W        W31337  12.571   4.741  13.710  0.0769 -0.1322  0.2942
11804W        W31338  16.776  12.605   2.751 -0.0663 -0.2258  0.2904
11805W        W31339   4.305  16.041   1.373  0.2407  0.4954  0.4136
11806W        W31340  14.584   9.176  14.627 -0.0245  0.1358  0.0626
11807W        W31341  12.131  10.217   2.187 -0.0641  0.0772  0.1638
11808W        W31342  18.442  18.204  11.022  0.0376  0.4027 -0.0763
11809W        W31343  14.138  15.033   3.051 -0.0999 -0.1672  0.1333
11810W        W31344   4.314  13.362  11.535 -0.0532  0.1610  0.2250
11811W        W31345  11.779   3.190   1.327 -0.0673  0.0621  0.0387
11812W        W31346  11.126  16.090   0.936 -0.0121  0.4671  0.1890
11813W        W31347  16.851  17.457  13.283  0.0505 -0.3046  0.2085
11814W        W31348  14.711   1.154   2.823 -0.1536 -0.0806  0.0708
11815W        W31349   9.399   9.209   1.251 -0.2729  0.3967 -0.0440
11816W        W31350   9.560  18.928   0.215  0.0835 -0.0920 -0.3878
11817W        W31351  12.073   0.009   4.017 -0.3163  0.2877 -0.0177
11818W        W31352  11.274   9.787  11.046 -0.0488 -0.3735  0.0724
11819W        W31353   5.992  12.763   4.051 -0.0954 -0.0569 -0.3157
11820W        W31354  15.733   1.954  10.615  0.0421  0.3072  0.1093
11821W        W31355   1.279  15.437   5.178  0.0822 -0.1257  0.0437
11822W        W31356   5.075  17.834   2.452  0.0241 -0.2113  0.1839
11823W        W31357   8.603  15.882  11.082 -0.1242  0.0310 -0.2263
11824W        W31358   4.081   1.916   1.472 -0.3075 -0.2316 -0.0659
11825W        W31359   6.875  18.181  11.724 -0.2222  0.1808 -0.0688
11826W        W31360  11.826   5.223   0.119 -0.1739  0.2893 -0.3253
11827W        W31361   0.901  12.386  12.641 -0.1388  0.1414  0.2477
11828W        W31362   6.072  17.072   0.238 -0.2024  0.3017 -0.0715
11829W        W31363  16.044   9.313   2.736 -0.0862 -0.1705 -0.0491
11830W        W31364   0.559   8.885   3.538  0.1748  0.2241  0.1328
11831W        W31365   9.760  14.681   0.148 -0.0310  0.2864  0.1082
11832W        W31366  15.129  10.710  11.586 -0.0762 -0.0454 -0.2531
11833W        W31367  12.278   1.893   2.730 -0.1106  0.2217 -0.1688
11834W        W31368   9.206  19.090   0.980  0.0637 -0.4429  0.0318
11835W        W31369   8.831   8.519  12.472  0.1496  0.0434 -0.0384
11836W        W31370  17.232  17.245   9.676  0.0102 -0.1239 -0.0903
11837W        W31371   6.436   8.880  12.734  0.1948  0.1289 -0.1431
11838W        W31372   2.761   4.080  12.389  0.0934  0.1426 -0.1662
11839W        W31373   1.874   1.322   1.200  0.2839 -0.2671 -0.1461
11840W        W31374   8.210   4.417  12.950 -0.1709  0.0126 -0.0055
11841W        W31375   3.082  10.745  12.262 -0.1787 -0.0345 -0.0461
11842W        W31376  12.046  10.829   1.264 -0.0220 -0.0391  0.0275
11843W        W31377   8.764  18.533  14.560  0.0883 -0.1385 -0.0833
11844W        W31378   7.386  17.088  14.767 -0.2232  0.0545 -0.1920
11845W        W31379  16.723   8.679   3.693  0.3136 -0.1101  0.1176
11846W        W31380   4.038   1.061   3.552 -0.3553 -0.0614  0.1290
11847W        W31381   8.577   1.518   2.585  0.0264 -0.1741  0.2343
11848W        W31382   9.997   2.951   0.191 -0.0144 -0.3962  0.3328
11849W        W31383  11.243   3.431  11.386 -0.1325 -0.0498  0.1808
11850W        W31384   5.503   7.901  14.205 -0.2386 -0.0780 -0.0565
11851W        W31385  12.311  16.665   2.189  0.0701 -0.2114 -0.1225
11852W        W31386  15.767  13.366   4.181  0.2828 -0.2649  0.0388
11853W        W31387   4.240  17.207   0.148 -0.1821 -0.1076 -0.1955
11854W        W31388  17.250  15.143   0.762  0.1087 -0.2896 -0.0187
11855W        W31389  14.854  17.618   0.090  0.1472  0.2740  0.0356
11856W        W31390   1.171  14.345   3.557 -0.4492  0.1842 -0.0230
11857W        W31391  14.306  13.480   2.119 -0.1269 -0.0055  0.0765
11858W        W31392   4.123   2.380  13.968 -0.0368 -0.2174  0.1407
11859W        W31393  16.130  18.004   5.344  0.0852  0.0038  0.2691
11860W        W31394  17.235   8.450  14.227  0.0513  0.0332  0.1583
11861W        W31395   6.968   5.050  12.111  0.1281  0.0679  0.0963
11862W        W31396  18.109   7.826   2.873 -0.3262  0.0148 -0.0254
11863W        W31397  11.347  12.729   3.817  0.0875 -0.0286  0.1664
11864W        W31398   2.074  17.249  11.015  0.0764  0.0951  0.3587
11865W        W31399  11.486   9.637   1.344  0.0067 -0.3143  0.0831
11866W        W31400   5.733  14.594   1.473  0.0422  0.1510  0.1496
11867W        W31401   1.231   3.359   2.032  0.3518 -0.2364 -0.3672
11868W        W31402  17.878  14.473   1.151 -0.0801  0.2642 -0.3412
11869W        W31403  15.889   0.036  11.636  0.2515  0.0642  0.1052
11870W        W31404  12.935   8.756  11.122 -0.0396  0.0397  0.1556
11871W        W31405   5.663   9.417   3.526 -0.0925 -0.4201 -0.2032
11872W        W31406  16.010  17.285  11.867  0.2515 -0.0254  0.2250
11873W        W31407   9.088   6.529   3.084 -0.3864  0.3770 -0.1432
11874W        W31408   4.048   7.045   0.433  0.1131 -0.0486 -0.2471
11875W        W31409  11.897  10.802  14.727  0.1090  0.2777  0.0480
11876W        W31410   2.393   1.942   9.580  0.1106 -0.2679  0.1326
11877W        W31411  11.147   2.400   0.776  0.3843 -0.1895  0.0679
11878W        W31412  14.689   3.093  11.961 -0.0118  0.1245  0.1615
11879W        W31413  13.538   3.165   2.086  0.0642 -0.0806 -0.3407
11880W        W31414  14.564  12.068   2.096 -0.2443 -0.4717 -0.0973
11881W        W31415  10.738   1.115   3.627  0.0804  0.1721 -0.3114
11882W        W31416   0.380  13.075  14.218  0.0662  0.1449 -0.1558
11883W        W31417  14.699  17.174  10.602  0.1396 -0.2141  0.1833
11884W        W31418  10.123  18.745   0.986  0.0198  0.4409  0.0433
11885W        W31419   3.710  16.078   5.209  0.3240  0.1111  0.0891
11886W        W31420  11.075   3.361   3.210 -0.0565  0.6527  0.0969
11887W        W31421  16.731  14.270   2.960  0.3226 -0.1681  0.1449
11888W        W31422   2.403   0.061   0.223 -0.0612 -0.0280 -0.0283
11889W        W31423   6.473  14.826  11.080  0.1024  0.1436  0.0337
11890W        W31424  18.029   6.329   2.025 -0.4383  0.1460  0.0638
11891W        W31425   5.962  10.292  13.049 -0.0271 -0.0312  0.2179
11892W        W31426   7.791  12.101   2.655  0.0141  0.0289  0.0636
11893W        W31427   2.185   8.050  11.805  0.1255 -0.2096 -0.2246
11894W        W31428  10.605  16.760   5.095 -0.0641  0.1975 -0.3839
11895W        W31429  15.768   7.704   0.918  0.2284  0.1830 -0.3673
11896W        W31430   5.533   8.023   1.979  0.1987 -0.1780 -0.3153
11897W        W31431  11.940   0.096   0.925  0.2013 -0.0997 -0.3977
11898W        W31432  14.831  12.749  14.829  0.2337 -0.1620 -0.1259
11899W        W31433   4.202  11.080  13.200  0.2038 -0.2286 -0.0196
11900W        W31434  12.459  10.246   3.393 -0.0881  0.1029 -0.1011
11901W        W31435   5.887   0.557  13.831 -0.0004 -0.0127  0.2945
11902W        W31436  15.398  13.424  12.456 -0.1330  0.2241 -0.2354
11903W        W31437   7.597  18.654   5.050  0.2739 -0.0879 -0.1744
11904W        W31438   6.292   9.163   2.947 -0.1843 -0.1968 -0.1424
11905W        W31439  15.604   7.567   4.529 -0.1342  0.0751  0.0522
11906W        W31440  11.548   2.779  14.346  0.0218  0.2479  0.2202
11907W        W31441  17.900  10.082   2.628 -0.3028 -0.0543 -0.1520
11908W        W31442   9.621  15.728  12.073  0.0323 -0.0651  0.1892
11909W        W31443   4.392  17.797  11.623  0.4331 -0.1493 -0.0986
11910W        W31444   7.487  14.973   4.074  0.1411  0.2191 -0.0330
11911W        W31445  18.690   7.541   1.399  0.1185 -0.1592  0.0228
11912W        W31446  18.584  13.723   3.840 -0.1532  0.1171  0.0338
11913W        W31447   1.396   0.830  11.537 -0.2618 -0.1251 -0.3446
11914W        W31448   8.780  13.770   4.998  0.2119 -0.4048 -0.0557
11915W        W31449   1.942   3.032  13.728 -0.1856 -0.1500  0.1020
11916W        W31450   5.922  18.741   4.182  0.0894  0.1689  0.0693
11917W        W31451  16.877   8.026   3.388 -0.1582 -0.0770 -0.2595
11918W        W31452  14.182   4.375  12.954  0.2588  0.0461 -0.0429
11919W        W31453  17.116   1.422   9.649 -0.2618  0.3405 -0.1511
11920W        W31454   1.798   7.916  10.077 -0.2068  0.1227  0.2587
11921W        W31455   7.737  17.967  11.404 -0.2276 -0.1456  0.2948
11922W        W31456  10.379   1.148  14.703 -0.2053  0.0031 -0.0712
11923W        W31457  16.614  12.199  10.103  0.0136  0.0879 -0.1136
11924W        W31458   0.513   6.372   0.387  0.2349  0.0450 -0.1039
11925W        W31459   8.765   7.683  12.658  0.0126 -0.0368 -0.2283
11926W        W31460  12.072   8.182   0.285 -0.0207 -0.0357 -0.1747
11927W        W31461   2.351  10.777   3.548  0.0918 -0.0928  0.3187
11928W        W31462   5.095  10.893  12.153 -0.0914  0.0475 -0.2435
11929W        W31463  14.038   0.404  12.234 -0.0358 -0.1568  0.2698
11930W        W31464  13.032   7.461  10.727  0.0678 -0.0430 -0.1979
11931W        W31465  13.262   6.138  13.361 -0.0468 -0.2196 -0.0075
11932W        W31466   6.991  13.503  11.086  0.1768 -0.0185 -0.1528
11933W        W31467  11.014  16.814   3.395  0.1606 -0.1755 -0.0730
11934W        W31468   9.598  13.202  14.547 -0.1453 -0.0965 -0.2836
11935W        W31469  15.377  18.199   0.644 -0.2419 -0.1046 -0.0486
11936W        W31470  10.662   7.661  13.914 -0.2461  0.1257 -0.2181
11937W        W31471  18.101  19.032  12.186  0.0751  0.2332 -0.1862
11938W        W31472  12.287   7.672   4.249  0.0585 -0.1413 -0.3904
11939W        W31473   3.597   6.000  13.271  0.0173  0.1012  0.0650
11940W        W31474   2.289  17.395   0.531 -0.1425  0.0886 -0.2464
11941W        W31475   3.593  17.471  12.159  0.4537 -0.0237  0.3129
11942W        W31476   0.368  14.211   1.399  0.0089  0.0027 -0.1009
11943W        W31477  10.695  14.348  13.093 -0.0942 -0.0735 -0.1060
11944W        W31478   3.740  16.223  11.248 -0.0517  0.1502  0.5048
11945W        W31479   7.303  14.471   3.940  0.3304  0.0840  0.0288
11946W        W31480   6.764   5.154   2.515 -0.2105  0.1356  0.2274
11947W        W31481   9.883   9.462   0.188  0.0592  0.1235 -0.2134
11948W        W31482   6.749   7.224  11.474  0.0386 -0.1509  0.0396
11949W        W31483  13.168   8.581  13.691  0.2012 -0.3990  0.3652
11950W        W31484   3.372  14.082   4.455 -0.3614 -0.1259 -0.0206
11951W        W31485  16.887  11.898   3.270 -0.2398  0.1634 -0.1618
11952W        W31486   7.927   2.225   0.916  0.2000  0.1393 -0.1982
11953W        W31487   9.746   1.939   3.227  0.1666  0.3562  0.1821
11954W        W31488   4.538  18.137   3.406  0.0719 -0.0196 -0.2041
11955W        W31489  16.573   4.330  12.793 -0.0859 -0.0112  0.1016
11956W        W31490   1.376   4.931   1.197  0.3449 -0.2304 -0.0973
11957W        W31491   7.013   7.586  14.008  0.1644  0.0565 -0.1991
11958W        W31492  18.391  11.874   1.429  0.0763 -0.0594 -0.0080
11959W        W31493  14.010   4.840   5.677  0.2786  0.3652  0.0239
11960W        W31494  19.081  17.771   0.628 -0.0629 -0.2894  0.1845
11961W        W31495  18.201   7.431  11.702  0.1292  0.1452 -0.0567
11962W        W31496  12.849   8.160  14.402 -0.0765  0.3909  0.0113
11963W        W31497  13.083   3.411   2.367  0.0875  0.1223  0.1534
11964W        W31498   3.823   3.419   3.888 -0.0932  0.0798 -0.0550
11965W        W31499  13.977  15.003   0.721  0.1351 -0.1051  0.0376
11966W        W31500  12.021  15.412  14.623  0.2157  0.0218  0.0849
11967W        W31501  11.290   8.529  11.485  0.1178 -0.1481  0.0636
11968W        W31502  17.004  16.142   2.969 -0.0509 -0.2163 -0.1081
11969W        W31503  13.443   3.596  10.963  0.0320  0.1583  0.3453
11970W        W31504   1.970  18.635   4.801  0.0781  0.1274  0.1918
11971W        W31505  14.799  11.794  12.063 -0.1132  0.0470  0.3525
11972W        W31506   1.446  11.541  14.428  0.1435  0.4065  0.0631
11973W        W31507  14.184   1.985   4.993  0.0441  0.0145 -0.3177
11974W        W31508   3.727   9.021  12.795  0.0033 -0.1444  0.0287
11975W        W31509   9.448   3.110   1.015  0.3466 -0.2194 -0.0001
11976W        W31510  14.414  17.565   4.373  0.0767  0.0206 -0.4967
11977W        W31511  12.372  15.711   2.576  0.1552 -0.2342  0.2658
11978W        W31512  11.886   0.248  11.953 -0.3798  0.0939  0.0713
11979W        W31513   6.649   5.465   3.969 -0.2917  0.1542 -0.1254
11980W        W31514   0.721   9.789  14.402 -0.0256 -0.2242  0.3593
11981W        W31515  11.621  16.366   1.662  0.2555 -0.1966  0.1413
11982W        W31516   3.724  10.854   3.394  0.0826  0.0319  0.0188
11983W        W31517  18.902  12.765  11.849 -0.2118 -0.1982 -0.1421
11984W        W31518  14.040  18.008  11.393  0.1285  0.0614  0.0957
11985W        W31519   1.050  18.759  11.470 -0.0831 -0.0609  0.1309
11986W        W31520  17.838   2.834   2.576  0.2930  0.0558  0.0060
11987W        W31521  15.729   6.348   1.268  0.3837  0.1273  0.2225
11988W        W31522   2.330   7.141  10.355 -0.3617  0.1359 -0.0857
11989W        W31523   0.014  10.820  10.885 -0.3116 -0.3266  0.0990
11990W        W31524   4.941   1.077  14.827 -0.0554  0.0494  0.0287
11991W        W31525   8.578  18.365  11.462  0.0953 -0.2157 -0.0560
11992W        W31526  15.979  10.099   3.758  0.2080 -0.3004 -0.0102
11993W        W31527  16.651  18.119   4.200 -0.1452 -0.1368 -0.1196
11994W        W31528  16.734   9.805   2.453  0.0695 -0.1164 -0.0280
11995W        W31529   1.389   8.284  10.527 -0.0629  0.2131 -0.0154
11996W        W31530  14.713   2.769   2.924 -0.0618  0.1910 -0.0593
11997W        W31531  13.651  17.623   2.107  0.1334  0.1952 -0.0817
11998W        W31532  14.230  10.719   2.458 -0.0897  0.2446  0.0151
11999W        W31533   2.219   0.497  13.116  0.0092  0.1567 -0.0482
12000W        W31534  18.792  16.284   0.932 -0.0946  0.0046 -0.0173
12001W        W31535   6.815  16.191  14.604 -0.0402 -0.0469 -0.1822
12002W        W31536  15.564   2.810   1.290  0.2248 -0.2218 -0.3309
12003W        W31537   9.766  13.923  13.714  0.0018  0.0540 -0.0020
12004W        W31538  14.762   4.345   1.327 -0.0514 -0.0564 -0.2373
12005W        W31539   2.146   7.146   2.263  0.2944 -0.1596 -0.2301
12006W        W31540  10.989  14.798   4.190  0.0135 -0.1046 -0.1236
12007W        W31541  16.807   6.893  13.990 -0.3157  0.1086 -0.0854
12008W        W31542   8.966   7.569   3.650 -0.2512  0.2341  0.0390
12009W        W31543  13.327   3.975  11.289  0.2061  0.4975  0.0286
12010W        W31544  16.714  10.406   1.553  0.0961  0.0096  0.1241
12011W        W31545  16.860  18.994  11.746  0.1820 -0.1995 -0.3022
12012W        W31546  11.428  16.883   1.472  0.1565 -0.4696 -0.2662
12013W        W31547  15.750   4.479  12.837  0.1174  0.0143 -0.4181
12014W        W31548   2.990   1.558   3.697 -0.1096 -0.1695  0.2315
12015W        W31549  10.615  13.838  14.824 -0.1282  0.3115  0.5161
12016W        W31550  15.819   2.952   3.765 -0.5193 -0.1127 -0.1276
12017W        W31551  18.530   9.496  12.023  0.0629  0.3179 -0.3386
12018W        W31552   4.837  17.301  11.126 -0.0328  0.0398 -0.0678
12019W        W31553   3.588  14.563  11.899  0.1536  0.5297 -0.3038
12020W        W31554  11.367  10.023   2.822  0.0991 -0.2753  0.1037
12021W        W31555  12.788  15.925   4.454 -0.2700  0.1176 -0.0075
12022W        W31556   6.176   0.616   2.546  0.0313 -0.4837 -0.1655
12023W        W31557  13.486  14.900   0.746  0.3245 -0.2214  0.1377
12024W        W31558  12.726   7.601  14.404 -0.0480  0.0248 -0.2529
12025W        W31559   8.444   2.901   4.066  0.3870  0.2623  0.0800
12026W        W31560   9.645  14.049   2.967 -0.3278  0.3591  0.3363
12027W        W31561  10.558  11.816  14.592 -0.0130 -0.0438 -0.0605
12028W        W31562   7.853  13.316  10.217  0.1351  0.0299 -0.0822
12029W        W31563   8.144   1.425  11.345  0.4033  0.0612  0.1184
12030W        W31564   7.177   8.350  12.482 -0.2925  0.0011 -0.0621
12031W        W31565   0.863   1.577   3.253 -0.1782 -0.2285  0.2846
12032W        W31566  12.466   5.145   1.532  0.0803 -0.0184  0.0521
12033W        W31567   7.597  12.319   5.251  0.0048  0.1158 -0.3797
12034W        W31568   8.847  17.996   2.902  0.0761 -0.2552 -0.0065
12035W        W31569  12.047  13.084   3.455 -0.0493  0.0708 -0.0067
12036W        W31570  12.985  13.235   3.358 -0.2752  0.0233 -0.1970
12037W        W31571  17.568  15.583  10.808 -0.0728  0.0077 -0.1232
12038W        W31572  16.658   3.838  12.886  0.1568  0.0362  0.0496
12039W        W31573   8.674   5.286  12.536  0.0262  0.0658  0.0482
12040W        W31574   9.234  10.524   1.092  0.1395  0.0622  0.0668
12041W        W31575   7.717   6.253   1.732 -0.0855  0.0629  0.0530
12042W        W31576   1.324  11.445   0.398  0.0034 -0.0421 -0.0976
12043W        W31577  13.167  14.522  13.572 -0.1168 -0.0089  0.1161
12044W        W31578  18.811   9.593  13.695 -0.0746  0.1836  0.2279
12045W        W31579  14.342  11.435  13.867  0.3210 -0.5412 -0.0263
12046W        W31580  10.398   0.216  13.803  0.1928 -0.0390  0.1245
12047W        W31581  13.172  16.830   4.248  0.1831  0.3380 -0.1053
12048W        W31582   4.551  10.458   3.604 -0.0234 -0.3952  0.0108
12049W        W31583   3.505  14.248   1.947  0.2685  0.1481  0.2067
12050W        W31584   0.042  12.207  14.510  0.0404  0.2907  0.1073
12051W        W31585   8.902  14.569   3.547  0.0892 -0.3516 -0.0366
12052W        W31586  10.558   3.444  13.844  0.2355  0.1539  0.0585
12053W        W31587   5.560  10.527   3.514  0.1096  0.0976 -0.1196
12054W        W31588  12.610  13.891  13.323 -0.3705 -0.0375  0.1058
12055W        W31589  16.818  11.216  12.059  0.2439 -0.4726  0.1125
12056W        W31590  11.448   1.968   3.110 -0.1026  0.0860 -0.2413
12057W        W31591   2.081   6.052   3.094 -0.0193  0.2515  0.1401
12058W        W31592  10.583  12.464  12.271  0.0706 -0.0307  0.0225
12059W        W31593   5.181  13.861   0.500 -0.2346 -0.0984  0.1065
12060W        W31594  17.331   9.759  11.318 -0.0700 -0.3415 -0.3370
12061W        W31595  12.111   2.024  14.082 -0.1667  0.2065 -0.0311
12062W        W31596   2.701  10.339   3.592 -0.0530 -0.2924  0.2189
12063W        W31597  13.551  11.133  12.336 -0.0993 -0.1360 -0.2605
12064W        W31598   6.457   0.882   2.914 -0.2207  0.1067  0.0447
12065W        W31599  11.943  13.971   1.577  0.0184  0.0163  0.1253
12066W        W31600   0.910  16.307  11.311 -0.1113 -0.1129  0.1835
12067W        W31601   4.568  19.079  12.818  0.0729 -0.5627  0.0107
12068W        W31602   1.730   1.738  11.657 -0.0929 -0.2851 -0.0598
12069W        W31603  17.189  16.784   4.231 -0.0411  0.0389 -0.3059
12070W        W31604   0.735  16.130  10.853  0.2732 -0.0365 -0.1300
12071W        W31605  10.740  16.017  14.518  0.2988  0.1379 -0.1535
12072W        W31606  16.267   5.934   3.771  0.0466  0.0358  0.0767
12073W        W31607  18.736  14.711   3.989  0.1182 -0.1393  0.2988
12074W        W31608   7.023   4.344  11.946  0.0392 -0.1082 -0.3885
12075W        W31609   3.164   0.347  11.491 -0.1033  0.1101  0.1133
12076W        W31610   4.579  17.395   1.785  0.0617  0.1202 -0.3025
12077W        W31611   1.218   5.620   0.738 -0.1519 -0.1048  0.1030
12078W        W31612  10.983  13.439   0.940 -0.2031 -0.2590  0.1425
12079W        W31613  16.769   3.203  12.468 -0.1108  0.1199  0.1199
12080W        W31614  18.738  16.520   0.419 -0.3101  0.0454 -0.1192
12081W        W31615  16.859   9.211   3.312 -0.1433  0.1269  0.0328
12082W        W31616  11.364   2.866  10.158 -0.0565 -0.1602  0.2727
12083W        W31617   0.700  15.656   0.315 -0.3359  0.2386 -0.0567
12084W        W31618  12.644   3.277  11.387  0.0228  0.0913 -0.0321
12085W        W31619   0.766  15.926   3.149 -0.0409  0.2380  0.2263
12086W        W31620  18.061  10.604  13.050 -0.0961 -0.0421  0.1463
12087W        W31621   8.677  12.677   2.139  0.1823 -0.0005  0.1442
12088W        W31622   7.738  10.641   1.264 -0.0311  0.0671  0.3648
12089W        W31623   6.382   8.359   0.225 -0.1230  0.0060 -0.1839
12090W        W31624  15.905   2.630   4.227 -0.1049 -0.2624  0.1995
12091W        W31625   0.475   2.147   0.211 -0.1201 -0.0516 -0.1355
12092W        W31626  13.880  18.372   1.522 -0.1723 -0.3698  0.2693
12093W        W31627  16.526  11.460   2.360  0.1572 -0.0457 -0.2208
12094W        W31628  12.885  14.330   3.189 -0.2068 -0.3432  0.0805
12095W        W31629   7.186  14.290  13.608 -0.1767  0.0405 -0.2329
12096W        W31630   3.989  15.242  14.142  0.1799 -0.1790  0.1384
12097W        W31631   2.538   7.367   0.583 -0.0368  0.1433 -0.1928
12098W        W31632  10.951   0.837  12.735  0.2566  0.2279  0.0309
12099W        W31633   7.654  14.098   2.712  0.0908  0.0337 -0.3503
12100W        W31634   7.643  10.368  13.180  0.0308 -0.1764  0.0183
12101W        W31635   8.709   4.390   3.400 -0.1284 -0.2784 -0.0834
12102W        W31636  11.970  14.359  12.905  0.2776 -0.1176  0.1571
12103W        W31637  17.410  10.710  14.329  0.1258 -0.0073  0.0431
12104W        W31638   7.379  12.415  10.124 -0.0369 -0.0258 -0.0799
12105W        W31639  13.060  10.005   2.157  0.3370  0.1185  0.0459
12106W        W31640   1.999  11.693   0.286 -0.0453 -0.1386 -0.3030
12107W        W31641  17.568  17.629  10.837  0.0539 -0.0606  0.1355
12108W        W31642   0.332   0.135  10.775 -0.1760  0.0651 -0.0075
12109W        W31643  13.897   4.434   1.222 -0.3814  0.1740 -0.2550
12110W        W31644   1.957   5.127  13.775 -0.2835 -0.2062 -0.0602
12111W        W31645  10.033   6.199  11.851 -0.0722  0.0538 -0.0282
12112W        W31646   7.617  16.910   4.232 -0.0713  0.1590 -0.0879
12113W        W31647   5.719   8.168  13.622  0.1646  0.2955  0.0836
12114W        W31648   7.851  12.522   2.275  0.1155 -0.0898 -0.1490
12115W        W31649   5.471  16.378   0.642  0.1701  0.0963 -0.0238
12116W        W31650   2.875   3.040  13.666 -0.1646 -0.2594 -0.0388
12117W        W31651  16.480  14.273  11.561  0.0618 -0.3335 -0.2544
12118W        W31652  16.393  14.107   3.275 -0.1042  0.0706  0.2214
12119W        W31653   7.449  14.438  14.634  0.0527 -0.0893 -0.0376
12120W        W31654   1.982  18.126   2.341 -0.0470 -0.1355  0.0526
12121W        W31655   2.317   9.812  11.796  0.0235  0.3390 -0.4166
12122W        W31656   8.416   9.747  10.513 -0.0608 -0.2532 -0.2392
12123W        W31657  11.317  16.663   0.986 -0.2700 -0.2108 -0.0888
12124W        W31658  17.082  14.734  14.381  0.1753  0.1107 -0.2397
12125W        W31659  11.325   2.547   1.234 -0.2413 -0.0602  0.3523
12126W        W31660  15.882  12.702  10.648 -0.1453  0.0068 -0.2793
12127W        W31661   2.539  13.535  12.981  0.0422  0.1540  0.0045
12128W        W31662  18.295   0.255   1.313 -0.0329 -0.2284 -0.1218
12129W        W31663  10.773   0.078   0.016  0.0579 -0.0569  0.2827
12130W        W31664   4.025  10.236  14.345 -0.2793  0.1062  0.0406
12131W        W31665   1.467  12.343  13.133  0.0596  0.2586  0.1579
12132W        W31666  10.150   3.687   9.768  0.2494 -0.0585 -0.1767
12133W        W31667  18.712  18.692  13.766 -0.1050 -0.0816 -0.1538
12134W        W31668   4.861  11.617  13.190 -0.1099  0.3120  0.0923
12135W        W31669   4.291   3.321  12.460  0.1078  0.2947 -0.0031
12136W        W31670  16.609  18.293  10.833  0.0853  0.2276  0.0486
12137W        W31671  17.534   5.733  14.250  0.0950 -0.1526  0.0205
12138W        W31672  15.169   0.208   2.667 -0.3392  0.0984 -0.1011
12139W        W31673   3.087  15.314  14.055 -0.2917  0.1812 -0.2734
12140W        W31674  12.389  17.016   4.060 -0.2140  0.0871 -0.0427
12141W        W31675   4.117  14.436  13.368  0.0028 -0.1252 -0.0834
12142W        W31676  14.696  15.603  12.722 -0.2757 -0.4340  0.0258
12143W        W31677   3.842   1.300  11.388 -0.1746 -0.1756  0.0953
12144W        W31678  12.522  14.306   3.651  0.1841 -0.0361  0.2235
12145W        W31679  16.831   8.466  12.599  0.3132 -0.1390 -0.2229
12146W        W31680  12.127  13.789  14.139 -0.2076 -0.1079 -0.0641
12147W        W31681  14.526   6.138   3.886 -0.0253 -0.1647  0.0794
12148W        W31682   7.182  16.122   2.023  0.1668 -0.4589 -0.0233
12149W        W31683   1.304   9.453  10.606 -0.1451 -0.3829 -0.2489
12150W        W31684   7.733   8.013   3.542 -0.0709  0.0104 -0.0191
12151W        W31685   3.666   5.088   4.225 -0.1398  0.0024 -0.1622
12152W        W31686  18.628   7.599   2.018 -0.0747  0.2063  0.0501
12153W        W31687   7.125   0.053   1.812 -0.4560  0.3152 -0.0792
12154W        W31688   1.439   9.047   0.426 -0.1113  0.2149 -0.1170
12155W        W31689  13.664   9.159  14.336  0.1421  0.1248 -0.1850
12156W        W31690   6.229  12.626   2.230  0.1608  0.1564  0.1422
12157W        W31691   5.534   3.236   0.277  0.2290 -0.0055 -0.1333
12158W        W31692   3.690  11.953  14.691  0.0966  0.0081 -0.1898
12159W        W31693   6.645   2.543   2.796  0.2508 -0.0463 -0.0663
12160W        W31694   5.300   5.865   0.485  0.2106 -0.4220  0.1327
12161W        W31695   4.127   3.620  13.444  0.0009 -0.0558  0.1163
12162W        W31696  12.773   5.245  12.456  0.0007 -0.2290 -0.1421
12163W        W31697   2.777  18.700  13.094 -0.1600 -0.0651 -0.0584
12164W        W31698  17.254  17.728  12.470  0.5751  0.3521 -0.0825
12165W        W31699   4.572  10.611   0.882  0.0664  0.0460  0.2254
12166W        W31700  17.496   4.661  12.919 -0.0660  0.2198  0.1161
12167W        W31701  15.452   2.649  12.698 -0.2347  0.1846 -0.0484
12168W        W31702   1.609  11.689  12.687  0.3078 -0.0157  0.1020
12169W        W31703   4.900  16.532   0.698  0.2338  0.2783  0.1964
12170W        W31704  17.188  18.121  11.543  0.2692 -0.0806 -0.1288
12171W        W31705  18.972   5.623  11.722  0.0381  0.1913 -0.1281
12172W        W31706   5.117  15.176   2.157  0.2201  0.2507 -0.0946
12173W        W31707   0.863   1.201   4.177 -0.0306  0.1496  0.2552
12174W        W31708  15.631   9.187  14.424  0.0955 -0.0910  0.0389
12175W        W31709  13.803  15.242  13.739  0.1213 -0.1314  0.1080
12176W        W31710  18.826  10.169   2.321 -0.0060  0.1385 -0.2979
12177W        W31711  12.088   2.523   2.742  0.0830  0.1714 -0.0279
12178W        W31712   1.584  14.614   3.835  0.0553  0.1572 -0.1816
12179W        W31713   8.385   6.893  14.054  0.0500 -0.2376 -0.3195
12180W        W31714   8.976   0.664  12.503 -0.1791 -0.0019 -0.2910
12181W        W31715  18.097   7.402   1.142  0.0316  0.0456 -0.2407
12182W        W31716   7.863   7.578  13.705  0.2779  0.0549 -0.1309
12183W        W31717   4.362   9.850  14.173 -0.1842 -0.0897 -0.0871
12184W        W31718   9.010  14.908  12.452 -0.0487  0.0902 -0.0063
12185W        W31719   6.829   4.549   3.630  0.4568  0.1262 -0.2720
12186W        W31720   1.767   8.579  11.290  0.1121  0.0413  0.1164
12187W        W31721   7.947  13.684  13.491 -0.1239  0.2400 -0.0607
12188W        W31722   3.939   3.948   0.575 -0.2145 -0.0270 -0.1643
12189W        W31723  16.835   5.629   3.755  0.2766  0.0878 -0.0238
12190W        W31724  16.331  11.678   1.805 -0.0067  0.0194 -0.1026
12191W        W31725  13.598   5.465  12.841  0.1525  0.0912 -0.1810
12192W        W31726  10.727   9.095   0.953  0.4003  0.2506 -0.0694
12193W        W31727   1.879  16.508  13.493 -0.2374 -0.2576  0.2548
12194W        W31728   9.657  13.514  12.011 -0.0605 -0.1335  0.0291
12195W        W31729   6.532   8.727   3.043 -0.3163  0.1816 -0.0555
12196W        W31730  12.291  12.625   0.876 -0.1975  0.0617 -0.3918
12197W        W31731  12.891  17.170   3.927  0.0334  0.1006 -0.3459
12198W        W31732  10.395  15.081   1.083 -0.3899 -0.2437 -0.0022
12199W        W31733  12.851   3.019  11.760 -0.1012 -0.1214 -0.0571
12200W        W31734   7.882  16.848  14.441  0.1732 -0.0894  0.1192
12201W        W31735   6.132   1.996  14.668 -0.2123 -0.3662  0.2247
12202W        W31736   2.031   9.875   0.140 -0.1574  0.2564  0.1923
12203W        W31737  17.814  15.174  14.039  0.1549 -0.2001 -0.1040
12204W        W31738   5.624   4.041   3.668  0.2997  0.1333  0.2471
12205W        W31739  18.922  16.292  11.286  0.2026  0.1332  0.3423
12206W        W31740   4.509  10.005   3.992  0.2969 -0.5112  0.1906
12207W        W31741   2.328  14.064  11.624 -0.1480 -0.0446 -0.3615
12208W        W31742   1.307  17.855   1.263  0.1466  0.1476 -0.1371
12209W        W31743   8.953   1.874  11.415 -0.1787 -0.0358  0.1443
12210W        W31744  18.545  18.939  14.757 -0.3010  0.0447 -0.2012
12211W        W31745  13.472  12.937  11.364 -0.0485 -0.0035  0.0564
12212W        W31746   5.288   3.668  10.926  0.4014  0.0762 -0.1008
12213W        W31747   5.166   6.887  12.407 -0.0304  0.0128  0.1580
12214W        W31748  14.691   0.724  11.967 -0.1337  0.0881  0.1190
12215W        W31749  13.271   6.900   2.784  0.0703 -0.1738 -0.0558
12216W        W31750   5.269  12.118  11.353 -0.0238 -0.0416  0.0341
12217W        W31751   1.429   3.962  11.475  0.0710 -0.0231  0.1637
12218W        W31752   4.216  15.947  11.023 -0.0552  0.0233  0.0723
12219W        W31753  11.506   1.618   9.820  0.5506  0.1745 -0.1094
12220W        W31754  11.036   8.117   1.575 -0.3579  0.0673  0.1711
12221W        W31755   7.686   4.687   0.723  0.1736 -0.1302 -0.3179
12222W        W31756  19.039  17.237  13.687  0.0880 -0.1824  0.3444
12223W        W31757  14.200   0.081   2.020 -0.1843 -0.2831 -0.4529
12224W        W31758  14.041   7.361  13.746  0.3436  0.1176 -0.0727
12225W        W31759   9.102  16.085   1.413  0.1409  0.0768 -0.1582
12226W        W31760  12.495  15.701   3.571  0.4410  0.3170  0.2823
12227W        W31761   2.673   1.243  12.798  0.3230 -0.0519 -0.0482
12228W        W31762  19.095   3.228  14.694 -0.0486 -0.2495 -0.2058
12229W        W31763   9.641   2.747   3.522  0.1171 -0.2963  0.2228
12230W        W31764   6.049   8.323   4.277 -0.1936  0.0186 -0.1852
12231W        W31765  12.336   7.404  13.182  0.0866  0.0128  0.1675
12232W        W31766   7.708  15.930  12.615  0.0742  0.0111  0.0579
12233W        W31767  17.164  15.004  13.523 -0.4076  0.0090 -0.1918
12234W        W31768  13.502  15.344  13.340  0.1281 -0.0463 -0.1796
12235W        W31769  13.738   2.153  11.522 -0.0407 -0.1372 -0.1061
12236W        W31770  17.596   5.267   3.538 -0.1852  0.3100  0.0422
12237W        W31771   1.432   1.099   1.090  0.0964 -0.1038 -0.0649
12238W        W31772   2.094   1.787   0.008 -0.1934 -0.2456  0.0931
12239W        W31773  18.225   5.761   4.071  0.1760 -0.4822  0.2746
12240W        W31774  15.242  12.915  11.431 -0.1454 -0.1250  0.2367
12241W        W31775  11.233  13.575   3.621  0.0642 -0.0264 -0.0546
12242W        W31776  10.349   7.404   2.935  0.1839  0.3093 -0.0037
12243W        W31777   3.967  11.543   2.801  0.0029  0.1320 -0.1745
12244W        W31778  15.475  11.792   1.846  0.2233  0.0139  0.1715
12245W        W31779   4.432  13.526   1.360  0.2274 -0.0006 -0.2065
12246W        W31780  11.155   9.994   2.327  0.1019  0.1692 -0.1069
12247W        W31781  10.205  11.498  14.396 -0.3202  0.1460  0.0132
12248W        W31782  12.040   3.972   2.058  0.1270 -0.2266  0.2215
12249W        W31783  18.501   0.686  14.280 -0.0975  0.1103  0.1749
12250W        W31784  11.929  17.739   1.505  0.0385 -0.2813  0.0946
12251W        W31785   8.036  17.940   2.669  0.0975  0.0432 -0.1181
12252W        W31786  12.721  15.150   3.152  0.0572 -0.0326 -0.4932
12253W        W31787  16.135   7.346   1.132 -0.0485  0.4404  0.0523
12254W        W31788   5.142   9.120  14.621 -0.3679  0.2138 -0.1581
12255W        W31789   4.797  10.529  12.445  0.0635  0.0852 -0.0287
12256W        W31790   4.575   0.329  14.368 -0.0283  0.0453 -0.3308
12257W        W31791   3.166   3.823  12.328 -0.4884  0.1164 -0.0952
12258W        W31792   2.242   1.730  13.489 -0.4454 -0.0687  0.1934
12259W        W31793   7.831   4.230  12.611 -0.0303 -0.0338  0.0656
12260W        W31794   7.396   0.470   5.010 -0.1392 -0.1688 -0.0756
12261W        W31795  15.919  12.197  11.424  0.0456 -0.0421 -0.1394
12262W        W31796   6.381   9.291   2.447 -0.2121 -0.3857 -0.2723
12263W        W31797   7.851  11.804  13.710  0.1245  0.1168 -0.1512
12264W        W31798   6.780  18.687  10.733 -0.3874  0.4068  0.1459
12265W        W31799   0.263  13.824  14.452 -0.0227 -0.3080 -0.0403
12266W        W31800  19.050   1.238  13.940  0.1972 -0.0456 -0.0536
12267W        W31801   3.075   0.882   1.530  0.1515  0.4451  0.0495
12268W        W31802   6.093  18.165   1.706  0.2119  0.0628 -0.4173
12269W        W31803   1.760  12.852  13.627  0.2546 -0.0734  0.0904
12270W        W31804   8.176  15.852   0.570  0.0789 -0.1147 -0.0505
12271W        W31805  13.377   1.705   0.566 -0.0585 -0.0288  0.2212
12272W        W31806   1.976   1.355   2.115  0.2514  0.2542 -0.1447
12273W        W31807   8.784  12.515  11.266 -0.0343  0.0140 -0.2079
12274W        W31808   0.780  12.237  14.456  0.1990 -0.3857 -0.2324
12275W        W31809  12.456  11.445   3.017 -0.1617  0.1467  0.2465
12276W        W31810  14.603   9.948   0.783  0.0688  0.2240 -0.0477
12277W        W31811   3.343  10.158   5.647  0.2293  0.0766  0.0910
12278W        W31812   0.730   5.055   3.264  0.0804  0.2019  0.2382
12279W        W31813   3.394   0.285  12.038  0.0123  0.1962  0.1018
12280W        W31814  12.978   8.774  11.994 -0.0898 -0.0212 -0.0242
12281W        W31815   7.588   1.862  11.867 -0.3999 -0.0365  0.0642
12282W        W31816  14.827  14.938   1.248 -0.2546  0.0106  0.0349
12283W        W31817  18.520   8.779   2.330 -0.3737  0.2656  0.3020
12284W        W31818   1.415   6.241  10.491  0.0849  0.1462 -0.1345
12285W        W31819   0.514  14.510   1.828  0.1206 -0.0592  0.0485
12286W        W31820  10.328  18.533  10.471 -0.1241  0.0839  0.1475
12287W        W31821  15.553  15.340  12.350  0.2673  0.0994 -0.0608
12288W        W31822   1.842   1.169  10.894  0.2409 -0.0939  0.0539
12289W        W31823  11.400   7.052   4.035 -0.0659  0.1336  0.2145
12290W        W31824  13.376   4.847   2.179 -0.2911  0.1397 -0.0425
12291W        W31825  18.031   8.462   3.640  0.0238 -0.2578 -0.0820
12292W        W31826  16.007  19.095  12.319  0.3883  0.0302 -0.0538
12293W        W31827  11.703  14.063  12.293  0.1370  0.0315  0.1543
12294W        W31828  17.794   9.850  14.669  0.2920 -0.0927  0.1370
12295W        W31829  15.666   1.666  14.478 -0.0634  0.0623  0.2755
12296W        W31830   4.638   1.274  12.660  0.0694 -0.2410  0.0999
12297W        W31831   3.044   1.750   1.080  0.0183 -0.1905 -0.0468
12298W        W31832  15.228   7.009  13.107 -0.0094  0.1897 -0.1336
12299W        W31833  13.835  11.471  13.836 -0.1506 -0.2247 -0.0770
12300W        W31834   1.620  14.031  14.775 -0.0198 -0.0612 -0.1275
12301W        W31835  13.388  15.632  12.958  0.0020  0.0928  0.2985
12302W        W31836   0.555  15.768  14.705 -0.1737 -0.1876  0.4145
12303W        W31837  14.136   1.606  14.264  0.0115 -0.2564  0.0582
12304W        W31838  11.893   4.881   1.532  0.0820 -0.1461 -0.1701
12305W        W31839  15.331  16.034  10.823 -0.0204 -0.0536  0.1473
12306W        W31840   1.544  16.891  14.553 -0.0135 -0.1713 -0.0029
12307W        W31841   5.013   4.474  14.273 -0.3440 -0.1191  0.0301
12308W        W31842   5.372  12.444  13.204 -0.1201  0.2625 -0.1025
12309W        W31843  14.963   3.137  13.787 -0.0262  0.1439  0.0397
12310W        W31844  17.324   7.626  12.026 -0.3028  0.1473 -0.2049
12311W        W31845  11.590   3.355   3.345  0.0778 -0.0823 -0.0669
12312W        W31846  12.364  12.260  12.971 -0.0099  0.6370 -0.2023
12313W        W31847   4.736   0.770   3.249  0.0511 -0.1753  0.0890
12314W        W31848   1.327   3.037   0.702  0.2056  0.0337  0.1343
12315W        W31849  11.768  15.611  12.077 -0.1097  0.0960 -0.1801
12316W        W31850  16.978   6.060  10.750 -0.0176  0.2827 -0.0695
12317W        W31851  12.229  16.074   2.193 -0.1994 -0.1377  0.0807
12318W        W31852   4.958  13.964   1.860  0.2116 -0.1676  0.0855
12319W        W31853   5.336  13.211  12.501 -0.2621  0.2485 -0.0029
12320W        W31854   9.448   1.907   3.632 -0.3605 -0.2531  0.1370
12321W        W31855   8.860  16.402   2.750 -0.2023  0.1268 -0.0255
12322W        W31856   9.177   0.056   2.831  0.1213 -0.2028  0.0807
12323W        W31857  16.756  15.763   4.562 -0.1661  0.1977  0.0045
12324W        W31858  15.978   1.434   3.467 -0.0120 -0.1272  0.4412
12325W        W31859   9.823  14.881  13.557 -0.2651  0.2368 -0.0607
12326W        W31860  10.506   3.089   2.479  0.0747 -0.2072 -0.1820
12327W        W31861   1.637   5.329  13.466 -0.2567 -0.0957  0.0098
12328W        W31862  14.840   4.847  14.670 -0.2349  0.1617 -0.3946
12329W        W31863   6.161   5.968  12.800  0.0811  0.1408  0.1876
12330W        W31864  10.943   9.836  13.935  0.2362  0.2974  0.0689
12331W        W31865   6.915  13.884   0.060 -0.0416  0.1971 -0.0551
12332W        W31866   5.519  18.026  11.041  0.1838 -0.0227 -0.0270
12333W        W31867  16.229  18.611  13.287  0.0609  0.0609 -0.2424
12334W        W31868   8.524   4.467  13.293  0.0538 -0.3316 -0.1183
12335W        W31869   4.199   9.975   3.541  0.1217  0.0875  0.1649
12336W        W31870   8.685   4.487   0.758  0.1153 -0.1044  0.0147
12337W        W31871  14.874   6.543   2.420  0.3908 -0.2096  0.3351
12338W        W31872  12.807   3.673  13.963  0.0229  0.3739  0.1261
12339W        W31873   5.578   1.870  13.781  0.0778 -0.0546  0.0068
12340W        W31874  17.041  12.684   2.320  0.2424 -0.0483  0.0757
12341W        W31875   2.604   3.842  14.745  0.0396  0.1013  0.1163
12342W        W31876   8.864  18.133  10.592  0.2294  0.1282  0.1128
12343W        W31877  17.041   2.021  11.991  0.2182  0.1924 -0.0439
12344W        W31878  14.327   5.357   4.439 -0.1886 -0.1579 -0.0898
12345W        W31879  13.833  16.020   2.671  0.2367  0.3432 -0.0846
12346W        W31880  16.456   9.235  10.724 -0.0064  0.0243  0.0254
12347W        W31881   4.367   8.131   3.784  0.0605 -0.0248  0.1386
12348W        W31882  16.839  14.507  12.675 -0.3710 -0.0300  0.0340
12349W        W31883   8.964  11.197  10.776  0.0600 -0.0862  0.0729
12350W        W31884  17.400   2.607   1.687 -0.1621 -0.0415 -0.1950
12351W        W31885  18.112  11.603  11.168 -0.3585 -0.0640 -0.1221
12352W        W31886   7.980  18.172   1.485 -0.2985 -0.0488 -0.1126
12353W        W31887  13.122  15.982   3.792 -0.0348 -0.1142 -0.0666
12354W        W31888  17.517   6.359   2.431 -0.0001 -0.3009 -0.3483
12355W        W31889   7.170  18.817   2.506  0.4341  0.1673 -0.2158
12356W        W31890  11.585  15.830   0.753  0.0204 -0.0430  0.2485
12357W        W31891   2.707   0.048   3.000  0.1913 -0.0565 -0.1330
12358W        W31892  17.749  12.259   0.108 -0.0924  0.1112  0.1989
12359W        W31893  12.997  12.773  13.887  0.1656  0.2197 -0.2987
12360W        W31894  13.789  18.422  11.461  0.0759  0.2487  0.1039
12361W        W31895   3.986   3.880  11.526  0.1636 -0.1168  0.0824
12362W        W31896  15.884  11.692   3.167  0.0007  0.2726  0.0579
12363W        W31897  14.527  14.663  13.390 -0.2382 -0.0734 -0.0032
12364W        W31898  14.781  12.962  13.752  0.0585 -0.0711 -0.0907
12365W        W31899   3.223  15.831   3.456  0.2171  0.1969 -0.0847
12366W        W31900  17.634  11.592   0.920 -0.0683 -0.0308  0.1377
12367W        W31901  13.347   3.908  11.788  0.1436 -0.3656 -0.0621
12368W        W31902   7.179   6.173   0.641 -0.0929 -0.1827 -0.1383
12369W        W31903   1.513  14.160  13.243  0.1980 -0.0061 -0.1501
12370W        W31904   9.089  14.701   0.991  0.3112  0.0211  0.1065
12371W        W31905  13.288  11.546  11.061  0.1870 -0.0821 -0.0022
12372W        W31906  18.123  13.826   3.148  0.0186  0.0707  0.1578
12373W        W31907   8.192   2.261  12.052  0.1846  0.4593 -0.2165
12374W        W31908   1.323   5.656  13.275  0.2239  0.0556 -0.2218
12375W        W31909   1.817   8.130   1.377 -0.1740  0.3064 -0.0437
12376W        W31910   7.214  19.091   0.356  0.2431 -0.2384 -0.2880
12377W        W31911   8.171  18.651  12.416 -0.1717  0.1842 -0.1625
12378W        W31912   6.315  12.810   1.703  0.0842  0.1104 -0.0616
12379W        W31913   9.319  17.040  11.670  0.0278 -0.0251 -0.0069
12380W        W31914  10.884   5.783  11.416 -0.0199  0.4357  0.0173
12381W        W31915   2.469   3.238  14.585  0.3686 -0.0455 -0.2707
12382W        W31916  17.284   5.955  12.086 -0.0710  0.2359 -0.0560
12383W        W31917   7.123   2.595  13.621  0.1553  0.0260 -0.0416
12384W        W31918  12.084   9.243  14.228 -0.0664  0.1069  0.0195
12385W        W31919   3.722  18.496   3.861  0.1326  0.0870  0.1919
12386W        W31920   0.703  16.996   3.181 -0.1155  0.3976 -0.1313
12387W        W31921  18.934   2.282   1.130 -0.0253 -0.1293  0.0489
12388W        W31922   6.454  13.507   2.242  0.4250  0.1356 -0.1546
12389W        W31923   3.854  12.875  12.932  0.2057 -0.2129 -0.0283
12390W        W31924   0.013  15.990   3.906 -0.0209 -0.0911  0.2476
12391W        W31925  17.126  17.876  10.713  0.2498 -0.0935 -0.0591
12392W        W31926  13.928  14.589   1.041  0.0257 -0.3993  0.0423
12393W        W31927  11.075   1.299  12.910  0.0836  0.1342  0.3884
12394W        W31928   2.346  13.262  10.890  0.0692  0.1653  0.1198
12395W        W31929  10.253  15.401  11.578  0.0992 -0.0271  0.3612
12396W        W31930   0.787   6.455  13.514 -0.0371 -0.2661 -0.0116
12397W        W31931   8.284   1.180   3.585  0.0177 -0.2205  0.0841
12398W        W31932   1.764  10.419   4.019  0.1911 -0.1250 -0.2431
12399W        W31933  12.874   7.097   1.647  0.0251  0.0210  0.3190
12400W        W31934   4.313   6.412  13.579  0.1606  0.1421 -0.1867
12401W        W31935   4.382   0.515  11.349  0.0896  0.2261 -0.3726
12402W        W31936   2.737   3.866   3.638 -0.2904  0.0154 -0.2079
12403W        W31937   8.860   5.751   3.374  0.0685  0.2014  0.0946
12404W        W31938  17.936   8.412   9.818 -0.0539  0.2273  0.0102
12405W        W31939  16.236   7.594   2.337 -0.0767 -0.0823  0.2048
12406W        W31940  12.836   8.610   3.976  0.3314  0.1461 -0.0487
12407W        W31941   4.535  16.453   1.550  0.0543  0.1028 -0.0361
12408W        W31942   9.637  14.522   3.245  0.1412 -0.2436 -0.2689
12409W        W31943   6.888   2.393  14.430  0.3594  0.0469 -0.1057
12410W        W31944   4.560  13.134   3.852 -0.0942  0.2918  0.1041
12411W        W31945   8.665   3.711  10.432 -0.1553  0.0957 -0.1362
12412W        W31946  10.452   4.398  12.233  0.0261  0.1354  0.4126
12413W        W31947  15.437   8.201   3.826  0.4100 -0.0770 -0.6008
12414W        W31948   3.879  14.587  13.840 -0.2339  0.0858 -0.0892
12415W        W31949   4.334  10.826   4.470  0.1454 -0.0288  0.1533
12416W        W31950   2.231  15.789   1.392 -0.3091  0.3291 -0.4327
12417W        W31951   9.439  16.118  11.749  0.5162  0.1061  0.2483
12418W        W31952   3.184   9.493   1.540  0.1931  0.3285 -0.3827
12419W        W31953   9.702   9.297   3.874 -0.2238  0.1952 -0.1966
12420W        W31954   4.108   9.748   1.246  0.1726 -0.2049 -0.0412
12421W        W31955  16.420   7.533   1.551  0.0908  0.0231  0.0036
12422W        W31956   3.453   9.388  14.741  0.2167 -0.1203  0.0863
12423W        W31957   8.963  11.042   0.918  0.0891 -0.0112 -0.2604
12424W        W31958  11.509   8.819  12.430 -0.0160  0.2385  0.4136
12425W        W31959  18.042  15.775  10.932 -0.2013 -0.0371  0.0350
12426W        W31960   1.522  12.359  13.602 -0.2048 -0.1126  0.0397
12427W        W31961  12.819  11.734  11.211  0.1564 -0.1193 -0.1096
12428W        W31962   6.969   8.734   1.785 -0.0141  0.0725  0.2077
12429W        W31963   0.409   7.555  12.464  0.0263 -0.0514 -0.0988
12430W        W31964  10.852   1.210  14.664 -0.0797  0.0895 -0.0499
12431W        W31965  14.166  16.372   5.070  0.0286  0.2541  0.0197
12432W        W31966  15.054  18.201   2.914 -0.0794 -0.1894  0.0240
12433W        W31967   9.125  17.227  13.193 -0.2139  0.2483 -0.0625
12434W        W31968   0.896   2.801  13.884 -0.1180 -0.1275 -0.2148
12435W        W31969   3.757   9.007   0.763 -0.2079  0.3129 -0.0096
12436W        W31970  11.615   1.789  11.230  0.1793 -0.1010  0.1388
12437W        W31971  18.626  12.946  10.881  0.2255  0.2258 -0.0227
12438W        W31972   2.106   2.465  10.590  0.2469 -0.1888 -0.1577
12439W        W31973  15.469  16.321   2.146 -0.0871 -0.2253  0.1473
12440W        W31974  13.237  16.917   2.573 -0.2037  0.1449  0.1009
12441W        W31975  10.002   6.867   2.823  0.1797  0.0778  0.1907
12442W        W31976  11.608  10.614  13.764 -0.2493  0.0699  0.0232
12443W        W31977   2.570  14.925   0.337 -0.1443 -0.1468 -0.0330
12444W        W31978  11.825  16.866  13.934 -0.1142 -0.0710 -0.1933
12445W        W31979  17.778  11.212  11.113  0.0774  0.0680 -0.2200
12446W        W31980  13.720   3.538  14.778  0.1065  0.0742  0.0961
12447W        W31981  15.565   0.646  12.793  0.5429  0.1202  0.0644
12448W        W31982  13.129   9.449  12.585  0.3253 -0.0529  0.0833
12449W        W31983  17.757  16.897   4.199 -0.2668  0.0371 -0.0151
12450W        W31984   3.871  15.360   1.394  0.3190  0.1232 -0.2705
12451W        W31985   7.537   4.018   0.493 -0.0834  0.3784 -0.0198
12452W        W31986   2.180  18.007  11.508  0.0542 -0.0337  0.0739
12453W        W31987  18.703   8.606  11.085  0.1131  0.4071  0.0399
12454W        W31988   1.258   3.904   2.169 -0.2855  0.1546  0.0358
12455W        W31989  17.183  12.164   2.400 -0.0163  0.0251 -0.0481
12456W        W31990  10.215  11.167   1.507  0.1075  0.1536  0.1866
12457W        W31991   4.445  10.799  12.800 -0.2204  0.1465  0.2227
12458W        W31992   1.868  15.056  12.267  0.0995 -0.2282 -0.0368
12459W        W31993  11.006  12.174   2.598 -0.0597 -0.0502  0.0991
12460W        W31994  15.024  11.280  11.721  0.1842  0.0348 -0.0339
12461W        W31995   4.535   4.829   1.337 -0.0090 -0.1702  0.1162
12462W        W31996   8.181   5.178   2.357  0.0437 -0.0970 -0.0234
12463W        W31997   1.062   5.372   3.054  0.1770 -0.0039 -0.0247
12464W        W31998   2.860   2.485   3.309  0.2817  0.1631 -0.0095
12465W        W31999  13.728  13.449   0.373 -0.0761 -0.0573  0.1092
12466W        W32000   8.499  15.867   3.452  0.2067  0.1560 -0.0738
12467W        W32001   0.910  15.608   2.644  0.2826  0.1319  0.0684
12468W        W32002   2.044  10.844   1.297 -0.1422  0.1118 -0.2289
12469W        W32003  10.300   5.996  12.659 -0.0628  0.0408  0.2084
12470W        W32004   4.548  11.921   3.203  0.1404  0.2466 -0.2739
12471W        W32005   3.443   3.767   3.852  0.3181  0.1346 -0.1919
12472W        W32006  16.671  12.234  13.483  0.3570  0.3506 -0.2275
12473W        W32007  15.537  14.926   0.581 -0.0965 -0.2977  0.0443
12474W        W32008   1.184  12.159   1.644 -0.1286 -0.0036 -0.1205
12475W        W32009   3.984  17.993   2.459  0.3210  0.0172 -0.0757
12476W        W32010   5.815  17.704   5.192 -0.0614  0.1497  0.1030
12477W        W32011   9.665  12.037   0.242 -0.1971 -0.0456 -0.2905
12478W        W32012  10.331  11.105  13.487  0.1364 -0.0189 -0.1340
12479W        W32013  15.463   5.910  13.931 -0.0588 -0.0374  0.2232
12480W        W32014  14.567   7.690  12.493 -0.0834  0.0848  0.0783
12481W        W32015   0.644   6.480   1.531  0.0735 -0.0439 -0.1520
12482W        W32016   1.998  13.784   0.828  0.0547  0.0325  0.2343
12483W        W32017   2.861  16.831   2.676  0.0874 -0.1158 -0.4796
12484W        W32018   0.151   8.237  10.310  0.0034 -0.0917  0.1930
12485W        W32019   3.684   5.637   2.790  0.1693 -0.4101  0.0496
12486W        W32020  10.036   0.690   1.581 -0.1907  0.2000  0.0282
12487W        W32021   1.722   1.672   0.360  0.2642 -0.0366  0.0674
12488W        W32022  14.171  19.073  14.156  0.0560  0.0311  0.1587
12489W        W32023   4.028  12.207  11.060 -0.1127  0.2138  0.1852
12490W        W32024  10.212  15.671   3.361  0.3117  0.1465 -0.0508
12491W        W32025  10.165   2.407   4.088 -0.2134 -0.0345  0.1346
12492W        W32026   7.131   7.149   3.195  0.3115  0.0719  0.1943
12493W        W32027  18.077  15.845  13.196 -0.1687  0.3177  0.2581
12494W        W32028   1.082  10.298   3.872 -0.1516  0.0195  0.0180
12495W        W32029   0.646  11.338   0.695  0.0841 -0.0491  0.0508
12496W        W32030   4.402   5.029  11.930 -0.0456 -0.0135 -0.2293
12497W        W32031   5.765  18.259   4.796 -0.0793  0.0813  0.0844
12498W        W32032  17.557   8.325  10.875  0.3614  0.1003 -0.0138
12499W        W32033  11.615   0.055  11.229  0.0922 -0.0711  0.0190
12500W        W32034  15.345  16.706  13.027 -0.0237 -0.0691 -0.3388
12501W        W32035   0.467   5.530  13.796 -0.0034 -0.0928 -0.0438
12502W        W32036  17.145   5.427   1.512 -0.1423 -0.2955 -0.1187
12503W        W32037   5.441  16.819   1.978  0.2075 -0.1541  0.1577
12504W        W32038  15.541   4.842   1.370  0.2407  0.3152 -0.1020
12505W        W32039  13.536  14.951  12.878  0.0537 -0.2103 -0.2379
12506W        W32040  14.596  12.076   3.294  0.0992  0.0467 -0.3989
12507W        W32041  15.573  15.830  12.555 -0.0434 -0.0701 -0.2130
12508W        W32042  12.266   3.514  10.822 -0.1446 -0.1075  0.2543
12509W        W32043  11.088  17.290  11.879  0.0247 -0.0447  0.1197
12510W        W32044  12.158  13.385  12.451  0.3287 -0.1611  0.1019
12511W        W32045  18.871  16.015   0.361 -0.2789 -0.2385  0.3047
12512W        W32046  13.612  17.407   0.925  0.0495  0.1023 -0.2259
12513W        W32047  13.334  17.271   2.216  0.3670  0.1194 -0.2792
12514W        W32048   0.056   5.213  14.523  0.0678  0.0385 -0.3251
12515W        W32049  10.299   9.386  12.799  0.3343 -0.0382 -0.0690
12516W        W32050   8.274  11.763  14.691 -0.5654  0.2142  0.0703
12517W        W32051   6.396  12.826  14.180  0.2705 -0.3502 -0.3785
12518W        W32052   5.821  12.639   1.504  0.0436 -0.0250 -0.1427
12519W        W32053  14.110  15.216   3.980 -0.0269 -0.1317 -0.0095
12520W        W32054   1.604   9.678   4.260  0.0490 -0.1189  0.0923
12521W        W32055  13.890   7.594   3.672  0.1764  0.1475  0.0076
12522W        W32056  15.631   6.495   3.123 -0.2603 -0.0147 -0.0323
12523W        W32057  18.537   6.924   4.300  0.0946  0.2811  0.2048
12524W        W32058  17.967  13.150   0.183  0.5524  0.0127 -0.2155
12525W        W32059   5.836  12.997  12.939  0.1195  0.2408 -0.0475
12526W        W32060   5.370   8.283  11.838 -0.0151  0.2701 -0.4794
12527W        W32061  17.182  17.668   0.433 -0.1454 -0.1197 -0.0959
12528W        W32062   9.224   4.867  11.048  0.0957  0.2425 -0.1398
12529W        W32063  15.025   0.957  13.621  0.0388 -0.4204  0.0869
12530W        W32064   2.348   2.968  12.977 -0.1246 -0.1871 -0.0280
12531W        W32065  15.068   8.574  13.365 -0.1830 -0.1674 -0.2672
12532W        W32066   6.844   4.197  14.461 -0.0185  0.1897  0.0581
12533W        W32067   7.038  10.163  14.317  0.3320 -0.0160 -0.0759
12534W        W32068   0.292  16.730  12.032 -0.3232  0.1933  0.1181
12535W        W32069   8.289  17.077   2.234  0.0131  0.2610  0.0276
12536W        W32070   6.340  10.947   9.428  0.2196  0.1904 -0.0755
12537W        W32071   6.086   7.637   0.257 -0.1740 -0.2651  0.1750
12538W        W32072  16.444   1.336  12.278 -0.0925  0.0665 -0.0106
12539W        W32073  10.369   2.801  12.290  0.0399  0.0970 -0.0295
12540W        W32074   2.805  10.681   0.095 -0.0562 -0.1133 -0.0862
12541W        W32075   7.917  12.472   0.937  0.0612  0.2496 -0.0644
12542W        W32076   2.117  11.447  12.365  0.1884  0.0820  0.0292
12543W        W32077  10.842  16.075  12.764 -0.0177 -0.2854  0.0192
12544W        W32078  10.010  15.065   4.158  0.0893  0.1829  0.1504
12545W        W32079  18.337  15.732  10.213 -0.1952 -0.3782  0.0517
12546W        W32080   9.848  10.760  12.247 -0.0111 -0.0389  0.3602
12547W        W32081   8.207   5.182   3.543 -0.1663  0.0522  0.1512
12548W        W32082  15.384  12.545   2.166  0.0652 -0.2490  0.3458
12549W        W32083   8.749  13.432  14.330  0.1603 -0.3390 -0.1025
12550W        W32084  16.668   2.550  14.116 -0.0622  0.0082  0.1426
12551W        W32085  12.800  18.766  13.735 -0.2303  0.1017 -0.0804
12552W        W32086   9.425   7.155  12.924 -0.0019 -0.1986  0.1841
12553W        W32087  13.231  15.985  14.260 -0.1704 -0.0695  0.1399
12554W        W32088  15.023  16.021  11.277  0.1612 -0.1206  0.0990
12555W        W32089  12.439  15.626   0.559  0.2106 -0.1298  0.0800
12556W        W32090  15.672   8.710   3.742  0.0599  0.0694 -0.0430
12557W        W32091   1.831  13.612  14.748  0.1772  0.2118 -0.3692
12558W        W32092   0.043   5.174  10.331  0.0691 -0.0111  0.1800
12559W        W32093   5.410   8.575   1.884  0.0521 -0.0590 -0.3202
12560W        W32094   8.361   9.698   0.930  0.0246 -0.0369  0.1287
12561W        W32095   4.921  19.046   3.337  0.2179 -0.0441  0.1851
12562W        W32096  12.786  14.804   0.649  0.1542  0.1123  0.2357
12563W        W32097   2.016   3.970   0.710  0.0362 -0.0764 -0.4348
12564W        W32098  16.838  14.228   0.557 -0.1687  0.1470  0.1312
12565W        W32099  16.787  17.901   1.428 -0.0175 -0.2116  0.1361
12566W        W32100  17.207  12.000  14.439 -0.1770  0.1513 -0.1660
12567W        W32101   3.871  14.985   3.250 -0.3460 -0.0333  0.2445
12568W        W32102   1.448   0.289  11.894  0.1784 -0.0136 -0.2343
12569W        W32103   1.949   0.875   2.686  0.0341 -0.0921  0.0091
12570W        W32104  13.798  12.578  11.794 -0.3178  0.0095  0.2599
12571W        W32105   8.373   9.146   0.317 -0.0817 -0.3325 -0.0295
12572W        W32106  15.342   4.254  14.743 -0.0872  0.1102  0.0947
12573W        W32107  12.506   4.895   1.989  0.1305 -0.2339 -0.2586
12574W        W32108  15.621   4.445   3.939  0.0209  0.1035 -0.0039
12575W        W32109   7.380   0.205   2.662  0.0791  0.2180  0.0119
12576W        W32110   1.481   5.432  13.961 -0.1023 -0.0949  0.0817
12577W        W32111  15.328   2.506  11.895 -0.0571 -0.0325 -0.0172
12578W        W32112   2.166   5.295  13.398 -0.2068  0.1448 -0.0800
12579W        W32113   0.524  15.224  11.072  0.0519 -0.1580  0.0635
12580W        W32114   9.894   9.427  14.392  0.1756 -0.0259 -0.0973
12581W        W32115  18.858  14.365   3.095  0.3302  0.0934  0.0719
12582W        W32116  11.722  18.074  14.031 -0.0580 -0.0765  0.4030
12583W        W32117  12.267  12.909  11.628 -0.1784 -0.1411 -0.0803
12584W        W32118  10.210  11.581  13.399  0.2497 -0.4863 -0.2104
12585W        W32119  17.884  10.968   2.993  0.0559 -0.1667 -0.1188
12586W        W32120  18.430  15.217  12.536 -0.0440  0.0705 -0.0512
12587W        W32121   9.282   1.855   0.579  0.3486  0.1654  0.3078
12588W        W32122   0.812  11.647  13.661  0.2171  0.1029  0.2462
12589W        W32123   6.644  18.862  14.635  0.1053  0.1321  0.1331
12590W        W32124  13.653  12.312   3.395  0.0726 -0.0950 -0.2120
12591W        W32125  11.854  17.055  13.473 -0.0537  0.1915 -0.0649
12592W        W32126  15.705  10.805   3.046 -0.0423  0.2764 -0.0306
12593W        W32127   8.582   4.729   4.005 -0.1135 -0.0081  0.0502
12594W        W32128  19.109  17.140  10.922 -0.1997 -0.0276 -0.1569
12595W        W32129   0.650  12.111  10.959  0.1918 -0.1752 -0.0708
12596W        W32130   1.159  18.821   2.596  0.0394 -0.2140  0.0609
12597W        W32131  13.238  11.504   2.320  0.2693 -0.0009  0.1404
12598W        W32132   0.358  15.685   3.615 -0.2949  0.1859 -0.1066
12599W        W32133  15.346  18.836  12.907 -0.1250 -0.2154 -0.0669
12600W        W32134   0.143   2.955   3.700 -0.0189 -0.1850  0.3349
12601W        W32135   4.418   6.076  11.656 -0.2308  0.1826 -0.0634
12602W        W32136  10.151   5.091  14.284 -0.0137 -0.0706  0.1268
12603W        W32137  18.860   1.089   1.386  0.0666  0.0997 -0.2301
12604W        W32138   2.500   0.054  10.981 -0.0499  0.0560  0.1021
12605W        W32139   8.740   6.950   0.732  0.6235  0.1199 -0.1959
12606W        W32140   5.962  11.797   0.177 -0.3422 -0.3449 -0.2013
12607W        W32141  10.376   2.245  10.517 -0.1459  0.1572  0.2253
12608W        W32142  11.164  13.799   2.187  0.1518  0.1516 -0.0443
12609W        W32143   9.993   3.134  12.792  0.2787  0.0305 -0.0181
12610W        W32144   2.647   7.720   1.919 -0.0153 -0.4026 -0.3733
12611W        W32145  10.106   0.916   4.062  0.1590  0.1142  0.1661
12612W        W32146  12.003   6.786  11.260  0.0883 -0.2138 -0.0333
12613W        W32147  14.527   3.339  13.722 -0.0037  0.1147  0.0592
12614W        W32148   6.112  11.202  12.090  0.0066  0.5164  0.2712
12615W        W32149  16.056   9.704  11.995  0.0530  0.0181  0.0478
12616W        W32150  15.793   7.392   2.698 -0.3139 -0.0008 -0.1767
12617W        W32151   5.396  17.188   4.435  0.0876  0.1662  0.2976
12618W        W32152   7.018  19.114  14.436  0.0033 -0.1773  0.0613
12619W        W32153  18.603  17.578   0.970 -0.0072  0.2074 -0.0404
12620W        W32154   2.589  13.132   3.671  0.1600  0.1806  0.4204
12621W        W32155   5.911   8.124   0.430  0.0471 -0.2620 -0.0917
12622W        W32156   9.102   5.070  12.165  0.0237  0.0134  0.1275
12623W        W32157  14.247  13.044  14.469 -0.2907 -0.0337  0.0110
12624W        W32158  12.245  17.919  12.062  0.3809 -0.0193  0.0883
12625W        W32159   7.268   9.811  14.608  0.2104 -0.0348 -0.1320
12626W        W32160   8.765   0.121   0.776  0.2187 -0.0125  0.0582
12627W        W32161   5.514   9.771   0.251  0.0823  0.2788  0.2606
12628W        W32162  16.658   6.086   0.459 -0.0092  0.0386 -0.0051
12629W        W32163  15.330  18.280  12.164 -0.0423 -0.5130  0.0419
12630W        W32164   1.139   5.598  14.351  0.0764 -0.1849  0.3299
12631W        W32165  17.561  11.425  12.988  0.1920 -0.1866  0.1768
12632W        W32166  12.876   1.704  13.698 -0.0283 -0.1836 -0.0857
12633W        W32167  12.128  18.095   0.574  0.1561 -0.3844 -0.2013
12634W        W32168   0.708  17.712   3.810 -0.2314 -0.1349  0.0264
12635W        W32169  11.950   7.799  13.509  0.1391  0.0565 -0.0793
12636W        W32170  18.248   7.632  14.249  0.0478 -0.1906  0.3291
12637W        W32171  16.179   5.863  10.434 -0.0089  0.1901 -0.0431
12638W        W32172   5.048   1.135   3.482  0.0681 -0.3831  0.0119
12639W        W32173   2.582   3.799  13.721  0.1464  0.4497  0.1828
12640W        W32174  12.902   8.397   0.733 -0.0401 -0.0050  0.0039
12641W        W32175  13.079   8.351   1.255 -0.1335  0.0428 -0.0287
12642W        W32176   8.383   2.535   3.593  0.4267 -0.0346 -0.0609
12643W        W32177   4.116   0.993   1.389 -0.1087 -0.0419 -0.1119
12644W        W32178   5.744   9.970   0.725 -0.3014  0.0483  0.2169
12645W        W32179  15.078  11.917   2.103 -0.2167  0.1895 -0.0853
12646W        W32180  17.834   8.920  11.994 -0.2958 -0.0014  0.0839
12647W        W32181  10.423  18.860   3.075 -0.0560 -0.2948  0.1680
12648W        W32182  17.713   2.397  13.033 -0.1489  0.0821 -0.0336
12649W        W32183  12.264  11.283   1.442  0.2916 -0.2664 -0.0794
12650W        W32184   9.009  11.174  11.290  0.2412  0.1849  0.2188
12651W        W32185  17.250   5.066  10.968 -0.2665  0.2583  0.0053
12652W        W32186  17.661  12.701   0.353  0.0042  0.4270  0.0526
12653W        W32187   6.101   6.793  12.026  0.1795 -0.4880 -0.3502
12654W        W32188  13.252  10.063  14.182  0.1144 -0.1197 -0.1098
12655W        W32189  12.888  14.849   4.479  0.0750  0.1688  0.0908
12656W        W32190  13.166   0.022   4.452 -0.2725 -0.1228 -0.0399
12657W        W32191  14.124  13.785   3.347 -0.4771 -0.0669 -0.2034
12658W        W32192  19.016  17.494  14.093 -0.4226  0.1391 -0.0535
12659W        W32193  15.218   9.623  11.850  0.0818  0.1326  0.0298
12660W        W32194   4.488   7.936  13.745 -0.1158 -0.1806  0.0698
12661W        W32195  11.819  18.551   0.388  0.2045  0.2506  0.1760
12662W        W32196  14.321  17.193   4.066  0.1427  0.2726  0.0694
12663W        W32197  14.300   7.941   9.628  0.0052  0.1004 -0.3733
12664W        W32198   2.877  18.698  12.353 -0.0601  0.1867 -0.0661
12665W        W32199   3.585   8.491   3.137 -0.3416 -0.1354  0.0001
12666W        W32200  14.202   4.766  12.157  0.0595  0.0643  0.0437
12667W        W32201  10.922  18.953  13.219 -0.1059  0.2174  0.1895
12668W        W32202  15.964  17.772   2.147 -0.0721  0.0013 -0.2328
12669W        W32203  15.623   4.099  10.368  0.0657  0.3247 -0.0976
12670W        W32204   6.847  17.050   9.855  0.1868 -0.0002  0.2269
12671W        W32205  12.932   4.704   0.671  0.0591 -0.0154  0.1652
12672W        W32206  10.143  18.908   4.102  0.0536 -0.0804  0.2803
12673W        W32207   3.434  15.427  14.375  0.0064  0.1227  0.1759
12674W        W32208   6.760  14.845  11.994 -0.3844  0.0538  0.3781
12675W        W32209   5.287  13.925   2.925  0.2009  0.0285 -0.1824
12676W        W32210   0.684   5.092   2.237  0.1234 -0.1181 -0.3160
12677W        W32211  10.845  15.232  12.557  0.2352  0.0327 -0.1246
12678W        W32212  16.639   2.072  11.481  0.0207 -0.1379 -0.0482
12679W        W32213   0.063  11.525   2.360 -0.1808  0.1191  0.0046
12680W        W32214   9.644   9.308   0.709 -0.2414 -0.2101  0.5184
12681W        W32215   0.329  16.679   2.911 -0.1399  0.1669  0.0468
12682W        W32216   7.784  17.132   2.406 -0.0172  0.0858 -0.1647
12683W        W32217   2.316   9.267   2.392 -0.0133  0.1359  0.1738
12684W        W32218   9.409   8.165  11.375 -0.0592  0.0230  0.0321
12685W        W32219   4.690   9.268   2.009  0.1030  0.0045  0.2341
12686W        W32220  11.307   7.447  13.268  0.1066  0.0355  0.0427
12687W        W32221  18.105  11.327   1.019  0.0476  0.1639 -0.0124
12688W        W32222   4.386   8.922   3.238  0.2951  0.0773 -0.3514
12689W        W32223   5.048   9.050  12.865 -0.2389 -0.0044 -0.1382
12690W        W32224  17.592   2.691  11.732  0.0408 -0.0174  0.4895
12691W        W32225   9.664   9.751  13.562 -0.1727 -0.3810 -0.0534
12692W        W32226  11.270  18.426   0.365  0.0425 -0.2441  0.2180
12693W        W32227   0.845  10.584   2.631 -0.0703  0.0829 -0.0141
12694W        W32228   1.291  14.206   9.909  0.2280  0.2636 -0.3572
12695W        W32229  13.636   9.474   2.793 -0.2547  0.0719  0.1324
12696W        W32230  10.114  16.543  12.241 -0.0411 -0.1097 -0.0016
12697W        W32231   9.348   2.017  11.689  0.1404  0.1677  0.0900
12698W        W32232   7.080   6.197  14.222  0.0798  0.0910  0.0504
12699W        W32233  17.210   0.107   0.507  0.0126 -0.0910  0.0490
12700W        W32234  10.728  14.630  13.493 -0.1663  0.1123 -0.0128
12701W        W32235  10.546   4.445   4.302 -0.4051 -0.1160  0.0543
12702W        W32236   0.457   1.357  11.998 -0.0196 -0.0815  0.0316
12703W        W32237  17.431   3.472  13.118  0.0484 -0.3849  0.1329
12704W        W32238  11.085  14.671   2.358 -0.0077 -0.0368 -0.1073
12705W        W32239   8.748  16.300   0.631  0.0690  0.5010  0.1431
12706W        W32240   4.998  13.219   1.376  0.0585  0.2078 -0.0337
12707W        W32241   8.384   8.273   3.715 -0.1457 -0.0857 -0.0452
12708W        W32242   8.386  10.957   9.581 -0.3916 -0.0671  0.0850
12709W        W32243  17.276  12.928  12.498 -0.1024  0.4744  0.2831
12710W        W32244   0.752   1.007   2.531 -0.0117  0.2254 -0.0915
12711W        W32245   2.600  16.301  14.086  0.1587  0.0307  0.0694
12712W        W32246  13.362   4.439   0.505  0.1990  0.0190 -0.0190
12713W        W32247  12.862   9.902  12.927  0.1358  0.3698  0.0828
12714W        W32248   8.469  12.142  14.049  0.1368 -0.3276  0.0494
12715W        W32249  16.134  17.508   2.506 -0.0415  0.0227  0.0344
12716W        W32250  13.543   2.281   1.326 -0.3108 -0.0073 -0.1505
12717W        W32251   0.642   1.207  13.344 -0.0369 -0.3254  0.0691
12718W        W32252  12.951   9.173  13.680  0.0216  0.3634 -0.1036
12719W        W32253  11.883  14.343  11.449  0.1843  0.1243  0.0674
12720W        W32254  13.011   8.298   2.956  0.0767  0.0084 -0.0070
12721W        W32255  18.701   2.166  10.691  0.0786 -0.1501  0.3977
12722W        W32256   3.087  18.300  14.109 -0.0830 -0.0500 -0.4391
12723W        W32257  14.462   8.634   3.888  0.2674 -0.0846  0.0967
12724W        W32258  13.722  12.771  10.974  0.0100  0.0658 -0.0775
12725W        W32259  12.760  12.758   0.805  0.0646 -0.0554 -0.1515
12726W        W32260   0.199   7.284   4.170 -0.1323 -0.0318  0.0297
12727W        W32261   5.307  16.979  11.026 -0.3807 -0.3855  0.0539
12728W        W32262  12.671  16.159   4.002 -0.3661  0.2219  0.0700
12729W        W32263   8.511   7.763   4.481  0.2662 -0.2783 -0.1528
12730W        W32264   1.953  18.440  11.479 -0.0076  0.1203 -0.0171
12731W        W32265  10.422   3.344   0.721 -0.0891 -0.0493 -0.1073
12732W        W32266  16.674   9.167   3.816 -0.1640 -0.1000  0.0296
12733W        W32267   0.724   6.037   2.331 -0.1045  0.0040 -0.0608
12734W        W32268   2.917   6.255  12.737 -0.1148 -0.1171 -0.3450
12735W        W32269  19.068   3.333   2.022 -0.1427  0.1959 -0.0281
12736W        W32270  11.541   3.517  14.121  0.0614  0.4824  0.1041
12737W        W32271   5.113  15.431   1.464  0.3867  0.1570  0.1754
12738W        W32272   6.914  15.043  14.091  0.1678 -0.0552 -0.0198
12739W        W32273   7.073   1.630  12.236 -0.0122  0.2697  0.0769
12740W        W32274  16.765  14.741   0.857 -0.0705 -0.1093  0.2754
12741W        W32275   6.635   0.536  12.029 -0.0447 -0.0209  0.1977
12742W        W32276   5.232   1.141  11.531 -0.0284  0.3314  0.1720
12743W        W32277  15.456  11.974   1.347  0.1682 -0.0209  0.4999
12744W        W32278   6.733  13.615  13.016  0.3884  0.2883 -0.6516
12745W        W32279  10.168   2.107   2.956 -0.1734  0.2485  0.1093
12746W        W32280  14.941   9.247   2.005 -0.4190  0.1619  0.1993
12747W        W32281   2.706   2.280  10.203 -0.0180  0.1517  0.2948
12748W        W32282  10.313   7.705   0.586 -0.0401 -0.5122  0.1659
12749W        W32283  18.971   5.631  14.610  0.1002  0.1888 -0.1027
12750W        W32284  11.682  18.715   3.888 -0.1460 -0.5095 -0.0567
12751W        W32285   7.930   9.067   3.296  0.1646  0.2177 -0.0241
12752W        W32286  13.717   5.842  12.489  0.0750  0.0153 -0.0395
12753W        W32287   9.973  15.582  12.646  0.2381 -0.0850  0.2250
12754W        W32288  12.438   9.717  14.626 -0.1484 -0.2478  0.1017
12755W        W32289  13.457  13.288   1.987  0.2463  0.2715 -0.3973
12756W        W32290  18.353   4.693   3.049  0.4495  0.1366  0.0053
12757W        W32291   7.003   1.137  12.787 -0.2019 -0.2703 -0.2628
12758W        W32292   4.284   4.605  13.323  0.0704 -0.2399 -0.1244
12759W        W32293   5.678   7.897  10.555  0.0206  0.0918  0.1961
12760W        W32294  15.350   6.898   3.094  0.2162 -0.0864  0.3220
12761W        W32295   3.349  18.290   0.215 -0.1147  0.0012  0.3972
12762W        W32296   2.065   9.581   4.428 -0.1958  0.4902 -0.0058
12763W        W32297  14.660  15.120   1.679  0.1309  0.2250  0.2287
12764W        W32298   0.770  17.927  14.717 -0.1005  0.0495 -0.0911
12765W        W32299   6.686  16.054   2.749  0.0778 -0.0421 -0.2020
12766W        W32300   7.522   9.588   0.685 -0.3628 -0.2470  0.0565
12767W        W32301  18.724   5.457  13.731 -0.0602  0.0378 -0.0162
12768W        W32302  15.243  18.263  14.171  0.1354  0.0120 -0.2822
12769W        W32303  11.823  11.074  13.710  0.0612 -0.0954  0.1495
12770W        W32304   9.435  16.742  12.347 -0.1753  0.0776  0.0828
12771W        W32305   1.769  10.745  13.589  0.0438 -0.0968  0.0721
12772W        W32306  16.594  18.559  12.951 -0.1894  0.0444 -0.2125
12773W        W32307   9.061  17.102  13.698 -0.0571  0.0364  0.0587
12774W        W32308  14.015  13.989  10.283 -0.0045  0.0340 -0.0467
12775W        W32309   3.991   6.309  11.671  0.2472  0.0213  0.2189
12776W        W32310   9.231   8.642   3.299 -0.1238  0.1523  0.4338
12777W        W32311   6.650   2.591   2.275  0.1558  0.1958  0.3751
12778W        W32312  10.471  15.858   1.816 -0.2834  0.0280  0.0101
12779W        W32313   6.724   7.595   0.177  0.0971  0.1989  0.1165
12780W        W32314   4.054   1.370   2.214  0.1551  0.0890  0.0866
12781W        W32315  11.305  19.036  13.616 -0.2456 -0.0416  0.1485
12782W        W32316   0.241   2.623  12.356 -0.0533  0.2210  0.1561
12783W        W32317  16.741   5.571  11.892  0.2152  0.1949  0.3775
12784W        W32318   2.440   5.516  14.000 -0.2259 -0.3596  0.0219
12785W        W32319   7.046   3.527  13.855 -0.2687  0.3708  0.0776
12786W        W32320  16.599  13.936   1.729  0.1218 -0.2982 -0.0840
12787W        W32321   8.747   1.563  13.006  0.1033 -0.2014 -0.2525
12788W        W32322  18.545  17.531  13.869  0.0956 -0.4932  0.1827
12789W        W32323   4.070   1.165   2.678  0.1615 -0.2564  0.1925
12790W        W32324   1.589   3.920   0.529 -0.3622 -0.2176  0.3512
12791W        W32325   5.323   1.294   2.575 -0.1063 -0.2226  0.0492
12792W        W32326  17.890   8.693   1.448  0.0369 -0.0394 -0.1394
12793W        W32327  10.061  19.117  11.895 -0.0642  0.0001 -0.3099
12794W        W32328  16.060   6.368   0.227  0.1294  0.0908 -0.2503
12795W        W32329   4.297  11.016  14.721 -0.1875 -0.0614 -0.1291
12796W        W32330   5.327  10.179   1.888  0.0956 -0.2104 -0.5383
12797W        W32331   6.183  17.992   2.250 -0.1158 -0.1098 -0.0879
12798W        W32332  17.182  16.979   0.844  0.2003 -0.2136  0.1233
12799W        W32333   8.898   1.039   1.372 -0.1544  0.1140 -0.1149
12800W        W32334   2.663  14.381  14.427 -0.3765 -0.0547 -0.1692
12801W        W32335  13.986   7.363   3.185 -0.0346 -0.0062 -0.0679
12802W        W32336   1.258  14.873  11.183 -0.0420 -0.2468 -0.1973
12803W        W32337   4.493   1.185  14.091  0.1165 -0.0739  0.2332
12804W        W32338  11.178   4.705   3.841 -0.2504  0.2300 -0.2662
12805W        W32339  15.528  19.093   2.313  0.1472 -0.0021 -0.0988
12806W        W32340  12.621   2.472   0.859  0.1294 -0.0668  0.1480
12807W        W32341  12.176   4.734  14.617  0.1043  0.2035  0.0148
12808W        W32342  17.521  12.619  13.722  0.2329 -0.3254  0.0094
12809W        W32343   5.418   2.521  13.022  0.0258  0.0914  0.3073
12810W        W32344   0.897  12.967   2.847 -0.1530  0.0117 -0.0653
12811W        W32345  10.472  13.818  13.121  0.0951  0.1915 -0.0718
12812W        W32346  14.488   5.423  11.930 -0.1982 -0.0591 -0.1467
12813W        W32347   2.325   5.353   1.280 -0.1888 -0.0682 -0.4752
12814W        W32348   8.184  13.326   5.226 -0.0936  0.1398 -0.0516
12815W        W32349   9.204   9.308  11.584 -0.0747 -0.2748  0.0926
12816W        W32350   0.493  18.665   0.593  0.0715  0.0840  0.2174
12817W        W32351   9.857   3.796  12.902 -0.2131 -0.1457 -0.0220
12818W        W32352   2.639  13.776   2.845  0.0509  0.2358  0.2755
12819W        W32353  18.400  11.432   0.386  0.0497  0.0772  0.2102
12820W        W32354  14.521  16.435  12.637 -0.0207 -0.1477  0.0770
12821W        W32355  19.116  15.057   3.709  0.1138  0.1272 -0.0708
12822W        W32356  15.879   0.754  14.490 -0.0966 -0.2854 -0.2711
12823W        W32357  16.049  10.207  14.591  0.2440 -0.1323  0.2933
12824W        W32358   3.179   4.160  11.995 -0.2427 -0.2254  0.1135
12825W        W32359   3.899   4.904   3.308 -0.0164  0.1515 -0.0827
12826W        W32360  16.004  13.940  11.274  0.3709 -0.2537 -0.2924
12827W        W32361   7.000   7.043  13.947  0.0113 -0.1512 -0.0447
12828W        W32362   6.215  10.240  12.078 -0.1456  0.3153 -0.1017
12829W        W32363  11.987   9.790  14.332 -0.0749 -0.1915 -0.1255
12830W        W32364  15.907   0.508  12.453 -0.1613  0.3205  0.0285
12831W        W32365  14.335   5.869   4.807 -0.1404  0.1389 -0.1437
12832W        W32366   5.623  12.178  14.193  0.3738  0.2065  0.4256
12833W        W32367   9.296   5.425  10.821  0.0997 -0.1257  0.2427
12834W        W32368   3.105   3.331   4.781 -0.1441 -0.3090  0.0247
12835W        W32369   2.084  16.269  13.878  0.0385  0.1490  0.0340
12836W        W32370   9.106  13.738   0.178  0.2198 -0.0147 -0.1190
12837W        W32371  11.548   7.272  12.867 -0.0351 -0.0947 -0.2849
12838W        W32372  10.303   6.015   3.568  0.2490 -0.0008  0.2141
12839W        W32373  10.362   4.112  11.049  0.2066 -0.0974  0.2643
12840W        W32374  17.134  10.780   2.345 -0.1543  0.0619  0.2009
12841W        W32375   4.772  11.786   3.638 -0.1757 -0.2166 -0.2141
12842W        W32376   7.343   6.886  12.531  0.1963 -0.0248 -0.0831
12843W        W32377  12.716  17.971  12.078 -0.0132  0.1484  0.1322
12844W        W32378   4.500  14.234   3.518 -0.3116 -0.0843  0.2395
12845W        W32379   2.701   5.904   2.541  0.1449  0.2036 -0.0878
12846W        W32380  13.836  10.529   3.101 -0.1805 -0.0043  0.2919
12847W        W32381  12.552  12.075   4.151  0.3132  0.4107 -0.3194
12848W        W32382   8.543   4.771  12.864 -0.1905 -0.2405 -0.1414
12849W        W32383   2.083  13.206  11.295 -0.0143  0.0191 -0.0542
12850W        W32384   3.261   6.322   2.534 -0.2145 -0.1667  0.0888
12851W        W32385  16.477  10.797  10.333 -0.1314 -0.1128 -0.2131
12852W        W32386  17.538   8.392  14.620  0.0782 -0.1658  0.0618
12853W        W32387  13.423  17.070  11.982  0.0941 -0.0177  0.2770
12854W        W32388  13.791  15.384   5.525  0.2374  0.2483  0.5027
12855W        W32389   5.472  18.203   0.193  0.5429  0.0509  0.0404
12856W        W32390   4.773  10.583   1.302  0.1865 -0.0214 -0.0750
12857W        W32391   8.330   1.497  13.981 -0.1012  0.3668  0.0709
12858W        W32392   5.476   7.199  11.144  0.2622  0.1527 -0.0298
12859W        W32393   6.942  17.523   0.816 -0.1275  0.2028  0.0729
12860W        W32394  17.074  10.044   2.207 -0.3374  0.4731  0.0580
12861W        W32395   1.689  17.651   0.994  0.1230 -0.0135 -0.2578
12862W        W32396  16.961  10.099   1.183  0.2299 -0.1618 -0.1659
12863W        W32397   3.354   6.489  12.956 -0.0346 -0.0288  0.1012
12864W        W32398  14.521  15.580  13.506 -0.0589  0.2260 -0.2410
12865W        W32399   2.228   4.570  11.486  0.0691 -0.0493  0.1081
12866W        W32400  12.013   4.718   0.276 -0.2266 -0.0104  0.0595
12867W        W32401   3.768   2.282  11.626  0.2927 -0.0394 -0.1790
12868W        W32402  17.555   7.917  14.340 -0.1216 -0.0449  0.2924
12869W        W32403   1.121  18.041  11.019  0.1004  0.0240  0.0826
12870W        W32404  14.605  15.941   3.783 -0.2688 -0.0878 -0.0048
12871W        W32405   8.646  13.087   0.992 -0.1331 -0.0442 -0.0069
12872W        W32406   5.251  16.068   1.300  0.3030  0.2194 -0.0301
12873W        W32407   9.557   9.795  12.167 -0.1077 -0.1259  0.3460
12874W        W32408  17.910   4.668  12.637  0.2519 -0.0469 -0.2112
12875W        W32409  18.912   6.805   3.350 -0.0587 -0.0479 -0.0672
12876W        W32410   1.067   3.598   1.166  0.1352  0.2573 -0.1260
12877W        W32411  14.058   2.392  11.212 -0.1879  0.0053 -0.1044
12878W        W32412  16.813   8.290  11.336 -0.1739  0.1350  0.0924
12879W        W32413  12.626  17.064  12.987  0.0726 -0.1076  0.0923
12880W        W32414  11.038   5.320  11.734 -0.0183 -0.2832 -0.0294
12881W        W32415  10.227  18.056  13.433 -0.1047 -0.0894 -0.1258
12882W        W32416   7.058  14.794  13.658 -0.1105  0.0251  0.0439
12883W        W32417  14.033   5.190  11.910 -0.0291 -0.0962  0.3452
12884W        W32418  13.943   2.980   1.910 -0.0527 -0.1740 -0.3020
12885W        W32419  10.176  12.493   4.092  0.0644  0.0406 -0.1816
12886W        W32420  16.825  15.407   3.558  0.0245 -0.2469 -0.1621
12887W        W32421   7.628  14.679  11.594 -0.0369 -0.0296 -0.0937
12888W        W32422  16.121   4.435   1.358 -0.1789  0.2764 -0.0439
12889W        W32423  16.443  17.214  14.334  0.0770  0.1022 -0.0203
12890W        W32424   7.542   5.371   2.972 -0.3195 -0.2395 -0.0252
12891W        W32425  17.228   6.478   0.861  0.3651 -0.0907  0.2434
12892W        W32426   4.065  12.685   2.747  0.0747 -0.0479 -0.4365
12893W        W32427  17.273  17.746   1.566 -0.1159  0.0256 -0.0320
12894W        W32428   4.932   6.629   1.630  0.1482  0.1374 -0.0154
12895W        W32429   9.017   7.228  12.608  0.1939 -0.2734 -0.2737
12896W        W32430   8.120  17.651   1.708 -0.0307 -0.0678  0.1163
12897W        W32431   6.800  15.248   1.834 -0.5417  0.0375  0.2223
12898W        W32432   5.072   0.849  12.035 -0.0550 -0.1196 -0.0934
12899W        W32433   8.334   7.831   0.272  0.3212  0.1338  0.1918
12900W        W32434  17.241  15.147   1.472  0.1229  0.1958 -0.1933
12901W        W32435   0.481   4.372   1.569  0.2389  0.0951 -0.0911
12902W        W32436  14.230  12.178   3.901  0.3907 -0.0022 -0.1456
12903W        W32437   3.976   8.244   2.181 -0.2796  0.3581  0.2397
12904W        W32438  15.983   6.187   3.442  0.1119  0.3027 -0.1543
12905W        W32439   3.891  11.246  13.646 -0.0753  0.0879 -0.1198
12906W        W32440   9.590  18.684  12.054 -0.0333  0.0429  0.1102
12907W        W32441  13.522  17.617  11.222  0.0307  0.3982  0.0913
12908W        W32442   4.891  11.875   2.818 -0.0609 -0.0693 -0.0057
12909W        W32443  14.914   7.330   9.386 -0.1795 -0.3607 -0.1021
12910W        W32444  17.555   3.841  13.670  0.2103  0.1505 -0.1884
12911W        W32445   5.101   5.579   0.889 -0.3340 -0.0045 -0.0172
12912W        W32446  13.978   2.618  14.152  0.0118 -0.2784  0.3490
12913W        W32447  12.285  12.378  10.814 -0.0636 -0.0342 -0.0751
12914W        W32448  12.987   2.356   2.181 -0.0463  0.0799  0.2509
12915W        W32449   1.250   2.791  10.837  0.1023 -0.0683 -0.1109
12916W        W32450  15.143  13.007   2.306  0.1956 -0.3188 -0.2321
12917W        W32451  14.739   5.496  12.841 -0.2140 -0.1923 -0.1069
12918W        W32452  13.101   2.912   1.935 -0.0254 -0.1155 -0.0644
12919W        W32453   8.095  15.779   0.084  0.1846  0.0864  0.1548
12920W        W32454   4.137   4.537   5.254 -0.0588  0.0840  0.3536
12921W        W32455   6.384   9.630   3.045  0.1368 -0.1217 -0.2265
12922W        W32456  18.607  11.253   3.752  0.0000  0.0649  0.0514
12923W        W32457  15.964   7.086  10.663  0.0061 -0.1694 -0.1392
12924W        W32458   0.087   6.724  14.263 -0.2224  0.0962 -0.0476
12925W        W32459   4.149   5.722   1.898  0.1452 -0.3002 -0.2855
12926W        W32460  12.040   9.689   2.151 -0.0265 -0.0456 -0.1527
12927W        W32461  18.245   4.247   0.186  0.1713  0.2018  0.2805
12928W        W32462  10.965   8.925  12.375  0.4336  0.0611  0.0335
12929W        W32463  14.658  10.926   3.242 -0.2365 -0.1993  0.0072
12930W        W32464  11.626  11.255  12.031 -0.1255  0.0957  0.0174
12931W        W32465  11.553   0.213   2.397 -0.0499 -0.0824 -0.1426
12932W        W32466   5.577  12.143   3.474  0.2095  0.0033  0.2779
12933W        W32467  11.671  19.001  12.192 -0.1741 -0.0689 -0.1853
12934W        W32468   6.886   1.014   3.122  0.0929 -0.3055  0.1166
12935W        W32469  14.507   6.231  12.268  0.2361 -0.0722  0.1120
12936W        W32470  16.350  15.046   0.996  0.3415  0.2480 -0.0356
12937W        W32471   8.340   6.363   2.573 -0.0335  0.1680  0.0646
12938W        W32472   6.392  16.684   0.356 -0.2166 -0.0962 -0.1191
12939W        W32473   9.209  18.095   2.461 -0.1479  0.2503  0.1122
12940W        W32474  12.345   7.978   1.411 -0.0312 -0.0712 -0.0008
12941W        W32475  12.196  16.598  11.641  0.3400 -0.1504 -0.1109
12942W        W32476   0.928  13.447   3.739 -0.1775  0.0077 -0.2266
12943W        W32477   3.222  13.240   1.612  0.1494  0.2739 -0.1677
12944W        W32478   5.178  10.690  13.858 -0.1749  0.0532  0.1201
12945W        W32479   8.472  10.007  14.024 -0.1546  0.0069 -0.0311
12946W        W32480  18.459   9.127  14.744  0.4340 -0.1505 -0.1848
12947W        W32481  12.866  13.217   0.513  0.0373 -0.2061 -0.2688
12948W        W32482  11.019  12.126   3.212 -0.1685  0.0416 -0.0084
12949W        W32483   2.898   8.768  12.456  0.0644 -0.1846  0.0573
12950W        W32484   1.914   7.660   2.242 -0.0744  0.4376 -0.0785
12951W        W32485   9.653   2.437  14.100 -0.1791  0.4818 -0.0631
12952W        W32486  10.685   3.693   3.218  0.0064  0.2175 -0.0645
12953W        W32487  11.249  18.316   4.667 -0.2650  0.2190  0.1659
12954W        W32488  18.881   3.781  10.164  0.0865 -0.1476  0.1582
12955W        W32489  10.981   5.370   4.345  0.0232 -0.0850  0.2572
12956W        W32490  12.054   6.370   4.004 -0.1912  0.2157  0.1171
12957W        W32491  13.210   7.991  11.551 -0.0436  0.0424 -0.2830
12958W        W32492   4.255  10.590   1.275  0.1398 -0.0903  0.0943
12959W        W32493   2.101  11.770   1.574  0.1720 -0.0905  0.0706
12960W        W32494   1.721   1.733  13.557 -0.1517  0.0599 -0.2767
12961W        W32495   9.362   1.441   3.886 -0.0650 -0.0003  0.2738
12962W        W32496  13.314  18.229   2.865  0.3134  0.0162  0.1243
12963W        W32497   7.311  12.983   4.233  0.1866  0.0615 -0.2936
12964W        W32498   1.786   1.416  12.148 -0.3031  0.0785  0.1929
12965W        W32499   8.885  14.440   0.617  0.1675  0.1255  0.2505
12966W        W32500   0.061  18.742   4.594  0.1350 -0.1345  0.2150
12967W        W32501   7.762   6.872  12.127  0.0251  0.1522 -0.0663
12968W        W32502  16.701  11.091   0.329  0.0795 -0.0783  0.0752
12969W        W32503  11.980  10.693  12.582 -0.1970  0.0799 -0.1781
12970W        W32504  10.553  12.309  10.620 -0.2191 -0.1954 -0.0829
12971W        W32505  15.897  12.585   0.192 -0.1738  0.1556  0.1963
12972W        W32506  18.983   9.632   3.625 -0.2055  0.3432  0.4346
12973W        W32507   8.840   6.981   3.145  0.1689 -0.1320 -0.0824
12974W        W32508  12.423   3.303  11.828  0.0177 -0.0914  0.1186
12975W        W32509   3.544  15.790   3.090 -0.3334 -0.2539 -0.1318
12976W        W32510  16.310  12.255  14.715  0.0206 -0.1554 -0.0422
12977W        W32511   0.233  16.839  12.843 -0.1485 -0.0299 -0.0869
12978W        W32512   8.748   5.124  10.994 -0.5237  0.1004  0.1841
12979W        W32513   7.843   2.627   1.732 -0.3130  0.2997 -0.0826
12980W        W32514   8.114  13.625  13.021 -0.2738 -0.0122  0.1124
12981W        W32515  10.158   5.663  11.838 -0.0017  0.1437  0.1656
12982W        W32516   5.495  12.571  14.521  0.1300 -0.0313 -0.0823
12983W        W32517   7.553  17.098   1.441  0.1364 -0.2434 -0.0305
12984W        W32518  14.012   2.908  11.288 -0.2864 -0.1391 -0.0562
12985W        W32519  10.032  12.023  13.751 -0.2139  0.0736  0.0263
12986W        W32520  15.762  13.162   3.716 -0.2590 -0.3311  0.0296
12987W        W32521   4.690  14.565  13.401 -0.2145  0.0825 -0.3197
12988W        W32522   0.213  17.288   0.487 -0.0813  0.2742 -0.2434
12989W        W32523  14.422   7.841  14.138 -0.2002  0.0218 -0.0824
12990W        W32524  13.909   8.657   3.596  0.0751  0.1322 -0.0146
12991W        W32525   2.743   7.083  13.009  0.0557 -0.1652  0.1742
12992W        W32526  17.666  19.043  10.387 -0.0445 -0.2669 -0.0055
12993W        W32527  14.099   0.912  13.927 -0.3095  0.3216  0.0042
12994W        W32528  15.108   1.082   3.122 -0.2610  0.3576 -0.1077
12995W        W32529  18.180  11.682   4.470  0.0967 -0.0021 -0.1429
12996W        W32530  10.937   1.730   2.540  0.0024 -0.1503  0.0595
12997W        W32531   6.979  12.582  10.405  0.0065  0.0109 -0.2077
12998W        W32532  18.845  11.587   2.728 -0.0492 -0.0820 -0.2867
12999W        W32533   0.685   3.343  14.155 -0.1768 -0.1604  0.0096
13000W        W32534   9.018   7.969  11.888  0.0413  0.0542 -0.1616
13001W        W32535   6.951   0.485  13.968 -0.0047  0.1648  0.3270
13002W        W32536  11.482   2.391  14.640 -0.1701 -0.2542  0.2285
13003W        W32537   7.155  15.688  12.865  0.0318  0.0461  0.0888
13004W        W32538   3.053   9.404   4.063 -0.1964 -0.1667 -0.1291
13005W        W32539  19.085  18.287  13.729 -0.2942 -0.1587  0.0096
13006W        W32540   7.238   2.045   1.281  0.0250 -0.0137 -0.0230
13007W        W32541   9.976  12.398   0.385 -0.4050 -0.1690 -0.0650
13008W        W32542  13.096  10.584   4.973  0.0244 -0.2677 -0.2188
13009W        W32543   8.924   9.009   1.635 -0.3193 -0.0695 -0.1696
13010W        W32544   8.749  14.670  10.705 -0.1164  0.0991  0.1249
13011W        W32545  17.049  17.392   2.481 -0.2188 -0.2138 -0.1993
13012W        W32546   6.068  18.331   0.837 -0.2294 -0.0416  0.0974
13013W        W32547  18.292  10.263   1.400 -0.3106  0.0558 -0.2973
13014W        W32548  11.445   2.957   2.334  0.0347  0.1988  0.3423
13015W        W32549   5.223  10.324  14.581  0.1131 -0.0524 -0.1078
13016W        W32550   9.561   2.860  11.831 -0.2024 -0.2769  0.1084
13017W        W32551   8.044   9.396   2.453  0.0504  0.2737  0.2855
13018W        W32552  10.250   7.282  13.422  0.0491  0.2161 -0.0601
13019W        W32553  15.012   4.995   0.532  0.2322  0.0374  0.0193
13020W        W32554  17.686  10.020  10.579 -0.1649  0.0250 -0.1236
13021W        W32555   0.852   8.957   4.047  0.1923 -0.1404  0.2489
13022W        W32556   9.874   3.937   2.747 -0.0982 -0.1128  0.0393
13023W        W32557   2.856   3.208   1.758 -0.0523  0.1840  0.0776
13024W        W32558  16.568  17.471   3.693 -0.3083 -0.2662  0.0143
13025W        W32559   0.576   9.607   3.561 -0.0009 -0.2273  0.0127
13026W        W32560   3.762   5.263   1.766 -0.0625 -0.1149  0.0099
13027W        W32561   3.323  11.435  13.427 -0.0083 -0.0021 -0.1169
13028W        W32562  13.795   3.619   3.430 -0.1705  0.3229  0.0448
13029W        W32563   2.745  12.670  11.990  0.0834  0.1808  0.0024
13030W        W32564  17.044   0.599   0.507 -0.2039 -0.0006  0.2106
13031W        W32565   1.900   0.167  11.645 -0.2754 -0.0098  0.1689
13032W        W32566   0.823  13.895   2.508 -0.4338 -0.1010  0.1252
13033W        W32567  14.285  10.015  11.388 -0.1169  0.1317  0.0889
13034W        W32568   4.788   4.628   1.729 -0.0209  0.0630  0.0548
13035W        W32569  10.626  16.269  11.329  0.0318 -0.1727 -0.1022
13036W        W32570  16.250  14.045  13.427 -0.0156  0.3181  0.1241
13037W        W32571  17.734   8.202   1.526 -0.0562  0.0176  0.2376
13038W        W32572   1.782   3.921  11.968 -0.0086 -0.1065 -0.0554
13039W        W32573  14.627   6.557   0.485  0.0124 -0.1921 -0.2275
13040W        W32574   5.914   3.164  11.423  0.1815  0.1501 -0.1497
13041W        W32575  12.614  12.808   3.482  0.1767  0.1101  0.0171
13042W        W32576   0.424   3.340  13.020  0.0426 -0.1360 -0.2128
13043W        W32577   3.055   1.377   0.695  0.4735 -0.0736 -0.2182
13044W        W32578  12.320   1.288   3.586 -0.2140 -0.1560  0.1681
13045W        W32579  11.267   4.843   0.768  0.1083  0.0710 -0.0655
13046W        W32580   9.883  18.146  14.623  0.3440  0.0733 -0.1210
13047W        W32581  17.915   4.967   4.653  0.2546 -0.3104 -0.1403
13048W        W32582   6.918  15.073   0.577 -0.1742  0.3338 -0.0102
13049W        W32583  18.118  13.729   1.899 -0.0952 -0.3053  0.0173
13050W        W32584  16.782   4.253  13.287 -0.2550 -0.0579 -0.0832
13051W        W32585  18.366   6.380  12.038  0.1095 -0.3462 -0.0538
13052W        W32586   0.700   8.534  12.989 -0.1800  0.0259 -0.4905
13053W        W32587   9.606   2.432  11.523 -0.1570  0.0123 -0.1458
13054W        W32588   8.608  12.217   0.186  0.2539 -0.1966 -0.1067
13055W        W32589  16.687  13.317  12.866  0.2087  0.3231  0.1554
13056W        W32590  14.570   4.614   9.700  0.0289 -0.3317 -0.0386
13057W        W32591  14.615  19.054  11.587 -0.0751  0.1453 -0.1427
13058W        W32592   7.078   5.743   3.662  0.1397 -0.1541  0.1541
13059W        W32593  12.852  11.303   2.720  0.0141  0.0194  0.2331
13060W        W32594  10.960  13.248  14.244 -0.0987  0.2619 -0.1205
13061W        W32595  15.612   5.368   3.390 -0.0189 -0.0329 -0.0707
13062W        W32596  11.418   8.444  10.659  0.0020 -0.2306  0.0473
13063W        W32597   3.917  12.901  13.720  0.0968  0.0698 -0.0860
13064W        W32598  15.265   3.064   2.221 -0.0652  0.0231  0.1420
13065W        W32599   1.623  18.710  14.326 -0.0525  0.2025  0.1173
13066W        W32600   7.256   0.950  13.381 -0.1795 -0.1089 -0.1026
13067W        W32601   6.271   6.931   1.357 -0.1367 -0.1000 -0.1582
13068W        W32602  13.464  15.748   3.297 -0.0164  0.2196  0.0464
13069W        W32603   1.645  13.385   0.950 -0.1255  0.1100 -0.2361
13070W        W32604  13.396  13.387   3.689  0.1297  0.0379  0.0945
13071W        W32605   6.755   5.141   0.124 -0.1142 -0.1079  0.0832
13072W        W32606   8.515   7.887   2.854 -0.4595 -0.4518 -0.0239
13073W        W32607  15.294   8.829  13.731 -0.2410  0.0612  0.3074
13074W        W32608  13.757   6.004  12.962 -0.2163  0.0130 -0.1545
13075W        W32609   8.248  18.004   3.584 -0.1789 -0.3267 -0.1963
13076W        W32610  17.764  17.300   4.551  0.1142 -0.0647  0.0551
13077W        W32611  10.131   0.712   0.615  0.1361  0.2177  0.3582
13078W        W32612  18.271   8.252  11.188  0.2525  0.0971  0.1369
13079W        W32613   5.809   7.358   4.090 -0.4162 -0.1692  0.0383
13080W        W32614   5.120   6.058  12.624 -0.0037 -0.0482 -0.2866
13081W        W32615   8.236   7.877   0.886 -0.2131 -0.0550  0.0762
13082W        W32616  15.079   4.606  10.789  0.1093  0.0319  0.2937
13083W        W32617  18.857  10.921  13.777 -0.0713 -0.0647 -0.1181
13084W        W32618   9.511  14.642  13.828  0.2303  0.1238 -0.3970
13085W        W32619  12.359  16.573   1.301 -0.0613 -0.1658  0.0040
13086W        W32620  14.793  11.980   4.799  0.1623 -0.1114  0.1720
13087W        W32621   5.968   2.329  11.987 -0.0697 -0.1286  0.0680
13088W        W32622  15.188  12.136  13.733  0.2684  0.3208  0.2224
13089W        W32623   8.716  11.501  14.745 -0.0761  0.2253 -0.2029
13090W        W32624  18.869   4.715   3.183  0.1567  0.0743 -0.3703
13091W        W32625   4.889   4.764   2.628 -0.1544  0.0438 -0.0369
13092W        W32626  17.182   8.758   4.630  0.1968  0.1523 -0.0269
13093W        W32627  17.326   4.314   1.830 -0.1175  0.2436  0.5026
13094W        W32628   5.389   3.040   2.533  0.2386 -0.3916 -0.2521
13095W        W32629  15.021  15.471   2.834 -0.2811  0.1248 -0.4357
13096W        W32630  11.202   2.546   2.266  0.1647  0.3031 -0.2154
13097W        W32631   1.908  17.366   3.400  0.2295 -0.0502  0.1405
13098W        W32632  10.399  14.579   3.822  0.2567 -0.1038 -0.0323
13099W        W32633   8.216   1.389   5.148  0.1923  0.2100  0.0655
13100W        W32634  13.557  18.885   3.532 -0.1533 -0.1029 -0.3142
13101W        W32635   6.971  19.028  12.661 -0.1988  0.2164 -0.2821
13102W        W32636   2.091   3.791  11.229 -0.2156  0.1517  0.1130
13103W        W32637   7.896  18.383   2.701  0.0980  0.1427  0.1647
13104W        W32638  11.449  16.632  10.066 -0.1858 -0.3840 -0.0722
13105W        W32639  10.104  17.041   0.059 -0.1201  0.1127  0.0552
13106W        W32640   3.076   3.919  14.628  0.1746  0.0278  0.3675
13107W        W32641  12.749   1.703  12.202 -0.0156 -0.0507 -0.2012
13108W        W32642   4.778   0.335  13.790  0.0057 -0.2696 -0.0465
13109W        W32643  12.539  13.488   0.955 -0.2116  0.0972  0.1974
13110W        W32644  17.195   7.709   2.009 -0.0461 -0.2076 -0.0286
13111W        W32645   4.509   7.434  13.685 -0.0098  0.2432 -0.2244
13112W        W32646   7.818   8.891  14.081  0.0850 -0.4046 -0.0782
13113W        W32647   0.148   5.985   3.092 -0.0426 -0.1383  0.5432
13114W        W32648  14.663  12.797  13.192 -0.2713  0.1005  0.0402
13115W        W32649  13.021   9.807  12.240  0.1276  0.1197  0.0630
13116W        W32650  16.061   6.866  11.960 -0.0940 -0.1353  0.1684
13117W        W32651   6.658  10.399  10.665 -0.0619 -0.2486  0.2574
13118W        W32652  10.465   4.743  14.478 -0.1257  0.1448 -0.1254
13119W        W32653  13.279   6.581   2.097 -0.1911 -0.1594 -0.0923
13120W        W32654  17.825  14.731  10.469  0.0927  0.0697 -0.1359
13121W        W32655   1.997   2.854  10.929 -0.2416  0.1612  0.1387
13122W        W32656   6.335   3.622  13.886  0.0627 -0.3491  0.0968
13123W        W32657   9.021  16.403  12.344 -0.1021 -0.0735 -0.2801
13124W        W32658   1.250   4.431   0.118  0.1078 -0.1754  0.1252
13125W        W32659  13.753  14.117   0.130  0.3657 -0.0010  0.6749
13126W        W32660   5.360  14.736   1.779  0.0650 -0.0428  0.0178
13127W        W32661  12.292   3.630  11.268  0.1991  0.0725  0.0554
13128W        W32662  19.103  18.943   3.477 -0.2759  0.1241 -0.2382
13129W        W32663   7.436   6.569   0.736 -0.0860 -0.0760  0.1816
13130W        W32664   7.644   9.111   1.311 -0.0746 -0.0698  0.1079
13131W        W32665   7.719  12.699  14.222 -0.1129 -0.2047 -0.0065
13132W        W32666  13.209   7.075  11.018 -0.2909 -0.1006  0.1799
13133W        W32667  14.592   6.749  12.381  0.3175 -0.1232 -0.2300
13134W        W32668   2.165  16.303   4.305 -0.1652 -0.0635  0.0692
13135W        W32669   6.050   4.008  12.327  0.3532 -0.0351 -0.0113
13136W        W32670  17.166   1.536   2.585 -0.0286  0.1480  0.0753
13137W        W32671   6.134   1.068  12.519 -0.0287 -0.1422  0.5558
13138W        W32672   3.191  12.890   1.220 -0.0640 -0.0421  0.2260
13139W        W32673   1.467  14.257   0.577 -0.0541 -0.0174  0.1898
13140W        W32674  15.842  14.118  10.513  0.0453  0.1643  0.1529
13141W        W32675   7.154   7.889  12.034  0.2566  0.1485 -0.1915
13142W        W32676  17.877  13.606  14.801 -0.1241  0.2045  0.3611
13143W        W32677   1.769  11.458   1.797  0.1503  0.2957 -0.1647
13144W        W32678  18.765   3.482   2.893  0.1983 -0.0657 -0.0474
13145W        W32679  11.425   6.483   1.409  0.2092  0.1667  0.0282
13146W        W32680  16.014   0.330  13.091 -0.0870 -0.1435  0.1803
13147W        W32681  10.412  17.191   4.048  0.2244  0.2341 -0.0305
13148W        W32682   9.017   6.844  12.988  0.1980  0.2262 -0.1228
13149W        W32683   3.674   1.578  13.802  0.0618 -0.0773  0.2191
13150W        W32684   2.966   4.055  11.509 -0.2344  0.1025  0.0636
13151W        W32685   7.510   0.271  12.602 -0.2190  0.1546 -0.0045
13152W        W32686   9.685   7.703   0.721 -0.0814  0.1240  0.1401
13153W        W32687  15.067  11.878   3.551  0.1718  0.0252 -0.0060
13154W        W32688  14.707  18.989  14.706  0.0141  0.4324  0.1336
13155W        W32689   6.856  18.325   3.015 -0.0099 -0.5412  0.4542
13156W        W32690   1.034  11.406  11.496  0.1300 -0.0025 -0.0390
13157W        W32691  18.441  11.522  11.727 -0.0366 -0.0015 -0.2187
13158W        W32692   3.949  16.632  13.721 -0.2123  0.3005 -0.1159
13159W        W32693  18.081  10.857  10.899  0.0157 -0.0088 -0.1233
13160W        W32694   5.294   0.676  11.662  0.0347  0.2542  0.0138
13161W        W32695  16.414   9.978  11.836  0.0010  0.1106  0.0655
13162W        W32696   6.445  11.789   0.548  0.4072  0.0036  0.1752
13163W        W32697  14.615  10.270  10.831  0.2218  0.1981 -0.1524
13164W        W32698   7.041  10.741  11.827 -0.1822 -0.0177  0.1902
13165W        W32699  18.012   9.873  10.925  0.1241  0.0532  0.1176
13166W        W32700   0.907  11.783  14.603  0.0827 -0.1561  0.2296
13167W        W32701   1.360   6.619   0.476 -0.1220 -0.0445  0.1782
13168W        W32702  15.135  13.508   0.061 -0.0047 -0.2063 -0.1099
13169W        W32703   3.971  17.086  14.465  0.0074 -0.0652 -0.1053
13170W        W32704  15.223  12.557   1.366 -0.0622 -0.0688  0.1000
13171W        W32705  17.996  18.932   3.385 -0.2608 -0.2137 -0.0742
13172W        W32706   3.880   5.224  11.164  0.3190 -0.1508 -0.0380
13173W        W32707  14.251   4.549   3.912 -0.0889  0.0508  0.0920
13174W        W32708   5.702  12.353   4.017  0.0950  0.1468 -0.0260
13175W        W32709  15.231   5.486  11.322 -0.1175 -0.1033  0.0329
13176W        W32710   0.572   9.581  11.281  0.2783  0.1357  0.1197
13177W        W32711  17.438   8.623   1.849 -0.4712  0.2571  0.2313
13178W        W32712  16.366  12.196  12.852  0.0442  0.1965  0.0297
13179W        W32713   8.661  13.444   1.944 -0.2664  0.1786 -0.2158
13180W        W32714  17.197   8.361  12.965  0.4098 -0.3496 -0.2389
13181W        W32715  14.772   6.155   1.262 -0.2642 -0.2624  0.1635
13182W        W32716   2.395   4.364  12.594  0.3654 -0.0737 -0.1165
13183W        W32717  17.680   5.829   4.084 -0.0211  0.0605  0.2451
13184W        W32718  17.003  18.571   4.045 -0.2065 -0.0099  0.0338
13185W        W32719   1.976  17.784  11.059  0.1099  0.2432  0.0436
13186W        W32720   1.925   6.210  12.432  0.0358  0.0979 -0.0830
13187W        W32721   6.870   8.954  10.957  0.5252  0.0080 -0.1436
13188W        W32722   0.444  12.136  11.456 -0.2014 -0.0587 -0.0521
13189W        W32723  18.995  10.337  10.671 -0.0785  0.0344 -0.2107
13190W        W32724   4.540   1.821  12.752  0.3471 -0.0064 -0.2826
13191W        W32725  10.372   1.952  12.430 -0.2781  0.0496 -0.1498
13192W        W32726   2.685   9.468   0.110 -0.2834 -0.2826 -0.1241
13193W        W32727   2.086  18.716  13.872 -0.2098 -0.0486 -0.2933
13194W        W32728  17.992  11.282  13.365  0.0865  0.1058  0.0349
13195W        W32729  19.046   1.727  14.641  0.2265 -0.1664 -0.3777
13196W        W32730   4.926  14.531  11.877 -0.0055  0.3515 -0.1045
13197W        W32731   7.775   3.826   0.083  0.1806 -0.0585  0.3083
13198W        W32732  13.004  18.629   1.993  0.0225  0.0469 -0.1273
13199W        W32733  18.198   5.620   3.272 -0.0576  0.0964 -0.3565
13200W        W32734   4.556  12.779  13.347 -0.0581 -0.0360 -0.0395
13201W        W32735   2.806  18.927  13.544 -0.2144  0.1161  0.1791
13202W        W32736  18.457   2.404   4.177 -0.2404 -0.0044  0.3222
13203W        W32737  15.224   7.992  10.851 -0.0613  0.2251  0.0046
13204W        W32738   3.663   2.550  14.162 -0.2468 -0.3175  0.1543
13205W        W32739   5.577   1.580   0.988  0.1583 -0.2391 -0.0603
13206W        W32740   5.322  18.739  13.911  0.1386  0.2567  0.1726
13207W        W32741   5.327   0.490   0.199 -0.0375  0.3527 -0.2237
13208W        W32742  10.944   4.306   4.093  0.2551 -0.0148  0.0079
13209W        W32743  14.285   6.954   3.441 -0.2569 -0.1823  0.0977
13210W        W32744  15.793   0.183   1.494  0.3230 -0.0717 -0.0120
13211W        W32745  15.511  11.785   0.765 -0.4929 -0.1607 -0.0781
13212W        W32746   2.906   5.120   1.601  0.0280  0.3224 -0.1574
13213W        W32747  17.505  10.800   9.488 -0.0269 -0.0907  0.2179
13214W        W32748  13.737   1.953   0.960 -0.3348 -0.1227  0.1297
13215W        W32749  11.689  10.882   9.919  0.0168 -0.2285  0.1052
13216W        W32750  13.216  12.178   3.316 -0.0722  0.0409 -0.0643
13217W        W32751  12.531   2.344  14.162 -0.1751 -0.2401 -0.0668
13218W        W32752   0.822  13.535   2.104 -0.4132  0.4533  0.0030
13219W        W32753   5.477  11.171   2.982 -0.0909 -0.2990 -0.2006
13220W        W32754  10.961   8.273  13.113  0.0284  0.3339 -0.2784
13221W        W32755   2.480   3.822   1.267 -0.4901 -0.2801 -0.1646
13222W        W32756   2.183  16.305  14.489  0.1069  0.2178  0.2331
13223W        W32757  13.053   3.609   2.802 -0.1115 -0.0771  0.1544
13224W        W32758  13.463  11.001  11.086 -0.0859  0.0333 -0.0848
13225W        W32759   4.911   7.782  11.272  0.1467 -0.1447 -0.1779
13226W        W32760  16.608   5.189   0.403 -0.2195  0.1257  0.0805
13227W        W32761   9.533  17.929  12.194 -0.0877  0.3247  0.0304
13228W        W32762  11.195   5.905   3.654 -0.2045 -0.0120  0.3053
13229W        W32763   0.887  17.569  14.318 -0.0746  0.0538 -0.0123
13230W        W32764  13.969  15.057  14.666 -0.3831 -0.1321 -0.1609
13231W        W32765   3.694  17.131  13.714  0.1025  0.1360 -0.1918
13232W        W32766   0.895   0.922  13.963  0.2317  0.0178 -0.2269
13233W        W32767   3.159  16.099   1.684 -0.0642  0.0357 -0.1997
13234W        W32768   2.271  10.480  11.283 -0.1070 -0.0618  0.1112
13235W        W32769  15.453   9.870   4.527 -0.2171 -0.0836  0.0351
13236W        W32770  11.436   3.563  12.398 -0.2186 -0.2562 -0.3005
13237W        W32771  13.646   8.711  14.639  0.0885 -0.2010 -0.1683
13238W        W32772  18.972  12.859   2.861  0.0563  0.5548  0.0332
13239W        W32773   7.089  11.476  11.525 -0.2003  0.0516 -0.1736
13240W        W32774  12.558  15.444  12.220 -0.0416  0.1771 -0.0246
13241W        W32775  11.123   5.214   0.043 -0.0707  0.1054 -0.0219
13242W        W32776  10.095   2.787  11.775 -0.0678  0.2129  0.0775
13243W        W32777   6.023   6.667  11.549 -0.2980 -0.1501  0.0317
13244W        W32778   1.594   4.474   3.355  0.2198  0.0607  0.3138
13245W        W32779   0.158  18.436   3.625  0.0882 -0.1305 -0.1571
13246W        W32780  18.344   6.599  11.438 -0.2796  0.0868 -0.1214
13247W        W32781  14.779  16.584  13.088 -0.3122  0.1752 -0.2491
13248W        W32782   7.912  14.403   1.952 -0.0285 -0.1048  0.0866
13249W        W32783  15.298   6.038   3.182 -0.2113 -0.2648 -0.0150
13250W        W32784  17.058   1.384   1.860  0.0071  0.0746 -0.0147
13251W        W32785  14.015  11.899  12.430  0.2388  0.2431 -0.0313
13252W        W32786   3.350   4.209  10.552  0.0041 -0.0523  0.2950
13253W        W32787  10.339   1.013   2.602 -0.0898  0.1201  0.0243
13254W        W32788   8.367  18.857  11.574 -0.1463 -0.0937  0.0095
13255W        W32789   7.760  17.112   4.670  0.0426  0.1127  0.0552
13256W        W32790  11.826   1.299  13.633 -0.1566 -0.1381 -0.0395
13257W        W32791  11.469  16.036   2.968 -0.3051 -0.0982  0.1978
13258W        W32792   1.383   8.407   3.426 -0.3235  0.1985  0.0399
13259W        W32793  14.116  11.926  10.288  0.0569 -0.1382 -0.2156
13260W        W32794   6.563  18.953  13.936 -0.1449  0.1132 -0.3053
13261W        W32795   8.480  11.700   1.955  0.1848  0.3314 -0.0430
13262W        W32796  12.470  11.764   2.628  0.2021  0.1245  0.1090
13263W        W32797  15.856   7.143   0.729  0.1975  0.2358  0.0471
13264W        W32798  12.758   7.631   0.727 -0.0275 -0.4363 -0.0934
13265W        W32799   8.874   6.395  10.982  0.0917  0.3076 -0.4959
13266W        W32800  10.477   6.298  13.294 -0.1255 -0.0314  0.0485
13267W        W32801   0.672   2.737  10.943  0.1925  0.2212 -0.1435
13268W        W32802  18.443   2.156   1.069 -0.0438  0.2353 -0.0958
13269W        W32803  15.820   6.133   0.829 -0.0320 -0.0234  0.1463
13270W        W32804  12.363   7.132   1.516  0.1311 -0.2600  0.1944
13271W        W32805  14.721   7.950  10.961  0.0300  0.4084  0.1097
13272W        W32806   8.348  12.619   1.123 -0.2326  0.1810 -0.0728
13273W        W32807   8.721  11.727  13.228  0.4095  0.0873 -0.2922
13274W        W32808  11.418  13.018   0.706  0.1578 -0.0451 -0.0865
13275W        W32809   9.660   3.328   5.377  0.2008 -0.0592 -0.0410
13276W        W32810  10.546  16.292  11.816 -0.3742 -0.1196  0.0459
13277W        W32811   6.464  10.075  12.944 -0.2250  0.1966  0.1404
13278W        W32812   2.993   9.687   2.633  0.1801 -0.0326  0.1277
13279W        W32813   6.282   1.959  12.671 -0.0321  0.2835 -0.1104
13280W        W32814   6.632   3.447   4.210 -0.1384 -0.0023  0.0786
13281W        W32815  17.261  11.207   0.745  0.1163  0.6242 -0.1180
13282W        W32816  11.153  13.370  11.461  0.0486  0.2047  0.1874
13283W        W32817   1.863  16.617  14.184 -0.1488  0.0510 -0.0871
13284W        W32818  18.017   5.801   1.881  0.0430 -0.0197 -0.1566
13285W        W32819  11.191  11.445  11.798 -0.3366  0.0021 -0.4191
13286W        W32820  11.911   3.559  13.788  0.3524 -0.1074  0.0032
13287W        W32821   6.415   6.313  11.876  0.0550  0.0919 -0.2075
13288W        W32822  10.133  17.380   0.516  0.1129 -0.0504 -0.1071
13289W        W32823   9.775  17.478  11.348  0.3020  0.0930 -0.3143
13290W        W32824  12.495   7.192   3.951 -0.0060 -0.2182  0.1416
13291W        W32825  18.563   0.695   1.317  0.2064  0.3430  0.1504
13292W        W32826  10.093   7.440  12.595  0.0158  0.1225 -0.2234
13293W        W32827  11.930   2.949   2.485 -0.0723  0.2042 -0.0418
13294W        W32828   6.625   8.962   4.421 -0.3646 -0.1747  0.5652
13295W        W32829  18.387   0.183  14.062  0.2723  0.1176  0.0394
13296W        W32830   1.962  12.108  11.122  0.0467 -0.1679  0.0956
13297W        W32831   8.919  17.752  13.371  0.1853  0.4756 -0.4001
13298W        W32832  15.403   9.026   4.136  0.2612 -0.0092 -0.0027
13299W        W32833   0.740   9.699   3.043 -0.0097 -0.2001 -0.2637
13300W        W32834  17.923   0.613   2.476 -0.0470 -0.2107 -0.0649
13301W        W32835  11.416   8.004   3.944  0.5553  0.0359  0.0138
13302W        W32836   9.952   9.834   4.029 -0.1683  0.1081 -0.0928
13303W        W32837  11.272   7.430  12.281  0.0127 -0.0935  0.0756
13304W        W32838  18.432  14.538   2.863 -0.1535 -0.2729 -0.0561
13305W        W32839  14.799   6.100  10.892  0.0306  0.0069  0.1008
13306W        W32840   3.238   3.746   1.096 -0.3162 -0.1452  0.1112
13307W        W32841  18.527  18.755   3.300 -0.0091 -0.1892 -0.1346
13308W        W32842  15.679  14.186  14.135 -0.1435  0.1440  0.1975
13309W        W32843   7.622   2.764   0.917  0.0242  0.2040 -0.4307
13310W        W32844  18.367  11.672   0.796  0.0307 -0.1758  0.1296
13311W        W32845  16.343   4.793   2.660  0.2971  0.1493  0.1461
13312W        W32846   6.362   4.685  13.117  0.0876  0.0086  0.2120
13313W        W32847   2.850  19.087  12.770 -0.2264  0.0805  0.0668
13314W        W32848   2.649   7.968   0.303  0.1099  0.2014 -0.1226
13315W        W32849  13.805   1.325  13.004  0.1288 -0.2506 -0.1128
13316W        W32850   2.416   4.756  10.391  0.1508  0.0596  0.3339
13317W        W32851   5.699   5.157  10.101 -0.1540  0.0364  0.1515
13318W        W32852  10.603   7.685  14.819  0.1723  0.2094 -0.0426
13319W        W32853   9.600   2.844   0.530 -0.1466  0.0997  0.0758
13320W        W32854  14.105  16.535   0.481  0.1493 -0.2132  0.0918
13321W        W32855   8.797   6.406   0.469 -0.0173  0.1842  0.0120
13322W        W32856   0.289  12.616   0.607 -0.0221 -0.1631  0.1157
13323W        W32857   0.805  16.108   0.823  0.3073 -0.2298  0.1718
13324W        W32858  12.490   3.492   9.907 -0.3414 -0.1316 -0.0990
13325W        W32859  15.935   2.014  14.174 -0.0119  0.1426  0.0967
13326W        W32860   3.489  10.365  11.748 -0.1580  0.0071  0.3501
13327W        W32861  11.121   8.326  14.345  0.2416 -0.1801 -0.1190
13328W        W32862  11.936  16.748   2.578  0.2785 -0.1680  0.2072
13329W        W32863  17.651   6.344  10.847 -0.2116 -0.4928  0.0325
13330W        W32864   9.016   6.315  12.687  0.1660  0.0337  0.1642
13331W        W32865   6.481   2.730   4.098  0.4034 -0.1439 -0.0143
13332W        W32866  15.833  14.710  11.027  0.2358 -0.0916 -0.1066
13333W        W32867  11.962   2.273  12.664 -0.1324  0.1718  0.0752
13334W        W32868  14.707  17.063  11.394 -0.1518  0.1232  0.1156
13335W        W32869   4.826   2.347   2.994  0.0123 -0.2878 -0.2531
13336W        W32870  16.293   8.637   0.609  0.1471 -0.2127 -0.1774
13337W        W32871   4.496   0.477  10.846  0.0767  0.0142  0.0493
13338W        W32872  16.216  13.114   1.067 -0.1681 -0.1700 -0.0482
13339W        W32873  13.844  14.291   3.627  0.0020 -0.2339  0.2253
13340W        W32874   1.236  16.546   0.968 -0.0235  0.4497  0.0922
13341W        W32875   2.440   1.075   2.889 -0.1415 -0.1181 -0.3289
13342W        W32876   4.646   0.886  10.557 -0.0282 -0.1012  0.3507
13343W        W32877   0.123  19.074   2.103 -0.0800 -0.0792 -0.0812
13344W        W32878   8.747   4.292  14.816  0.2598  0.2860  0.2367
13345W        W32879  11.693  14.017  13.969  0.0655  0.1398  0.3160
13346W        W32880  11.135  10.494   0.951 -0.1428 -0.1088 -0.1438
13347W        W32881  18.330   5.571   0.382  0.1294  0.2402 -0.1280
13348W        W32882   4.976  11.580   0.759 -0.1060  0.0903 -0.1769
13349W        W32883  10.889   7.373  14.378 -0.1757 -0.0071 -0.2189
13350W        W32884  11.114   7.917  14.084  0.1026 -0.0750 -0.1530
13351W        W32885  17.607  14.194   5.310 -0.2164 -0.0041  0.0878
13352W        W32886   1.676   5.705  10.770  0.3288 -0.0723 -0.1104
13353W        W32887  10.989  18.109  13.487 -0.0842  0.1365  0.2508
13354W        W32888   0.986  17.192   1.752 -0.0981 -0.0936  0.2032
13355W        W32889  13.965   6.329   1.668  0.0174 -0.0227  0.1706
13356W        W32890  12.460  17.956   2.947 -0.0035  0.1519 -0.2045
13357W        W32891   3.806  15.748  13.697  0.1441 -0.1735  0.0054
13358W        W32892  14.083  14.069  11.933  0.2527 -0.1805  0.1234
13359W        W32893   7.250   6.277  13.689  0.1029  0.2094 -0.1568
13360W        W32894  15.733  11.367  11.104 -0.0538  0.2510 -0.1370
13361W        W32895  11.144   7.879   2.404  0.0072 -0.0509  0.3876
13362W        W32896   6.058   9.309  10.263 -0.2467 -0.0322 -0.0456
13363W        W32897   1.438  13.561  11.341 -0.3141 -0.0434  0.4461
13364W        W32898   7.157   1.418  10.754  0.1042  0.2003 -0.1684
13365W        W32899  14.987   5.774  11.717 -0.0748  0.1971 -0.0430
13366W        W32900  18.061   4.395   3.356 -0.1202 -0.1489 -0.3680
13367W        W32901  13.716   1.304  13.978 -0.0464 -0.1327 -0.0045
13368W        W32902  16.023  14.625   2.518  0.0835  0.0150  0.0455
13369W        W32903  18.425   9.258   2.393 -0.0299  0.2355 -0.1595
13370W        W32904  14.984   7.395  10.852  0.0515 -0.0606  0.1452
13371W        W32905  12.092  12.318   2.858 -0.3738  0.1478 -0.1917
13372W        W32906   9.344   2.432  14.510  0.0741  0.1117 -0.1239
13373W        W32907  15.578  14.890   2.308  0.2590  0.0489  0.0627
13374W        W32908  17.990  18.674   3.903 -0.0888  0.0536  0.1632
13375W        W32909   4.534  17.882   2.601  0.0270 -0.1975  0.0068
13376W        W32910  16.042   9.061   2.316  0.2044 -0.0238  0.3111
13377W        W32911  17.491   9.775   1.823  0.0975 -0.0867 -0.0856
13378W        W32912  13.418  14.031  11.417 -0.0529  0.1951 -0.0217
13379W        W32913  18.992   5.309  12.453  0.0835  0.1025  0.2223
13380W        W32914   4.042   8.591  12.727  0.1582  0.0003  0.0122
13381W        W32915  18.029   1.188  10.711  0.0830 -0.0399 -0.0897
13382W        W32916   9.201   0.941   1.868  0.1895 -0.0650  0.0686
13383W        W32917  17.864  18.593  10.433 -0.2444  0.0238  0.0846
13384W        W32918   3.314  10.372  10.853  0.2306 -0.0213  0.1714
13385W        W32919   1.396   7.413   3.714  0.1859  0.3703 -0.2126
13386W        W32920  15.193  18.418  11.688  0.0087  0.1387  0.0174
13387W        W32921  13.912   8.300  14.706 -0.0924  0.0324 -0.1320
13388W        W32922   2.000   5.831  12.150 -0.1493 -0.3484  0.0964
13389W        W32923  14.682  18.243   1.360  0.0757  0.4849 -0.2151
13390W        W32924  15.561  10.584  12.055 -0.2138 -0.1920 -0.3942
13391W        W32925   5.320  11.137  13.975 -0.1178 -0.0542 -0.3275
13392W        W32926  14.846   6.452   1.765 -0.1530  0.0041 -0.0620
13393W        W32927   2.617  17.707   0.245  0.2512 -0.2533 -0.0891
13394W        W32928   7.240  18.010  10.633  0.0332 -0.2063  0.0430
13395W        W32929  11.400  11.982  13.322  0.0121  0.0983  0.3249
13396W        W32930   4.471  10.051   2.584 -0.0017 -0.0499  0.2070
13397W        W32931  18.898  18.091  10.900 -0.2296  0.0903  0.0786
13398W        W32932  11.319   2.432   1.765 -0.1351 -0.0141  0.1268
13399W        W32933  12.320   7.982   1.956 -0.1308 -0.2787  0.1348
13400W        W32934   8.037  18.173  13.121  0.1080  0.0367  0.1246
13401W        W32935   2.630   3.901  11.154  0.3019 -0.0498  0.0325
13402W        W32936  18.598  14.094   1.601 -0.0513 -0.0180 -0.4175
13403W        W32937  18.001   2.124  14.034 -0.1685  0.0418  0.1599
13404W        W32938   0.221  12.821  12.669  0.0638 -0.0688 -0.0321
13405W        W32939  15.357   4.877   0.869 -0.3482 -0.1076 -0.0609
13406W        W32940  17.358  14.089   2.204 -0.2959 -0.1479  0.0602
13407W        W32941   3.386   5.318   3.091  0.2911 -0.1431  0.0086
13408W        W32942  12.137   4.909   3.385 -0.4249  0.1127 -0.2544
13409W        W32943  18.737  11.832   3.307 -0.1641  0.1167  0.2086
13410W        W32944  11.187   0.723   4.394 -0.0979 -0.0750 -0.1666
13411W        W32945   2.272  12.591   2.591  0.0538 -0.0383 -0.3532
13412W        W32946   0.379  13.626   1.168  0.0488  0.0727  0.0211
13413W        W32947   6.717  10.795   4.285  0.1388 -0.2872  0.0271
13414W        W32948   4.556   9.529   3.632  0.1382 -0.2714  0.0581
13415W        W32949   0.069   9.516  13.370 -0.0968 -0.1867  0.0306
13416W        W32950   7.570  12.705   3.555 -0.0842 -0.1710 -0.1308
13417W        W32951   4.862  12.147   2.186  0.0497 -0.1207 -0.1491
13418W        W32952  16.169   4.853   2.141  0.0635  0.1493 -0.0386
13419W        W32953   2.937  17.980   1.691 -0.0692  0.0213  0.0617
13420W        W32954   8.138   7.639  11.625 -0.0130 -0.0667 -0.2399
13421W        W32955  14.139  12.689  10.714 -0.2301  0.1699  0.2142
13422W        W32956  11.213  14.272   9.728 -0.0243 -0.0157  0.0842
13423W        W32957   7.453  13.655   1.509 -0.3070 -0.0185  0.0305
13424W        W32958   9.112  18.884   0.515  0.1764 -0.1324 -0.1809
13425W        W32959  19.113  11.484   1.210 -0.1814 -0.1757 -0.0540
13426W        W32960   5.961  17.678  13.639 -0.2287  0.1274  0.3249
13427W        W32961   8.359  13.901   3.761  0.1317  0.1721 -0.2245
13428W        W32962  17.976   6.290  12.389  0.3943  0.1820 -0.1964
13429W        W32963   8.659   9.412   4.244 -0.1041 -0.0163 -0.0759
13430W        W32964   8.364  14.345   1.586  0.0399  0.1876 -0.3884
13431W        W32965  13.173  13.518  13.073 -0.0376  0.2048 -0.0887
13432W        W32966  12.435   4.983  11.576  0.0702 -0.3892 -0.1513
13433W        W32967   3.316   8.664  14.188 -0.0476 -0.0403  0.1188
13434W        W32968   4.098  16.509   2.600  0.2192  0.1028 -0.1663
13435W        W32969  16.271  13.506   9.934 -0.0836  0.1592 -0.0987
13436W        W32970  11.764  10.286   1.772 -0.0701  0.2079  0.1510
13437W        W32971   0.675  11.709   4.159  0.0119 -0.2935  0.3773
13438W        W32972   0.100   8.177   1.802 -0.0888  0.1671  0.0352
13439W        W32973   4.012   9.186  13.737 -0.2744 -0.0909  0.2248
13440W        W32974  10.805  13.136   3.139  0.1622 -0.1064 -0.1432
13441W        W32975  10.159   0.533   2.570 -0.1953  0.0264 -0.0418
13442W        W32976   2.179  16.377  11.486 -0.3800 -0.0989 -0.0233
13443W        W32977   6.031  12.126   4.335  0.0161 -0.1396 -0.1470
13444W        W32978   3.618   4.312   2.258 -0.0004  0.0916 -0.1506
13445W        W32979  13.003  10.896   3.026  0.0503  0.0996 -0.1234
13446W        W32980   1.807  14.393   2.342 -0.0548  0.0901 -0.1042
13447W        W32981  13.855  18.409   2.454 -0.1205  0.3203 -0.0696
13448W        W32982   0.591  17.208  14.626  0.1271  0.2666  0.6700
13449W        W32983   4.724  12.840  14.385  0.2103  0.0490 -0.1832
13450W        W32984   4.949  10.298   3.854  0.3480  0.6067 -0.0838
13451W        W32985   1.680  10.043  10.817 -0.0254  0.3086 -0.4581
13452W        W32986   5.272  11.269  11.776  0.1107 -0.0215  0.1343
13453W        W32987  15.131   0.168  14.334 -0.2443  0.1905 -0.2929
13454W        W32988   1.703   8.142  11.480 -0.0153 -0.0432 -0.0777
13455W        W32989  10.583  12.499   2.546 -0.1617 -0.0221  0.1846
13456W        W32990  14.123  15.793   1.926 -0.4301  0.1528 -0.1791
13457W        W32991  17.095   7.633  11.278  0.1100  0.1857 -0.0782
13458W        W32992  17.738  16.405   2.367 -0.2708 -0.2631 -0.1471
13459W        W32993  17.347  15.525   3.883 -0.0548  0.1098 -0.2121
13460W        W32994  17.426  18.960   0.125  0.0589 -0.0792  0.0976
13461W        W32995   1.926  16.967  13.763 -0.0714  0.2483  0.1440
13462W        W32996  15.673   1.368   9.994 -0.0973  0.3226  0.0069
13463W        W32997  10.748  13.420  12.290 -0.1910 -0.0020  0.1077
13464W        W32998   7.967  12.108  11.295 -0.0386 -0.0124  0.2370
13465W        W32999  15.972  15.278   3.334  0.0821  0.1626  0.0679
13466W        W33000   2.636  10.714  11.498 -0.2472  0.1531 -0.0677
13467W        W33001   7.561  18.155   5.113 -0.2779 -0.0458  0.2284
13468W        W33002   9.804  12.223  11.103 -0.1052 -0.2772  0.0859
13469W        W33003   6.798   5.279   0.617  0.1297  0.1203 -0.1488
13470W        W33004  11.524   2.682  13.833 -0.3640  0.0678 -0.0244
13471W        W33005   9.016  17.632  13.903  0.0539  0.0750 -0.0227
13472W        W33006   7.868   4.764  12.649  0.1400 -0.0089 -0.1957
13473W        W33007   2.402   3.638   3.918  0.0238  0.1377  0.0097
13474W        W33008  10.821  17.476   4.047 -0.0677  0.2337 -0.0082
13475W        W33009   9.418   3.208  11.022 -0.0175 -0.1491  0.0509
13476W        W33010   0.550  10.801   0.697  0.1054  0.0910 -0.1268
13477W        W33011  18.993  17.710  14.526 -0.1157  0.1900 -0.0328
13478W        W33012   6.776   4.694  13.462  0.3701 -0.2634 -0.3869
13479W        W33013   8.269  17.748  11.143  0.2789  0.0134  0.0683
13480W        W33014   5.790   2.735  12.078  0.2234 -0.1551  0.0673
13481W        W33015  13.858   8.061   0.973 -0.1250 -0.1354  0.0485
13482W        W33016   5.898  15.800   0.164 -0.1464 -0.3568  0.1971
13483W        W33017  10.612  18.820  11.776  0.0557  0.0602  0.4128
13484W        W33018   1.364   8.763   3.074  0.0585 -0.0226  0.0912
13485W        W33019   2.203   6.857   1.692  0.0719 -0.0256 -0.1583
13486W        W33020   9.802   6.202  14.511 -0.2037  0.2501  0.0544
13487W        W33021  17.505  14.577  11.918 -0.3872  0.2828  0.1238
13488W        W33022   5.782  13.349  12.475 -0.2816 -0.2132  0.0956
13489W        W33023  18.983   0.815   0.899  0.3207 -0.0892 -0.1355
13490W        W33024  13.784  11.427   0.337 -0.1580 -0.1900 -0.1803
13491W        W33025   1.115   1.095   1.982 -0.0889 -0.2093  0.3275
13492W        W33026   6.865   1.969   4.133 -0.2010 -0.0074  0.0678
13493W        W33027  11.959   1.689   2.368  0.0707 -0.1614 -0.2577
13494W        W33028  10.272  10.507   0.392  0.1640 -0.1976 -0.2110
13495W        W33029   8.565  15.627   0.043  0.0778  0.0624  0.3584
13496W        W33030  15.979  17.911  14.831 -0.1669  0.1809  0.1033
13497W        W33031  12.819   3.100   9.825  0.1190 -0.0558  0.1458
13498W        W33032  17.363  16.944  11.586 -0.3176 -0.0790 -0.2053
13499W        W33033  14.061   0.874   1.433  0.1689  0.2880  0.1438
13500W        W33034  15.441   1.719   2.322  0.2573  0.0212 -0.0934
13501W        W33035   3.909   0.614  12.875  0.1362 -0.0052 -0.1420
13502W        W33036  15.472  16.705   2.937  0.6183  0.0157  0.0050
13503W        W33037   0.938  15.593   2.038  0.1179 -0.0111 -0.1203
13504W        W33038  12.056  18.812  14.783  0.0562  0.0107  0.2277
13505W        W33039  16.655  18.759   1.029  0.0020  0.0417 -0.1529
13506W        W33040  14.598   6.542  10.923  0.5617 -0.0121  0.2996
13507W        W33041   4.126   2.632   1.005  0.1774 -0.1186 -0.2001
13508W        W33042   2.126  12.980  14.094  0.2262 -0.0429  0.1980
13509W        W33043  15.677   5.783   0.466  0.2684 -0.0534  0.0861
13510W        W33044  15.643   7.294   1.183  0.3961 -0.0205 -0.2465
13511W        W33045  15.954   8.853  12.140  0.0746  0.2179  0.3175
13512W        W33046  16.739   2.078  14.425 -0.0199 -0.2339  0.1100
13513W        W33047   5.416   7.568  13.127 -0.3951  0.2335  0.1819
13514W        W33048  18.046   5.557  11.674 -0.0206  0.2069 -0.0648
13515W        W33049  16.051   6.220  13.736 -0.1372 -0.3603 -0.2048
13516W        W33050  14.926   7.509   3.420  0.0188  0.2912 -0.0539
13517W        W33051  14.430   6.524  12.848 -0.0565  0.1975  0.0067
13518W        W33052   3.419  10.085  13.697  0.1394  0.0267 -0.3798
13519W        W33053  19.070   0.950   2.659 -0.0744  0.0506  0.1298
13520W        W33054   2.636   0.289   5.037 -0.4608 -0.5200 -0.2603
13521W        W33055  12.190  13.313  13.960 -0.2741  0.0972 -0.2232
13522W        W33056  12.550  15.820   4.866  0.1451  0.0112 -0.0161
13523W        W33057  11.162   0.219  12.990  0.1714 -0.0129  0.0287
13524W        W33058   2.159  10.732   1.749 -0.0701  0.0071 -0.0496
13525W        W33059  18.641  19.016  10.833 -0.2355  0.0230 -0.2348
13526W        W33060  17.383   4.148  14.583 -0.0006 -0.0160 -0.1386
13527W        W33061  16.063   6.340  11.725  0.0464  0.0926 -0.0439
13528W        W33062   2.809   6.329   2.330  0.0992 -0.1870 -0.0694
13529W        W33063   7.760  14.762   0.987  0.0334 -0.1516 -0.0457
13530W        W33064  11.703  17.677   3.664  0.1902  0.2004 -0.1481
13531W        W33065   1.385   3.037   1.723 -0.1310 -0.2089  0.0606
13532W        W33066  18.490   1.487   2.832  0.1318  0.2054 -0.0666
13533W        W33067  15.655   5.257  14.607  0.2136  0.2027 -0.0077
13534W        W33068   0.889   4.030   3.753 -0.0426  0.1167  0.0024
13535W        W33069  10.276   3.002   3.289  0.4725 -0.2003  0.1223
13536W        W33070  15.181   5.773   9.485 -0.0996 -0.0544 -0.3317
13537W        W33071  16.092  11.424   2.793 -0.0916  0.1118  0.4475
13538W        W33072   2.154   5.511  10.851 -0.5839  0.1057  0.0883
13539W        W33073   2.474   0.007  13.208 -0.0221  0.3128 -0.2730
13540W        W33074  16.593  11.576  12.432 -0.4279 -0.0433 -0.0654
13541W        W33075  13.965  18.027  14.162 -0.1159  0.1974  0.3198
13542W        W33076   3.444   9.404   0.535 -0.0048  0.1231  0.0907
13543W        W33077  12.992  17.396   0.778 -0.4113  0.2582  0.1794
13544W        W33078   1.076   6.882  13.982 -0.3720 -0.0298 -0.2162
13545W        W33079  11.873   0.920  13.983  0.0632 -0.1188 -0.2948
13546W        W33080  10.316  15.516   1.498  0.2131  0.2497 -0.2080
13547W        W33081  13.793  15.616  11.459 -0.2910 -0.1112  0.0164
13548W        W33082   4.750  16.817  10.915 -0.1479  0.0881  0.1181
13549W        W33083   3.841   7.281  11.921  0.2332  0.0362  0.1079
13550W        W33084  14.654   9.722  13.153  0.0512 -0.2461  0.0079
13551W        W33085   5.485  13.517   2.566 -0.0239 -0.1759  0.1846
13552W        W33086   6.311  11.876  14.589 -0.1530  0.1623  0.0710
13553W        W33087   9.959  14.373  13.848  0.1893 -0.0250 -0.1585
13554W        W33088  10.133  15.106  10.412  0.0796 -0.0820  0.1947
13555W        W33089   5.441  10.913  10.859 -0.2573  0.2549 -0.1260
13556W        W33090   8.677   2.782   4.563  0.1255  0.3525 -0.1227
13557W        W33091  11.218  13.421   3.075 -0.0404 -0.0970  0.4747
13558W        W33092   3.723  17.878  14.493 -0.2012  0.0666 -0.0424
13559W        W33093   8.894   3.777  14.095  0.0139 -0.0244  0.2733
13560W        W33094  10.350   9.819  12.533  0.3030  0.1051 -0.0388
13561W        W33095   5.738  14.257   1.104 -0.3081  0.4211 -0.0260
13562W        W33096  11.092   7.413  13.840  0.3078  0.0420  0.0346
13563W        W33097   9.525   9.557  11.215  0.0409 -0.1725 -0.0932
13564W        W33098  16.421  13.860  11.876 -0.2789  0.0790 -0.1214
13565W        W33099  10.830  15.928   1.396 -0.0681  0.0393  0.2628
13566W        W33100  14.684  15.183   5.209 -0.0685  0.1864 -0.0841
13567W        W33101   8.786  15.028  12.056 -0.2370  0.3336  0.3165
13568W        W33102  14.563  12.156  13.781  0.0573  0.1656  0.0796
13569W        W33103   9.777  10.388  14.297 -0.1927 -0.2272 -0.0847
13570W        W33104   3.476  17.642  11.556 -0.1891  0.0339 -0.0757
13571W        W33105   9.764   2.970  11.402 -0.0289 -0.0507  0.1393
13572W        W33106   6.787   2.926  11.877 -0.1652  0.0674 -0.0657
13573W        W33107   4.506  11.909   0.531 -0.2345 -0.0235  0.0131
13574W        W33108  17.006  14.380  11.988  0.2140  0.0746  0.3432
13575W        W33109   5.112  14.049  12.164 -0.0555  0.2652 -0.1505
13576W        W33110   8.730  14.077   3.456 -0.1224 -0.1396 -0.0108
13577W        W33111   3.750  15.498   2.187 -0.1115 -0.0688 -0.0665
13578W        W33112  17.759   8.217  12.946  0.2943 -0.2032 -0.2591
13579W        W33113   6.819   3.446   2.875 -0.0827 -0.2714 -0.1527
13580W        W33114  13.944  18.303   0.449 -0.0250  0.4185 -0.0408
13581W        W33115   3.537  11.422   3.496 -0.1968 -0.2768  0.0689
13582W        W33116   1.327  13.780   3.866 -0.1015 -0.0407 -0.0291
13583W        W33117   2.993   8.787   2.316 -0.0642  0.1080 -0.0531
13584W        W33118  15.967  14.447   3.683  0.1952 -0.0185  0.1165
13585W        W33119  14.231  11.943   2.473 -0.1655 -0.0962 -0.0486
13586W        W33120   3.210   4.654   1.240 -0.0452 -0.0232 -0.1294
13587W        W33121  12.171  18.643   4.152  0.0460  0.1056 -0.3776
13588W        W33122  13.897  13.287   3.447  0.1925  0.2903  0.1078
13589W        W33123   7.942   9.907   1.857 -0.2711 -0.0122 -0.0142
13590W        W33124   0.636  18.831  11.777 -0.0420  0.4044 -0.2782
13591W        W33125  18.237   5.889   2.344 -0.0671  0.0734  0.0555
13592W        W33126   9.463  17.173  11.169  0.2608 -0.3282 -0.0608
13593W        W33127   1.237  16.478  14.408  0.1592  0.1046 -0.1432
13594W        W33128  13.667  15.100   2.784 -0.2679 -0.1902 -0.1175
13595W        W33129  14.892  10.392  12.436 -0.0894  0.0163 -0.2324
13596W        W33130  13.609   1.944   0.039 -0.1052  0.0006 -0.1728
13597W        W33131  18.298  17.963   4.118 -0.0874 -0.1622  0.1812
13598W        W33132   5.699  15.338  13.710 -0.0234 -0.0028  0.0475
13599W        W33133  14.971   4.236  12.308 -0.2565 -0.2039 -0.2749
13600W        W33134  16.271   2.177  10.663 -0.3125 -0.4049 -0.1890
13601W        W33135   9.360   8.838   0.715 -0.0085 -0.0068  0.0701
13602W        W33136  13.478   8.061  12.449 -0.1045  0.2145  0.1534
13603W        W33137   8.410   2.573  12.586  0.1485  0.1166 -0.2459
13604W        W33138   4.895   5.699   0.305  0.2211  0.0303  0.0852
13605W        W33139  14.647  12.839   9.743 -0.3969 -0.0060 -0.0452
13606W        W33140   3.568  12.790   0.025 -0.0468  0.2645 -0.2308
13607W        W33141   6.435  15.878  13.010 -0.2672 -0.2741  0.1644
13608W        W33142   9.645   7.238   1.383 -0.0663  0.2529 -0.0365
13609W        W33143  14.864   5.816   0.025  0.1505 -0.0438  0.1412
13610W        W33144   1.683   9.723  10.433  0.1596 -0.1667  0.1298
13611W        W33145  15.590  18.088   3.095 -0.0617  0.1684  0.2647
13612W        W33146   4.805   0.846  11.561 -0.0707 -0.0424 -0.1735
13613W        W33147   1.248  10.666  13.675 -0.2649  0.0214  0.1217
13614W        W33148   1.367   2.070   2.610 -0.3951  0.0231 -0.0156
13615W        W33149   4.363  14.329   4.003  0.0665  0.2933 -0.0364
13616W        W33150   7.077   9.439   0.129 -0.2911 -0.2914  0.2808
13617W        W33151  11.821  17.738   0.776  0.0123 -0.4962  0.2251
13618W        W33152  16.465  12.370   0.662  0.2343  0.0004 -0.0340
13619W        W33153  17.773  10.130  12.030  0.1028 -0.1724  0.1753
13620W        W33154   4.441  11.340  14.402 -0.0574  0.1495  0.1616
13621W        W33155  12.999  17.793   5.452  0.1592 -0.1041 -0.0050
13622W        W33156   7.720   8.049  13.379 -0.0090  0.1804 -0.1158
13623W        W33157   4.120  10.242   0.946  0.0188  0.0449  0.2171
13624W        W33158   7.454  10.279  14.591  0.2448 -0.1566 -0.0235
13625W        W33159  11.824  11.747  12.029 -0.1036  0.1055  0.1263
13626W        W33160   8.968   4.340   3.953 -0.0741 -0.1267 -0.2628
13627W        W33161   3.434  13.941  14.342  0.1880 -0.2099  0.2794
13628W        W33162  15.141   0.476   4.011  0.3821 -0.0701 -0.3516
13629W        W33163  15.155  11.273  14.572 -0.1838  0.0084 -0.3476
13630W        W33164   9.292  11.607  11.337  0.0067  0.1951  0.1068
13631W        W33165   6.528   3.535   3.751 -0.0213  0.0681 -0.2225
13632W        W33166   0.837   3.507  12.711  0.1998 -0.3022 -0.1192
13633W        W33167  10.362  18.113   0.505 -0.0885  0.0263 -0.1873
13634W        W33168   9.928  15.123   1.174  0.0364  0.3260 -0.4317
13635W        W33169  13.226  10.052  12.632  0.0773  0.2144  0.0886
13636W        W33170   9.014  14.799   4.325 -0.0467 -0.1598 -0.3728
13637W        W33171  18.466   3.868   2.022  0.0325  0.0995 -0.0653
13638W        W33172  12.052   8.281   4.805  0.0407 -0.1705  0.0041
13639W        W33173   9.620  15.304  13.465  0.0413 -0.1165  0.0605
13640W        W33174   5.055   7.901  14.441 -0.0882 -0.2851 -0.2836
13641W        W33175   6.160  13.592  11.192 -0.2422  0.0462 -0.2196
13642W        W33176  16.965   7.012  13.010  0.0743  0.1282 -0.0943
13643W        W33177   0.174   2.050  14.058  0.2673  0.1857 -0.1116
13644W        W33178   3.423  13.899   2.293  0.2409  0.0467  0.1029
13645W        W33179  14.506  12.273  10.435 -0.0926 -0.0358  0.0334
13646W        W33180  10.916   5.552  13.039  0.1886 -0.0653 -0.0196
13647W        W33181  15.037   0.912   2.471  0.1912 -0.3563 -0.1058
13648W        W33182   9.533  13.496   0.132  0.5468  0.2079 -0.1955
13649W        W33183  16.346  16.855  11.461  0.1895 -0.2136 -0.0091
13650W        W33184   3.627   9.474  13.718  0.2054  0.0328  0.1011
13651W        W33185   7.983  10.854  14.217  0.0868  0.3133  0.2051
13652W        W33186  14.818   2.655  11.728 -0.0453 -0.1220 -0.1429
13653W        W33187   1.054  18.193  13.650 -0.3792 -0.1128  0.0783
13654W        W33188   7.937   9.421  10.536 -0.1548 -0.1706  0.1468
13655W        W33189   5.140   6.257  14.092 -0.0619 -0.2217 -0.0655
13656W        W33190  18.489   0.499   0.379  0.4219  0.1310  0.1578
13657W        W33191   1.731  14.120   1.923  0.2345  0.0270 -0.0626
13658W        W33192   2.576  16.857  11.161 -0.0441  0.1216  0.0978
13659W        W33193  13.573  17.937  11.631 -0.1596 -0.0114  0.0239
13660W        W33194   9.630   0.888  14.451  0.3480 -0.0983  0.1747
13661W        W33195   4.553  15.840   3.276 -0.0063  0.1663  0.0881
13662W        W33196   2.671   2.476   0.711  0.1720  0.1492 -0.1507
13663W        W33197   2.515   1.393   2.057  0.4155 -0.1711 -0.2617
13664W        W33198   9.204   7.265   2.986 -0.0425 -0.1311 -0.0351
13665W        W33199   6.717   2.390  13.930 -0.0269  0.0859 -0.2358
13666W        W33200   6.459   2.301  11.159 -0.3014 -0.3351  0.0625
13667W        W33201  15.592  12.776   0.521 -0.0527 -0.0259  0.0335
13668W        W33202  16.506   6.037  13.573  0.1093  0.3289  0.0457
13669W        W33203   4.280  12.443   1.802  0.0487  0.1410 -0.0989
13670W        W33204   9.993  16.533  14.827  0.0594  0.3198 -0.1262
13671W        W33205  18.730   1.414   1.757  0.0457 -0.0012  0.4523
13672W        W33206   6.305  18.359  10.944 -0.3271 -0.1023 -0.0663
13673W        W33207   0.538  13.108   3.793  0.2007 -0.0818  0.0629
13674W        W33208  11.705   7.951   0.534  0.0857  0.1095 -0.0602
13675W        W33209  17.578  12.740   2.205  0.0818  0.0661 -0.0781
13676W        W33210   9.892  15.172   0.294  0.0934 -0.1016  0.2505
13677W        W33211   6.619  14.250   3.218  0.4395 -0.1091  0.0680
13678W        W33212  14.859  11.982   9.577 -0.1300 -0.0068  0.1675
13679W        W33213  10.148  17.268  12.804 -0.1410 -0.2278 -0.0655
13680W        W33214   0.850  16.305   3.967 -0.1384  0.0049 -0.3252
13681W        W33215  14.334  10.612   3.047  0.2991 -0.2164  0.3857
13682W        W33216  15.945  17.987  14.106 -0.1270  0.2670  0.5279
13683W        W33217   7.074  15.819  13.760 -0.1845  0.3555 -0.0781
13684W        W33218  15.989   3.808   4.960  0.1107  0.2991 -0.1531
13685W        W33219   4.968   1.654   4.070  0.0311  0.0321 -0.2463
13686W        W33220   6.886  17.113   1.948  0.1563  0.0250 -0.4490
13687W        W33221  10.066  12.875   3.711  0.0075  0.0301 -0.1155
13688W        W33222   8.020  12.634  13.339  0.2585  0.0257  0.0589
13689W        W33223   9.912   8.240  14.284  0.0422 -0.3603 -0.2032
13690W        W33224   0.275   9.677   1.582 -0.0267 -0.2447 -0.0783
13691W        W33225  16.523   8.843  12.792 -0.0447  0.1621  0.0130
13692W        W33226   1.552  17.347   0.014  0.1803 -0.1901  0.1381
13693W        W33227  16.056   9.474   0.349 -0.3084 -0.0979  0.0934
13694W        W33228   2.910   9.381  11.411  0.3420 -0.0075 -0.1306
13695W        W33229  11.437   6.801  13.155 -0.1315  0.1862  0.0195
13696W        W33230  11.994  11.846   2.824  0.0447  0.0172  0.1378
13697W        W33231   0.065   0.328  11.133 -0.1806 -0.2376 -0.0422
13698W        W33232   5.950  11.313   0.936  0.0746 -0.0422 -0.0626
13699W        W33233   3.941   5.762  14.841 -0.1768  0.1880  0.0606
13700W        W33234   5.360   1.974  12.600 -0.1412 -0.0405  0.0750
13701W        W33235   4.170   1.252   5.033 -0.1214 -0.0431  0.1594
13702W        W33236  13.686  18.918  11.512  0.1595  0.0504 -0.1205
13703W        W33237   9.249   2.362  11.250  0.0562 -0.0738  0.0287
13704W        W33238  17.477   5.747  13.270  0.0405 -0.0782 -0.0532
13705W        W33239   6.248  14.320   0.446  0.1635 -0.0577  0.0461
13706W        W33240   5.614  18.348  13.019  0.0170  0.0021  0.1951
13707W        W33241  15.622  18.449   1.773 -0.1189  0.3254  0.1295
13708W        W33242   2.725   9.611  14.039  0.0286  0.0773 -0.3823
13709W        W33243  12.425   6.462  14.277 -0.0466 -0.0533 -0.4848
13710W        W33244   6.090   9.811  12.411 -0.0086  0.1332  0.0738
13711W        W33245  10.244   1.498  11.611 -0.2598 -0.1629  0.0142
13712W        W33246  18.829   1.743  11.021 -0.1112  0.0359  0.0024
13713W        W33247  18.874   6.584  13.115  0.1822 -0.2618  0.0286
13714W        W33248  15.520  15.019   1.625 -0.1649 -0.0087 -0.1167
13715W        W33249   5.861   4.727   2.531 -0.2162  0.1195  0.1912
13716W        W33250   7.801  12.215   3.527  0.0940  0.1844  0.1002
13717W        W33251  10.154   0.120   3.512  0.0419 -0.1786  0.2511
13718W        W33252   2.270  16.570   0.956 -0.2053  0.2046 -0.2004
13719W        W33253  18.550   8.581  14.833  0.0292  0.2250  0.3350
13720W        W33254  18.056   7.018  14.584 -0.2924 -0.3002  0.0803
13721W        W33255   8.899  17.250  11.240  0.1929 -0.2870  0.0825
13722W        W33256   2.110  10.737  13.289  0.0008  0.0552  0.1755
13723W        W33257   2.509  10.267  11.755  0.3400  0.0593  0.0138
13724W        W33258   8.829  10.770   0.532  0.0099 -0.1010  0.0211
13725W        W33259  14.882  14.671  10.831  0.0431  0.6244  0.0235
13726W        W33260  14.012   2.452  12.999 -0.0405  0.1175  0.0819
13727W        W33261  14.699  10.912  12.502  0.0636 -0.3035 -0.2414
13728W        W33262   7.617   4.019   3.147  0.0424 -0.1654 -0.1469
13729W        W33263  11.740  14.330  13.623  0.1358 -0.1245 -0.3767
13730W        W33264   1.437  17.170  13.614 -0.1828  0.0690  0.0569
13731W        W33265  16.250  10.527   3.187  0.1579  0.1435  0.0541
13732W        W33266  12.084   4.252   3.280 -0.1209  0.0589 -0.1702
13733W        W33267   2.066   2.482   1.473  0.0232  0.1825 -0.2516
13734W        W33268  11.728   7.235   2.258  0.0299 -0.0228  0.0350
13735W        W33269   5.549   1.951   3.368  0.2428 -0.1568  0.1151
13736W        W33270  16.118   1.510  13.159  0.0629 -0.2596  0.1150
13737W        W33271   4.893   2.792   2.275  0.0771  0.2831  0.1035
13738W        W33272  18.558   8.661   1.723 -0.0806 -0.0098  0.0830
13739W        W33273   0.008  17.238  11.448 -0.0723  0.1472  0.0176
13740W        W33274  18.756   4.493  12.098 -0.2831 -0.1831 -0.1323
13741W        W33275  11.202  13.810  13.624  0.1654 -0.3258 -0.0082
13742W        W33276  10.771   3.659  11.095 -0.0546 -0.0077  0.1647
13743W        W33277  12.237   7.815   0.557  0.1591 -0.0568 -0.3336
13744W        W33278   2.646   5.344  11.712  0.1139 -0.2695 -0.1667
13745W        W33279   9.876  15.234   1.699 -0.1668  0.1372  0.0351
13746W        W33280  17.237  14.620  12.391  0.3236 -0.1007 -0.1336
13747W        W33281   4.396   4.972   3.241  0.4115  0.0212 -0.2525
13748W        W33282  16.871   2.647   1.030 -0.0224  0.1988 -0.0232
13749W        W33283  15.731   3.918  12.267 -0.1642 -0.1048 -0.0343
13750W        W33284   3.006   6.205  11.867 -0.2301 -0.3052 -0.0526
13751W        W33285  13.910  18.482   3.509 -0.0568 -0.1043  0.3718
13752W        W33286  17.324   0.326  11.482 -0.0136  0.1284  0.3574
13753W        W33287   3.955  12.559  13.375  0.2984 -0.1203  0.2433
13754W        W33288  11.060  10.311  12.647 -0.0258 -0.0334 -0.0967
13755W        W33289   3.735   6.309  12.575 -0.0092  0.2991 -0.1302
13756W        W33290   6.457   1.487   4.237 -0.0956  0.1735 -0.1393
13757W        W33291  18.592  13.083  14.245 -0.1535  0.0497 -0.2510
13758W        W33292   7.970   8.530  11.925 -0.1834  0.1588  0.1308
13759W        W33293   2.439   3.339   1.286  0.1471  0.3472  0.2404
13760W        W33294   2.851  14.988  14.339  0.0292 -0.1635 -0.0681
13761W        W33295   2.807   6.040  12.312  0.1858 -0.1583  0.0229
13762W        W33296   0.089   1.498  12.344  0.0924 -0.2053  0.1000
13763W        W33297  12.988   5.996   0.603  0.2686 -0.1497 -0.0206
13764W        W33298   9.659   2.643  10.919  0.1087 -0.1489  0.0017
13765W        W33299   7.113  11.797   2.175  0.0660  0.2255 -0.0403
13766W        W33300   1.100   3.953   2.747  0.1411 -0.1796  0.0026
13767W        W33301   6.715  16.085   0.894 -0.0789  0.1190  0.1401
13768W        W33302  10.782  14.840   1.448  0.1169 -0.2037  0.3059
13769W        W33303  11.907  16.394  13.729 -0.0457  0.2001 -0.0297
13770W        W33304  12.618  13.595   2.277 -0.0169 -0.0010  0.1370
13771W        W33305   9.706  13.560  13.313  0.1934  0.0395  0.1965
13772W        W33306   5.460  16.262   3.484  0.0940  0.1992 -0.2245
13773W        W33307   1.287   5.584   3.823 -0.2060  0.1983  0.1715
13774W        W33308  11.535  18.862   0.168  0.1436 -0.2896 -0.0223
13775W        W33309   6.254  16.137  14.783 -0.0118  0.0152 -0.2000
13776W        W33310   2.924   6.631  10.658 -0.0154  0.2717 -0.0550
13777W        W33311  16.043   3.533   1.823  0.1014  0.1270  0.0746
13778W        W33312   5.285  13.854  13.085 -0.0833  0.3314  0.0770
13779W        W33313  18.093  16.148   3.495  0.0374 -0.2071  0.0052
13780W        W33314  13.278   3.864  13.902  0.0095 -0.1481 -0.1905
13781W        W33315   5.199   4.224  11.884  0.1486  0.0757  0.2546
13782W        W33316   5.786  15.980   1.495 -0.3220  0.2633 -0.1130
13783W        W33317  12.268   5.601  10.419  0.1470  0.1739 -0.0711
13784W        W33318   2.162  14.193  14.663 -0.1238 -0.1563  0.0026
13785W        W33319  10.872  11.656  12.716 -0.1937  0.2822 -0.2479
13786W        W33320   9.136  11.512   9.934 -0.1211  0.0533 -0.4646
13787W        W33321   1.297   5.646  10.461  0.0304 -0.2731  0.1656
13788W        W33322  14.812  17.040  13.624  0.0187 -0.1562  0.3340
13789W        W33323   0.595  18.116  10.822 -0.1177 -0.3676  0.0679
13790W        W33324  17.410   6.346  12.372 -0.1320 -0.0505  0.0303
13791W        W33325   8.859  13.893  13.487 -0.3561  0.2579 -0.1070
13792W        W33326  11.160   7.931   3.494 -0.0496  0.0815 -0.1847
13793W        W33327  18.327   8.285   2.764  0.2041 -0.3202  0.0182
13794W        W33328   2.826  12.103  13.252  0.1318  0.1811 -0.0766
13795W        W33329  14.080  14.737  13.572 -0.0065 -0.0496 -0.1532
13796W        W33330  15.256   3.590   4.012  0.1079 -0.1893  0.0115
13797W        W33331   2.159   6.315  11.210  0.2541  0.0082 -0.2012
13798W        W33332  16.877   7.919   1.319 -0.0070  0.0158  0.0936
13799W        W33333   0.316   5.957  12.954 -0.1822  0.0049 -0.1237
13800W        W33334  18.945  10.429   4.378  0.1929 -0.0723 -0.2888
13801W        W33335  15.884   3.139   3.253  0.1126 -0.1486 -0.0752
13802W        W33336   9.558  16.267  12.250  0.3822  0.3429  0.3392
13803W        W33337  15.078   2.599   2.029  0.2684 -0.3583 -0.2313
13804W        W33338  18.120  15.138  11.966  0.2423  0.2015 -0.1222
13805W        W33339   7.139  11.296   2.307 -0.1440 -0.3463 -0.1648
13806W        W33340  17.866  11.105  12.600  0.0244  0.0152 -0.3119
13807W        W33341  18.131   7.265   3.013 -0.1609 -0.1966  0.0830
13808W        W33342  13.273  16.932  11.519 -0.0320 -0.0686 -0.0591
13809W        W33343   2.325  13.541   2.499  0.1774 -0.0337  0.0016
13810W        W33344   4.627  16.977   2.401  0.1634 -0.2412  0.0496
13811W        W33345   1.329  12.942   0.611 -0.1344 -0.1815  0.2264
13812W        W33346   8.271  14.645  12.662  0.0686  0.0924 -0.0894
13813W        W33347   3.376   0.976  10.330  0.2133 -0.2878  0.0297
13814W        W33348  17.534   8.362   2.294 -0.0252 -0.0632 -0.0218
13815W        W33349  11.398  14.187  14.421 -0.3959  0.2550 -0.1470
13816W        W33350   8.951  14.097  11.426  0.0561 -0.0074  0.0984
13817W        W33351  13.619  14.785   3.357  0.0721 -0.0284 -0.2910
13818W        W33352   2.677   8.049  14.530 -0.2152 -0.3421 -0.3776
13819W        W33353  17.192   9.506   3.062 -0.1660  0.1213 -0.2239
13820W        W33354   0.078  18.913  11.196  0.0120  0.1490  0.1463
13821W        W33355   6.280  16.088  11.457  0.2314 -0.0962  0.1342
13822W        W33356   5.901   7.409   1.182  0.2756 -0.1023  0.1555
13823W        W33357  11.639   3.870   2.552 -0.0936  0.0588  0.1561
13824W        W33358  12.483  18.431  12.063 -0.0324 -0.2887 -0.0447
13825W        W33359   2.163  14.332  11.204  0.0649 -0.1032  0.0612
13826W        W33360   2.147  12.182   1.922  0.0667  0.0386 -0.1283
13827W        W33361   3.669   4.038  13.232  0.1679 -0.1210  0.0398
13828W        W33362   9.699  12.779   3.410 -0.0343  0.0156  0.0136
13829W        W33363  18.401   2.253   3.107 -0.0481 -0.0974 -0.3223
13830W        W33364  12.409   4.815   0.687  0.1622 -0.0949  0.0401
13831W        W33365   8.841   0.175   1.272 -0.0818 -0.3053  0.1175
13832W        W33366  12.988   5.520  13.509  0.2075 -0.0799  0.2185
13833W        W33367  10.327  16.571   3.653  0.4582  0.0722  0.0425
13834W        W33368   1.421   1.887  13.111 -0.0199  0.2323  0.2025
13835W        W33369   5.242  11.838  12.497 -0.0288 -0.0519 -0.1527
13836W        W33370  11.107  18.717  14.101 -0.3379 -0.0049 -0.0747
13837W        W33371  16.174   8.159   1.402  0.1187 -0.0838  0.3076
13838W        W33372   4.919   3.552  13.901  0.2432 -0.3958 -0.3989
13839W        W33373  16.942   5.619  11.077  0.3011 -0.0248  0.0692
13840W        W33374   6.243  15.823   1.241 -0.3177  0.1634  0.0897
13841W        W33375   9.143   1.412   0.323 -0.0888 -0.0897 -0.0369
13842W        W33376   7.582   0.643  11.122 -0.0609 -0.1583  0.0379
13843W        W33377  17.593   2.155   9.305 -0.0305  0.2965 -0.1186
13844W        W33378  17.114  14.241   0.122  0.1376  0.0729 -0.1137
13845W        W33379  19.115  13.665   0.162  0.1971 -0.2730 -0.0968
13846W        W33380   0.102   3.678  11.276  0.0956  0.1641 -0.1870
13847W        W33381  12.282  10.432  12.175  0.0927 -0.0164 -0.4530
13848W        W33382  17.470  14.413  13.292 -0.0548  0.2757 -0.1739
13849W        W33383  17.276   1.605  12.801 -0.1606  0.2565 -0.0760
13850W        W33384  14.502   5.786   4.354  0.3796  0.0880  0.5255
13851W        W33385  16.437  11.041  13.362  0.3067 -0.1041 -0.1709
13852W        W33386   3.687   5.868   1.519  0.1548  0.0930 -0.1617
13853W        W33387  12.484  18.622  11.205 -0.1590 -0.0264 -0.0705
13854W        W33388  17.654  16.613  10.790  0.0993 -0.2277 -0.1957
13855W        W33389  13.488  16.659  12.380  0.1316  0.0733 -0.0924
13856W        W33390  13.494   2.666   0.881 -0.0063  0.2667  0.1119
13857W        W33391   6.365  14.726   0.145 -0.1211 -0.1897 -0.2439
13858W        W33392   2.098   5.936   0.512  0.1618 -0.1696  0.3540
13859W        W33393   1.003   7.410  13.602 -0.3523 -0.1721  0.1286
13860W        W33394  17.648  13.648   3.004  0.0708 -0.2450  0.3083
13861W        W33395   0.744   2.180   3.243 -0.2293  0.1408  0.1408
13862W        W33396  14.868   3.683  10.637 -0.1482  0.1450 -0.1207
13863W        W33397  13.018   2.074  10.122  0.0917  0.1652  0.2076
13864W        W33398  10.973  11.595   4.658 -0.0575 -0.1295  0.2364
13865W        W33399  18.422  11.752  10.736 -0.0263  0.0700 -0.0033
13866W        W33400   9.651  16.897   3.520 -0.1497 -0.0672  0.0907
13867W        W33401   2.198  17.478   1.015 -0.0724 -0.0094 -0.2038
13868W        W33402  18.735  18.125  14.618 -0.1914 -0.0230  0.0453
13869W        W33403   8.034   3.320  13.246 -0.0903  0.1805 -0.1977
13870W        W33404   6.662  14.685  14.491  0.0394  0.2210  0.0819
13871W        W33405   3.420   0.266   1.095  0.1363  0.2965 -0.0613
13872W        W33406   4.427   3.209   2.821 -0.2401 -0.0173  0.2035
13873W        W33407  15.899  18.511  14.236 -0.1011 -0.0735  0.0937
13874W        W33408   5.836   0.640  11.641  0.1334 -0.0447  0.1604
13875W        W33409  10.073  18.571   4.423  0.3699  0.1754 -0.0149
13876W        W33410   7.410  14.892  12.719  0.0999  0.1756  0.2894
13877W        W33411   9.999  16.186   2.624  0.1611  0.0592  0.0623
13878W        W33412   7.653   6.820   4.111  0.2362 -0.0260  0.1107
13879W        W33413  16.356  10.102   3.399  0.0646  0.0328 -0.2305
13880W        W33414  10.138  16.530   2.290  0.0016 -0.0591  0.4365
13881W        W33415  12.263   6.956  12.439 -0.2370 -0.1027 -0.2273
13882W        W33416  10.783  16.367   0.045 -0.2989 -0.1106  0.0576
13883W        W33417  19.004   8.255   0.428  0.3238 -0.2222 -0.1322
13884W        W33418  16.418  12.005  14.286  0.1253 -0.1576  0.1261
13885W        W33419  12.221   6.916  14.068 -0.0357  0.0015  0.1989
13886W        W33420  13.322  18.951  12.287  0.2210 -0.2862  0.1338
13887W        W33421  10.932  17.463  14.286 -0.2510  0.1337 -0.0025
13888W        W33422  18.737  11.303  12.114  0.0393 -0.1161  0.0326
13889W        W33423  13.141   0.941  12.094  0.2119  0.0898  0.0716
13890W        W33424  18.449  16.576  12.772  0.0005 -0.2429  0.1602
13891W        W33425   1.605  18.934   2.308 -0.1681 -0.0369 -0.0077
13892W        W33426  16.250  16.047  13.623  0.2065 -0.2012  0.1524
13893W        W33427  13.978   1.753   2.987 -0.0907 -0.0665 -0.1489
13894W        W33428   7.196   1.899   0.278  0.2335 -0.0114 -0.3678
13895W        W33429  16.313   6.746   2.432  0.1088  0.2591 -0.0611
13896W        W33430   0.261  18.702   1.773 -0.1511 -0.0449  0.0640
13897W        W33431   9.462   0.393   1.834  0.2139  0.2995 -0.2774
13898W        W33432   0.713   4.972  13.785  0.4280 -0.0072 -0.0073
13899W        W33433  13.711  15.495   0.647 -0.0418 -0.1890 -0.0193
13900W        W33434  12.493   7.361  12.564  0.0881 -0.0802  0.0255
13901W        W33435   9.448  11.145  12.288  0.4317 -0.1911  0.1504
13902W        W33436   1.246   1.235  12.002 -0.2113  0.2621 -0.1658
13903W        W33437  11.609   9.221  13.956  0.3696  0.0191  0.2690
13904W        W33438  10.738  14.795   0.371 -0.1468 -0.0382  0.0879
13905W        W33439   5.428   4.987   4.214  0.2075 -0.0781 -0.0186
13906W        W33440  12.120  16.343  12.741  0.1625  0.0843 -0.1391
13907W        W33441  18.394   4.335   1.766 -0.2388 -0.0314 -0.1092
13908W        W33442  12.879   2.107  11.865 -0.0103  0.0847  0.1672
13909W        W33443   3.336   8.116  13.030  0.0372 -0.0092 -0.1937
13910W        W33444   4.237  12.402   0.046  0.1727 -0.2049  0.1911
13911W        W33445   9.180   3.489  13.328  0.1663  0.2125  0.2864
13912W        W33446  11.794  10.581   3.782  0.1938  0.0579 -0.1733
13913W        W33447   2.784   8.582  14.254 -0.0882  0.1408 -0.1375
13914W        W33448  17.520   9.043   0.263 -0.0367 -0.1084  0.0747
13915W        W33449  17.932  11.434  11.661 -0.0520  0.2399 -0.1930
13916W        W33450   1.623   1.144   0.188  0.0640  0.1926 -0.1007
13917W        W33451   6.423  11.322   0.828  0.0045 -0.0007 -0.1139
13918W        W33452   0.490   0.770   0.202 -0.1772 -0.1198 -0.3085
13919W        W33453  12.718  12.601   1.278 -0.4468 -0.0511 -0.1900
13920W        W33454   4.122  17.710   4.143  0.0421  0.0835  0.0876
13921W        W33455   1.975  13.277   4.457 -0.0680 -0.3063 -0.0776
13922W        W33456  18.649   3.514   3.423  0.0321 -0.0003 -0.2326
13923W        W33457  15.301   0.420  12.405 -0.1660  0.1069 -0.1490
13924W        W33458   4.444  14.124  12.107 -0.0776  0.0478 -0.1173
13925W        W33459   0.279   1.477   0.825 -0.0146  0.1313 -0.0157
13926W        W33460   7.572   1.729  12.357 -0.0627  0.1369  0.1180
13927W        W33461   9.505  14.836   1.248  0.2264  0.3069  0.0376
13928W        W33462  11.833  17.667  12.062  0.1387  0.0688 -0.2419
13929W        W33463   9.106  18.980  10.734  0.0745 -0.0947  0.1447
13930W        W33464   5.497  16.833   2.745 -0.0604 -0.1632  0.0756
13931W        W33465   3.126  14.648   3.712  0.0090  0.0766 -0.0450
13932W        W33466   6.876   3.141   3.900 -0.0729  0.2323  0.1689
13933W        W33467   2.750  17.852   2.942 -0.1136  0.1843  0.1659
13934W        W33468  15.619   8.494  10.896 -0.2040  0.1742 -0.2440
13935W        W33469   5.959  13.705  13.621 -0.1675 -0.1464 -0.0647
13936W        W33470  14.697  16.734   2.561  0.1348  0.2938 -0.2214
13937W        W33471   2.091  15.602  11.017  0.2702 -0.0251 -0.1139
13938W        W33472   9.209   0.784  12.095 -0.0208  0.0778  0.1359
13939W        W33473  17.281  16.215   2.558 -0.1028 -0.1710 -0.1358
13940W        W33474   7.688  12.859  13.649 -0.0737  0.4292 -0.1050
13941W        W33475  12.502   6.594  12.733 -0.0114  0.1388  0.1094
13942W        W33476  17.201   1.251  14.502  0.0538  0.2468  0.1706
13943W        W33477  12.187   8.180   3.642 -0.4178 -0.2925 -0.0497
13944W        W33478   8.529   1.910  10.640 -0.1105  0.0699 -0.0290
13945W        W33479   2.329  15.282   4.129  0.1187  0.1311 -0.2571
13946W        W33480   6.713   3.907  13.991  0.2028 -0.1261 -0.1722
13947W        W33481  17.664   7.959   1.963 -0.0737 -0.3292  0.0659
13948W        W33482  13.524   3.513   2.641  0.0808  0.0100 -0.0304
13949W        W33483  16.125   4.064   0.492  0.3451  0.1104  0.0286
13950W        W33484   9.590   7.217   0.785 -0.0638  0.0234 -0.0143
13951W        W33485   9.732  12.807   0.128 -0.2045 -0.0148  0.1238
13952W        W33486   9.444  18.771  12.591 -0.1398  0.2177  0.3762
13953W        W33487  15.681   4.632  10.611  0.0152 -0.1947  0.2133
13954W        W33488  17.136   2.293  14.092 -0.0356  0.1782 -0.1053
13955W        W33489   7.023  11.463   3.122  0.1309 -0.3435  0.2196
13956W        W33490   6.221  11.167   3.433  0.4585 -0.1878  0.3716
13957W        W33491   9.717  10.322  10.363  0.1096 -0.1038  0.3201
13958W        W33492   0.969  12.089   0.206 -0.1958 -0.1283  0.1925
13959W        W33493  10.154   1.026  13.903  0.2671  0.0665 -0.1781
13960W        W33494   8.237  12.186  10.846  0.1635 -0.1728  0.0130
13961W        W33495  18.052  12.972   2.401  0.0600  0.2745  0.1638
13962W        W33496  12.182  10.011   1.709 -0.0329 -0.0160 -0.0609
13963W        W33497  18.494  12.549  11.174 -0.0165  0.2206  0.0789
13964W        W33498  18.149   4.031  11.362 -0.2384  0.1223  0.1615
13965W        W33499   6.895  11.153   1.813 -0.1818 -0.3095  0.0304
13966W        W33500  13.447  15.728   9.946  0.0233  0.0594  0.0866
13967W        W33501   9.780  16.556   3.184 -0.2600  0.0918 -0.1464
13968W        W33502   3.113   9.392   3.465  0.0071 -0.2650  0.0767
13969W        W33503   5.450  14.756   0.448 -0.0056 -0.0971  0.2192
13970W        W33504   3.144  11.617  11.735 -0.1838  0.0535 -0.0025
13971W        W33505  10.567  11.857   3.344 -0.0076  0.2637  0.1322
13972W        W33506   6.592   4.907  13.994 -0.0254 -0.1054  0.0315
13973W        W33507   7.000   4.703  11.562 -0.1543 -0.2206  0.0370
13974W        W33508   8.629   5.533   2.534  0.3361 -0.0105 -0.0132
13975W        W33509  15.758   9.768   9.798  0.0343 -0.0535 -0.2595
13976W        W33510  14.148   5.275  11.419  0.0376  0.1447 -0.0266
13977W        W33511   6.156  16.602  11.249  0.1122 -0.1924 -0.1682
13978W        W33512   5.109   5.707   2.161 -0.0525  0.0839  0.1088
13979W        W33513  13.256  10.097   0.221  0.0022  0.0417 -0.1090
13980W        W33514   0.602  13.780  13.743  0.1789 -0.0553  0.0035
13981W        W33515  14.575   6.946  14.427  0.5530  0.0946 -0.1237
13982W        W33516  13.248   7.491   0.853 -0.0466 -0.0371 -0.1277
13983W        W33517  10.744  13.317  11.786 -0.3224 -0.0028 -0.2031
13984W        W33518   2.525   5.356  10.495  0.1810 -0.1080  0.0078
13985W        W33519  16.282  16.832  12.361  0.2251  0.0470 -0.1026
13986W        W33520   4.418   4.200   3.924 -0.0530  0.2578  0.0407
13987W        W33521  14.345   2.049   0.295 -0.3296  0.0380  0.0515
13988W        W33522  13.210  18.098   2.018 -0.4567  0.1897  0.0690
13989W        W33523  17.092   3.519  11.633 -0.0509 -0.1271 -0.3799
13990W        W33524  18.585  14.237   3.798 -0.1897 -0.1138 -0.0491
13991W        W33525  13.586   0.905  12.969  0.2519  0.3129  0.0379
13992W        W33526   5.710  14.866  14.385 -0.1090  0.0671  0.2773
13993W        W33527  12.813  16.086   2.475  0.3879 -0.2828 -0.1876
13994W        W33528  11.555  13.692  11.989  0.0365 -0.2824  0.0560
13995W        W33529  14.968   0.258   3.606  0.1432  0.1244 -0.0059
13996W        W33530   6.917  16.423   2.916 -0.0091 -0.0104 -0.1385
13997W        W33531   4.978  16.998   2.770  0.0841  0.1774 -0.1224
13998W        W33532  13.194   2.445   1.740  0.0464 -0.2285  0.0977
13999W        W33533  10.814  19.052   3.380  0.0681 -0.1483  0.2737
14000W        W33534  19.005   5.238   2.503 -0.2529 -0.2030 -0.0344
14001W        W33535   7.691   5.140   3.645  0.1443 -0.0348 -0.1071
14002W        W33536   2.530  11.302   0.931  0.2440  0.0842  0.3054
14003W        W33537  16.355  14.550  12.694  0.4242  0.2276  0.0520
14004W        W33538   9.846  11.219  13.584  0.0683  0.0794  0.0481
14005W        W33539  15.375  12.722   2.660  0.3279  0.1426 -0.1536
14006W        W33540   1.362   6.691   1.319 -0.0909 -0.0828 -0.1578
14007W        W33541   3.801  13.295  11.583 -0.0729 -0.0856 -0.4078
14008W        W33542  18.681  17.392  13.361 -0.1477 -0.4042  0.1766
14009W        W33543  18.184   7.067   2.298  0.3247 -0.0223  0.0371
14010W        W33544   9.178  13.526  13.175  0.0418  0.0279 -0.0012
14011W        W33545  12.584  11.056   9.925 -0.1818 -0.1346  0.1378
14012W        W33546  11.993  13.865  12.681 -0.2853  0.2301  0.0774
14013W        W33547   4.407   4.118   0.815 -0.1105  0.1788  0.2257
14014W        W33548   9.797   1.747  14.137 -0.0985  0.0071  0.2668
14015W        W33549   6.939   5.795  12.887 -0.2934 -0.2154 -0.1158
14016W        W33550  18.376  17.299   0.394  0.0033  0.1020 -0.0845
14017W        W33551  18.237   1.575  10.835  0.1975  0.0413 -0.1338
14018W        W33552   7.804   8.914  10.397  0.0146 -0.3752  0.1720
14019W        W33553   8.618   5.159   2.014 -0.0331 -0.0996  0.3451
14020W        W33554  14.455  18.711  11.914 -0.1559 -0.0663  0.2818
14021W        W33555  12.522  14.678  14.390 -0.0195 -0.3781 -0.0598
14022W        W33556  18.604  11.445   1.216 -0.1799 -0.2864 -0.0378
14023W        W33557   4.371  10.487  13.322  0.2328  0.0745  0.1796
14024W        W33558   1.539  10.047   3.831  0.0131  0.0788  0.1465
14025W        W33559   0.215  18.205   4.263  0.0121  0.1400  0.0992
14026W        W33560   4.110   4.446   0.174 -0.4577 -0.2303 -0.0386
14027W        W33561  17.227  10.426  11.292 -0.0384  0.2171  0.1434
14028W        W33562  13.553  17.171   0.170  0.2892 -0.0903  0.1139
14029W        W33563  14.130   7.652   1.719 -0.0794 -0.1235 -0.2787
14030W        W33564  11.024  17.882   1.163 -0.0736  0.1267  0.0597
14031W        W33565  15.797   2.031  13.164 -0.0935  0.0077 -0.0358
14032W        W33566  11.194  16.677  13.145 -0.3253 -0.0036 -0.0051
14033W        W33567   9.591   0.010  12.263  0.1632  0.0222 -0.1030
14034W        W33568  16.082   6.041  12.320 -0.0369  0.0522 -0.0247
14035W        W33569  16.343  14.010   0.547  0.0246 -0.1219  0.3560
14036W        W33570  13.261  11.359   3.233  0.0452 -0.0610  0.1583
14037W        W33571   9.150  10.403  13.705 -0.0820  0.0056  0.1635
14038W        W33572   4.675  15.246   1.666 -0.0236 -0.0189 -0.2939
14039W        W33573  18.548  17.354  12.459 -0.3453  0.0516 -0.3632
14040W        W33574   3.317   4.035  14.141  0.0834 -0.0424  0.1524
14041W        W33575   0.173  13.998  12.019 -0.2126 -0.0715  0.2609
14042W        W33576   4.111   9.213   0.995 -0.1783  0.0982 -0.0548
14043W        W33577  13.396  13.664   4.199 -0.3391  0.0988  0.0451
14044W        W33578   7.952   3.759   4.122 -0.1790 -0.0387 -0.0511
14045W        W33579  15.601   0.759   3.176  0.2941  0.2143 -0.1155
14046W        W33580   5.981  18.610  11.253 -0.0842  0.0130  0.0628
14047W        W33581  12.899   9.050  11.548 -0.2142  0.0705 -0.0163
14048W        W33582   2.830  12.169   1.839  0.0317 -0.0704  0.1161
14049W        W33583  17.433   9.392   1.042  0.0436  0.4317  0.1659
14050W        W33584   2.112   0.147  10.711  0.0932  0.3061  0.0174
14051W        W33585  11.080   3.928  12.635 -0.0087  0.0473 -0.0380
14052W        W33586  11.959  15.866  13.668  0.1186 -0.3415 -0.0865
14053W        W33587   3.516  15.499   1.712 -0.0951  0.4207  0.1475
14054W        W33588   2.126   4.544  14.214  0.0907  0.1496 -0.0069
14055W        W33589  14.244   7.030  12.644 -0.0073 -0.0699 -0.0632
14056W        W33590   9.758   8.887   1.080  0.1626  0.2345  0.0864
14057W        W33591   3.116   2.059   0.064  0.1113  0.0890  0.1792
14058W        W33592   0.297   1.164   2.373 -0.1757  0.1313  0.1192
14059W        W33593   3.832  17.502  14.825 -0.1362 -0.0972 -0.2872
14060W        W33594  13.296  18.702  11.284 -0.1269 -0.1940 -0.1021
14061W        W33595   5.743   1.860  12.168 -0.1377  0.1271  0.1125
14062W        W33596  11.115   7.449  10.565 -0.1399 -0.0405 -0.0469
14063W        W33597   3.444   7.441  11.555  0.3197 -0.3033  0.1529
14064W        W33598   0.806  16.155   0.264 -0.3372 -0.2526 -0.0691
14065W        W33599  13.224  18.971  14.215  0.1905 -0.3602 -0.0632
14066W        W33600   5.225   6.152   0.018  0.0172 -0.2670  0.0216
14067W        W33601   8.395   3.548  12.255 -0.0775  0.0203 -0.0410
14068W        W33602   3.805   2.180  13.611 -0.2106  0.1076  0.2153
14069W        W33603  16.099  15.070   4.276 -0.1917 -0.1015 -0.5137
14070W        W33604   8.257  16.956  13.290 -0.0640  0.0038  0.2119
14071W        W33605   4.482  13.293   4.388 -0.0799  0.2146 -0.0984
14072W        W33606  18.412   8.811  10.598 -0.2943 -0.0825 -0.0759
14073W        W33607   2.616  10.049   2.794  0.2521 -0.1215  0.3938
14074W        W33608   7.593   3.662   4.437  0.0747 -0.1499 -0.0026
14075W        W33609  16.918  16.327   3.809  0.1788  0.1448  0.0531
14076W        W33610  15.695  10.415   3.401 -0.0643  0.0458  0.1702
14077W        W33611  10.825   8.575   1.628  0.0750 -0.0199 -0.0474
14078W        W33612   2.665   6.012   3.846  0.1427  0.0732  0.0402
14079W        W33613  11.780  18.367   4.320 -0.1514  0.0268 -0.1922
14080W        W33614   3.312   2.760  11.932 -0.1758 -0.2153  0.0325
14081W        W33615  16.782  17.463  11.921  0.0953 -0.0766 -0.1521
14082W        W33616  17.877   8.332   0.169  0.3249 -0.2301 -0.2299
14083W        W33617   3.808  16.519   0.100 -0.2028  0.2861  0.0988
14084W        W33618   0.761  12.716   0.964 -0.1150 -0.1514 -0.0573
14085W        W33619   4.390   6.657   1.941 -0.1536  0.0877 -0.0143
14086W        W33620  13.353   7.684  11.058  0.1652  0.1679  0.1513
14087W        W33621   1.926   0.312   0.342 -0.3361  0.0555  0.2996
14088W        W33622  15.578  11.532  11.573  0.1246  0.1236 -0.0807
14089W        W33623   8.825   8.787   0.829  0.0161 -0.0154 -0.0286
14090W        W33624   1.599   8.893   4.986  0.1848 -0.1287 -0.2323
14091W        W33625   2.249   0.748  13.534  0.2600 -0.1372 -0.1236
14092W        W33626   7.168   3.050   1.064  0.0487 -0.1333  0.1226
14093W        W33627  17.942  13.281  13.746  0.0275 -0.0492 -0.0381
14094W        W33628  10.744  10.734  14.179 -0.2297 -0.0955  0.0063
14095W        W33629   2.633   2.095  11.219  0.1429  0.0065  0.5245
14096W        W33630   0.170   2.380  14.430 -0.0622  0.0483 -0.4957
14097W        W33631   0.267  10.862   4.025  0.1311  0.0289  0.1402
14098W        W33632  15.588   1.081   1.057  0.0250 -0.0172 -0.1350
14099W        W33633   3.156   0.240  12.490  0.0816  0.2694 -0.2277
14100W        W33634  14.598   4.679  13.109  0.0950 -0.2591 -0.0185
14101W        W33635  12.210  13.550  13.451 -0.1141  0.0444  0.1360
14102W        W33636   0.238   6.177   3.679  0.1734  0.3250 -0.2264
14103W        W33637   7.503   3.804   3.960  0.1380 -0.0287  0.4294
14104W        W33638   2.781   3.016  11.358  0.2407 -0.1627 -0.0664
14105W        W33639  11.033   2.240   3.857  0.0882  0.1453  0.0594
14106W        W33640  18.119  15.496   1.229 -0.0417 -0.2836 -0.1729
14107W        W33641  17.991  18.152  12.606 -0.4192 -0.0926  0.0810
14108W        W33642  15.090  13.511   2.569  0.1374  0.0442  0.2071
14109W        W33643  13.068   2.430   1.107 -0.0020  0.0122 -0.1004
14110W        W33644  12.383  13.831  14.584  0.0094 -0.0713 -0.1039
14111W        W33645  12.961  17.765  11.101 -0.0076 -0.2277 -0.1149
14112W        W33646  18.256  12.016  11.875  0.1755 -0.1729  0.0600
14113W        W33647  15.830   2.426   0.960 -0.0243  0.0611  0.1394
14114W        W33648   8.947  14.701   2.662  0.3034  0.4305 -0.2927
14115W        W33649   8.530   1.698   1.648 -0.3220  0.0692 -0.5342
14116W        W33650  17.118   2.503  11.923  0.1982  0.0120  0.0342
14117W        W33651   6.108   6.042  12.335 -0.1585  0.1290  0.0654
14118W        W33652  15.992  13.521  10.411  0.0734 -0.1695 -0.0738
14119W        W33653  18.087  15.249   1.663  0.1921 -0.0973 -0.0130
14120W        W33654  18.738   8.322  11.520  0.2693 -0.2335  0.1759
14121W        W33655  12.533   9.145  11.200 -0.1056  0.0887 -0.0851
14122W        W33656   6.454   2.143   2.284 -0.2077 -0.0653  0.0497
14123W        W33657   9.130   9.671  10.842 -0.2661 -0.0513  0.1145
14124W        W33658   6.457   0.870   3.441  0.3240  0.1573  0.0677
14125W        W33659   6.085  11.942  12.296  0.0537  0.0828 -0.1374
14126W        W33660   0.869  12.030   1.223 -0.0125 -0.4172 -0.0364
14127W        W33661  15.449   6.459   0.766 -0.2158  0.1172 -0.2417
14128W        W33662   4.182  18.659  12.792  0.0152  0.0106 -0.1623
14129W        W33663   6.820  12.934   3.095  0.2488 -0.1164 -0.0109
14130W        W33664   6.837   9.169   3.141  0.0024  0.0151 -0.0017
14131W        W33665  18.458   7.314  14.680  0.0147  0.3615 -0.1347
14132W        W33666   3.284  15.275   2.260  0.0657  0.2612  0.2652
14133W        W33667   9.419  15.456   0.526  0.1431 -0.1832 -0.0988
14134W        W33668  17.341  16.900  14.612  0.0344  0.1705 -0.0900
14135W        W33669  12.081   1.999  13.545 -0.0539  0.2464 -0.1977
14136W        W33670   9.592   1.267  11.361  0.1845  0.1659 -0.0137
14137W        W33671  12.294  10.455   3.931 -0.0229  0.2528 -0.1597
14138W        W33672   0.226  11.960  12.856  0.0059  0.1488  0.0985
14139W        W33673   8.291  13.691   4.323  0.1885 -0.1835  0.0358
14140W        W33674   7.559   8.147  12.017 -0.0378 -0.1868 -0.2349
14141W        W33675  11.891   8.868   2.368  0.0833  0.2800  0.2511
14142W        W33676  16.548   8.174  12.248 -0.2257  0.1297 -0.1389
14143W        W33677  10.725   0.687   3.987  0.1465  0.3107  0.1195
14144W        W33678   0.182  12.388  13.954 -0.1845  0.0733 -0.1767
14145W        W33679  14.731   7.896  12.969  0.1359  0.0267 -0.0412
14146W        W33680   3.371  11.529  10.780 -0.1045  0.3074 -0.0009
14147W        W33681   7.207   3.892   3.365 -0.2663  0.0734  0.0503
14148W        W33682  15.911   6.603  11.134 -0.2507 -0.2143  0.1931
14149W        W33683   1.562   3.679   1.052  0.2474  0.1899 -0.2041
14150W        W33684   2.904   5.525   2.823 -0.0496 -0.2579  0.1821
14151W        W33685  13.129  10.960   9.704 -0.2757  0.1172  0.4642
14152W        W33686  13.562  12.859   1.775  0.2487  0.4612  0.0704
14153W        W33687   3.689  13.072   2.795  0.0126 -0.1923 -0.1803
14154W        W33688  14.759  11.746   4.330 -0.1481 -0.2593 -0.3107
14155W        W33689   7.303  17.179  13.661 -0.4939 -0.1058 -0.2485
14156W        W33690  15.567   0.473   2.464 -0.1525  0.0416 -0.1899
14157W        W33691   9.350  15.181   1.511  0.1738 -0.1744 -0.2477
14158W        W33692   7.638  14.625  12.132  0.3002 -0.2797  0.4067
14159W        W33693   6.864   2.141   2.966 -0.2495  0.0410  0.1897
14160W        W33694  11.278   0.257   1.394 -0.1644 -0.2193  0.0515
14161W        W33695  15.027   2.855   4.615 -0.1106  0.1536 -0.3807
14162W        W33696   3.984   6.862   2.388  0.3010  0.1198 -0.0699
14163W        W33697  13.799   7.254  12.885 -0.0189  0.2412  0.0569
14164W        W33698   4.328   4.367   1.820 -0.1340  0.2934  0.3940
14165W        W33699  18.071  14.934  13.549 -0.2839  0.0066 -0.0826
14166W        W33700   7.213   8.655  12.897 -0.2053 -0.3238  0.2043
14167W        W33701  11.242   0.126   3.608 -0.0991 -0.1434  0.0521
14168W        W33702   7.153  15.391  11.538  0.1643 -0.3769 -0.0247
14169W        W33703  11.109  11.473  13.525 -0.1099  0.2598 -0.3333
14170W        W33704   4.346  15.591  11.347  0.1368 -0.2113  0.0805
14171W        W33705   4.186  17.045  11.939 -0.0680 -0.3412  0.0866
14172W        W33706   9.734  10.837  10.943  0.1273  0.1590  0.0395
14173W        W33707   2.124   7.159   3.044  0.2441 -0.0721 -0.2107
14174W        W33708   6.953   3.295   2.302 -0.0528  0.1150 -0.0390
14175W        W33709  19.045   8.592   2.025 -0.1990  0.0849 -0.4821
14176W        W33710  16.227   1.857   2.573  0.0318  0.1419  0.2040
14177W        W33711  16.379   1.977   2.071 -0.2076 -0.0016 -0.2597
14178W        W33712  18.319   7.271  12.904 -0.2564  0.1915 -0.0778
14179W        W33713  16.960  12.015  12.493 -0.0835 -0.2022 -0.1202
14180W        W33714  10.830  12.105  10.168 -0.1113 -0.1020 -0.1209
14181W        W33715  15.591   4.777   2.056 -0.2161  0.0006 -0.1771
14182W        W33716   2.891  15.155  11.104 -0.0722  0.1923 -0.2195
14183W        W33717   8.398  16.026  14.535 -0.1459  0.0472  0.0524
14184W        W33718   3.668   3.591   0.809 -0.2187  0.1110  0.0601
14185W        W33719  14.978  13.776  11.154 -0.0090  0.0654 -0.2018
14186W        W33720   7.162   2.586   2.946  0.2016 -0.2671 -0.1756
14187W        W33721   9.355   4.852  11.585 -0.3323  0.0628 -0.0298
14188W        W33722  15.081   3.703   0.080  0.2186 -0.1866 -0.0457
14189W        W33723   3.811  13.494   3.936 -0.0464  0.2951 -0.1821
14190W        W33724  11.026   6.004  13.172  0.1864 -0.1319 -0.0816
14191W        W33725  15.843   3.457  12.505  0.1124 -0.0058 -0.1763
14192W        W33726  16.101  11.090   1.466  0.0940 -0.0251  0.0206
14193W        W33727  19.001   3.994   0.525 -0.1057  0.0971  0.2066
14194W        W33728  13.512   4.627   3.002  0.0769  0.0732 -0.0492
14195W        W33729   6.816   6.681   4.238 -0.0099 -0.2034  0.1170
14196W        W33730  14.459   1.616  11.093  0.0823 -0.1211 -0.2249
14197W        W33731  16.062   0.470  11.601 -0.2812 -0.1715  0.1107
14198W        W33732   3.639  15.553   3.648 -0.0089 -0.4082  0.2923
14199W        W33733   1.132   3.704  10.905  0.0867  0.1974 -0.2467
14200W        W33734  15.159   3.251   3.608  0.3078  0.1915  0.3114
14201W        W33735   4.458  15.709   0.063  0.2571 -0.0513  0.0886
14202W        W33736  10.945   2.761   1.458 -0.0934 -0.0155  0.0228
14203W        W33737  16.610   7.512   4.194 -0.0379 -0.0416 -0.2361
14204W        W33738  16.789   3.440  14.062  0.0006  0.1966  0.2572
14205W        W33739  18.715   9.008   3.906 -0.1988  0.1533  0.2705
14206W        W33740  12.600  12.272   1.655  0.0505  0.0395  0.0052
14207W        W33741  12.234  13.144   1.613 -0.2362 -0.0598  0.1362
14208W        W33742   1.984  18.691   3.502 -0.2042  0.2674  0.0244
14209W        W33743  13.171  16.276  11.984 -0.1207 -0.0058  0.2537
14210W        W33744  16.978  14.470   2.068  0.1837  0.0796 -0.0239
14211W        W33745  14.428  12.751  11.184 -0.2593  0.1821  0.0612
14212W        W33746   0.826  14.826  12.649  0.0291 -0.1415  0.2922
14213W        W33747  17.367   6.953  10.719 -0.1399  0.3272 -0.2608
14214W        W33748   6.123  14.290   1.548  0.0925  0.3516 -0.1483
14215W        W33749  18.327  10.167   0.348 -0.1448  0.1680 -0.1730
14216W        W33750  13.548   9.420  12.215 -0.0199 -0.1162 -0.0720
14217W        W33751   3.633  17.257   5.561  0.0035 -0.0137 -0.2929
14218W        W33752   3.609   1.051   9.408 -0.1515  0.0822 -0.0476
14219W        W33753   6.941   1.001  10.972 -0.2156 -0.1155 -0.1554
14220W        W33754  14.246  14.938   2.026 -0.0849  0.0435 -0.1196
14221W        W33755   1.010   7.036  12.698  0.2222  0.2696 -0.2643
14222W        W33756   2.474   5.093  13.752 -0.0500 -0.3043 -0.0827
14223W        W33757  13.793  17.825   0.769 -0.1458 -0.0669 -0.2003
14224W        W33758  11.585   3.765   1.988 -0.0232  0.0723  0.2539
14225W        W33759  17.455   3.257   3.339  0.0475 -0.0303  0.0406
14226W        W33760   6.360   1.465  11.736  0.0194 -0.1804 -0.1247
14227W        W33761  18.033   5.352   4.281  0.1660  0.1489 -0.0220
14228W        W33762   1.035   5.908   2.835  0.0053  0.0763 -0.0592
14229W        W33763   3.758  17.131   2.436  0.0260  0.0420 -0.1361
14230W        W33764   4.217  14.587   0.962 -0.0332  0.1692  0.0388
14231W        W33765  17.448  14.238  11.110 -0.0208  0.2763  0.2957
14232W        W33766   8.420   6.510  14.377  0.3162  0.1183 -0.0704
14233W        W33767   6.747  12.632  13.368 -0.0678 -0.5287  0.0218
14234W        W33768  18.496  11.566  12.462 -0.2139 -0.1154  0.0874
14235W        W33769   2.520   7.342  12.091 -0.4222  0.0017  0.1043
14236W        W33770  16.258   2.676  12.940  0.2622  0.2186 -0.0207
14237W        W33771  15.022  10.362  14.177 -0.0311  0.2162  0.1023
14238W        W33772  12.957   7.814   3.739 -0.0505  0.2138 -0.2461
14239W        W33773   2.458  16.388   3.122  0.0561  0.0188 -0.2525
14240W        W33774  14.322   2.561   0.658 -0.0647  0.1229 -0.1354
14241W        W33775   2.716   5.720  10.803  0.0859  0.1094 -0.0105
14242W        W33776   7.578   9.637  11.751 -0.2279 -0.1392 -0.0073
14243W        W33777  18.958   7.384   9.570  0.0548 -0.1210 -0.2777
14244W        W33778   1.511   0.928  14.203  0.0512 -0.0714 -0.1565
14245W        W33779  13.860  16.630  13.283  0.1865  0.3507  0.1086
14246W        W33780   4.703   3.266  14.661  0.1681  0.0253 -0.0288
14247W        W33781   7.709  15.252   0.814  0.2722  0.1197 -0.2255
14248W        W33782  18.673   9.710   2.363  0.0568  0.1123  0.0358
14249W        W33783   7.380   8.555  14.255  0.0383 -0.2678 -0.1328
14250W        W33784   5.311  19.100   1.778  0.0017 -0.2683  0.0341
14251W        W33785   3.045   0.588   0.268  0.1071  0.1527  0.2657
14252W        W33786   5.079   2.740   3.258  0.1064 -0.1465 -0.2004
14253W        W33787   3.094   7.354  14.296 -0.3442 -0.2338  0.1323
14254W        W33788   4.592  16.350   4.427 -0.0258  0.2143  0.2032
14255W        W33789  16.802  15.233   1.002 -0.2058 -0.2844  0.1701
14256W        W33790  16.598  14.280   2.462 -0.2344  0.0797  0.2894
14257W        W33791  18.925  12.345   3.574  0.1080 -0.0213 -0.0598
14258W        W33792  15.908   1.792   2.204  0.1545  0.0514 -0.1759
14259W        W33793   3.422   6.573  12.049 -0.0566 -0.2390  0.1358
14260W        W33794   0.842   7.998  13.592 -0.0918 -0.0464  0.1858
14261W        W33795   0.325  13.157   2.968 -0.2503  0.0698  0.2224
14262W        W33796   7.999   1.916  11.402  0.1257  0.1465 -0.0058
14263W        W33797  19.047   6.732   0.935 -0.0985  0.6245 -0.0591
14264W        W33798  11.986   8.351  13.524  0.2059 -0.2656  0.1612
14265W        W33799   8.044   7.677   3.064 -0.1354 -0.2066  0.2151
14266W        W33800   9.576   8.600  10.581  0.1598 -0.2150 -0.1378
14267W        W33801   9.319  17.234  14.680  0.2777 -0.1042 -0.1140
14268W        W33802   7.631  14.015  13.069 -0.1599  0.1906 -0.1596
14269W        W33803   0.335  12.819   1.638  0.0990 -0.0542 -0.0415
14270W        W33804  13.477   7.356  11.407 -0.0311  0.4166 -0.0411
14271W        W33805  17.419   7.139   9.462 -0.2702  0.0227 -0.0901
14272W        W33806   4.266   0.358  13.483 -0.0174 -0.1742 -0.0092
14273W        W33807  11.926  11.477   3.192 -0.0479  0.2544  0.2139
14274W        W33808  13.717   0.359  12.805 -0.1721  0.1350 -0.1140
14275W        W33809  18.840  10.671   3.924 -0.0481 -0.2303  0.0984
14276W        W33810   4.236   8.117   1.105  0.1423  0.0739  0.4029
14277W        W33811  11.046   3.488  13.949  0.0403  0.2506 -0.2529
14278W        W33812   1.226  19.026   3.036 -0.2117 -0.0105 -0.1127
14279W        W33813   4.671   8.027   0.858 -0.1391  0.1979  0.0264
14280W        W33814   7.229  14.627   4.938 -0.3347  0.0086  0.0503
14281W        W33815  14.609  13.601   0.837 -0.1272 -0.0461  0.0059
14282W        W33816   2.861   9.743   0.951  0.0793 -0.0881  0.4299
14283W        W33817  14.834   7.617   4.768 -0.4149  0.0453 -0.1232
14284W        W33818   0.278   1.464  10.351  0.1283 -0.0398 -0.2109
14285W        W33819  12.622   4.933   3.279 -0.1723 -0.1473 -0.2711
14286W        W33820  19.059  16.603   2.555 -0.5206 -0.4200 -0.0175
14287W        W33821  17.429  13.301  11.166 -0.3735  0.1667 -0.0279
14288W        W33822  18.076   5.136  11.863 -0.1288 -0.0381 -0.0304
14289W        W33823   9.613  11.716   0.914 -0.0410  0.0867  0.0504
14290W        W33824  14.230   7.885   1.319 -0.0649 -0.0305  0.1406
14291W        W33825   6.532  11.770  10.337  0.0757  0.2208 -0.1723
14292W        W33826  10.638   0.567   2.719 -0.2511  0.1761  0.3007
14293W        W33827  17.200  17.057  13.780 -0.3365  0.1483  0.1544
14294W        W33828   5.305  15.706  14.737  0.1646 -0.0061 -0.3590
14295W        W33829  19.057  18.033   0.158  0.0306  0.1298  0.0528
14296W        W33830  14.979  13.362  11.442  0.6279  0.1065 -0.2980
14297W        W33831   7.673   0.165  11.209 -0.0558 -0.2042 -0.1334
14298W        W33832   9.253   9.485  13.331 -0.0478 -0.2327  0.4277
14299W        W33833  18.221   9.601   2.822  0.0151 -0.1248  0.2558
14300W        W33834   9.239   4.937  13.334 -0.1162  0.0265  0.1399
14301W        W33835   2.345   6.579  13.910 -0.1468  0.6231 -0.2541
14302W        W33836   9.102  11.172   3.710 -0.0385  0.0935  0.2594
14303W        W33837  14.744   3.607   3.475 -0.1303 -0.3555  0.0838
14304W        W33838   3.295   5.290   3.893  0.1964 -0.0795 -0.0416
14305W        W33839   5.350  12.568  11.120  0.1643 -0.0861 -0.4938
14306W        W33840   0.304  13.068   0.743  0.2323 -0.1130 -0.0298
14307W        W33841  13.345  10.464  13.064  0.1580 -0.1050  0.3953
14308W        W33842   1.204  14.410   3.055  0.1138  0.0599 -0.1758
14309W        W33843   7.565   8.928   5.254 -0.0658  0.0061  0.2025
14310W        W33844  13.687  14.086  13.168  0.0948 -0.2716  0.2636
14311W        W33845  18.654  17.160  14.748 -0.2180 -0.1221  0.1935
14312W        W33846   1.136   7.790  13.896  0.0598  0.1292 -0.0745
14313W        W33847  18.567   1.009   0.765  0.3367  0.2596  0.0646
14314W        W33848   2.068  12.517   0.473  0.1690  0.0262  0.2842
14315W        W33849   7.643   9.770   3.256 -0.1574 -0.3111 -0.2348
14316W        W33850  10.997   3.993   1.331  0.1692 -0.0050  0.0795
14317W        W33851   9.996  14.768   5.059 -0.2311 -0.0904  0.0883
14318W        W33852   4.896  12.092   0.083 -0.1253  0.2824  0.4005
14319W        W33853  13.861   5.039  13.770  0.2730 -0.1567  0.1301
14320W        W33854   3.973  14.710  11.457 -0.1371 -0.0996  0.1723
14321W        W33855   5.014  11.829  10.999 -0.0726 -0.0546  0.0894
14322W        W33856  19.061  12.558   3.983 -0.0117  0.1037  0.1255
14323W        W33857  12.194  15.485   3.936 -0.1651 -0.0452 -0.2500
14324W        W33858  13.629   0.058  13.872 -0.0341  0.1145 -0.1842
14325W        W33859  18.228  18.130   1.855  0.1480 -0.0883  0.0645
14326W        W33860  12.530  14.521  12.234  0.4315 -0.0777  0.0913
14327W        W33861   4.403   7.966  11.163 -0.2382 -0.1205  0.0575
14328W        W33862   1.676   2.767  10.529 -0.1049  0.2855  0.0470
14329W        W33863  11.746  14.835   1.527  0.0598 -0.4162  0.3516
14330W        W33864  15.160   2.974  11.929 -0.3411  0.0877  0.0407
14331W        W33865   9.879   7.614  12.080 -0.3096 -0.1112 -0.0402
14332W        W33866   0.833   4.385  13.684  0.1070  0.0315 -0.1112
14333W        W33867  17.564   9.686   0.706 -0.0778 -0.2474 -0.2383
14334W        W33868  17.537   8.346   3.728 -0.2080 -0.1381 -0.2843
14335W        W33869   7.404   5.556  13.490 -0.1620  0.0129  0.0685
14336W        W33870  17.989  16.933  13.285  0.2531  0.1498 -0.2214
14337W        W33871  12.734  11.931  13.049 -0.1497  0.1866  0.1658
14338W        W33872   0.403   3.534  12.424  0.3649 -0.2254  0.1514
14339W        W33873  18.374  12.686   1.528 -0.0650  0.1914 -0.0686
14340W        W33874   1.238   8.972   0.852 -0.3371  0.1123  0.0237
14341W        W33875  10.045   4.413  11.409  0.0779  0.0038  0.0724
14342W        W33876  11.061  11.058   3.286 -0.1318  0.1429  0.0791
14343W        W33877   9.578   8.625  13.530 -0.0267 -0.0904 -0.2006
14344W        W33878  15.630   4.737  14.702  0.2699 -0.1119 -0.0520
14345W        W33879   5.637   0.671  14.250  0.1739  0.0157 -0.0601
14346W        W33880   9.839  15.339   3.402 -0.1002  0.0306  0.3204
14347W        W33881   3.261  13.425   2.047  0.0959 -0.0674 -0.0130
14348W        W33882   5.201   4.031   2.731 -0.0213  0.1048  0.0045
14349W        W33883  12.734  15.760   2.052 -0.0277  0.0390 -0.2704
14350W        W33884   6.608  16.716  13.753  0.1092  0.2970  0.0313
14351W        W33885  13.865  14.541  13.110  0.1594  0.2766  0.0229
14352W        W33886  13.741   7.400  13.366  0.0879  0.0027  0.2593
14353W        W33887  16.991  18.810   2.898  0.1548 -0.0411  0.0821
14354W        W33888  15.819   5.119   0.932  0.2593  0.0415 -0.0258
14355W        W33889   6.356  14.020  13.230 -0.1995  0.1660  0.2927
14356W        W33890   0.563   5.808   1.600  0.1884 -0.2234 -0.1779
14357W        W33891   6.114   5.270  11.050  0.1970  0.2702 -0.1710
14358W        W33892   9.937  15.572  11.093  0.2468  0.1669 -0.0663
14359W        W33893   9.367  17.664   3.351  0.1449  0.1769  0.1426
14360W        W33894  18.347  15.931  13.589  0.2715  0.0914  0.0010
14361W        W33895  15.940   2.080   4.140  0.1729  0.2864  0.0621
14362W        W33896   6.351   5.288   2.321  0.1761 -0.2236  0.2554
14363W        W33897  18.373  10.701  11.276 -0.0417  0.2515 -0.3064
14364W        W33898   4.603  16.051   0.428 -0.0089 -0.2015  0.1849
14365W        W33899  11.920   9.209  13.556 -0.1692  0.1119  0.3373
14366W        W33900  13.025  16.426   2.845 -0.1893 -0.0273  0.0106
14367W        W33901   0.251  18.732  12.438  0.0413 -0.3856  0.0670
14368W        W33902  12.113   2.498   0.672  0.0722  0.0741  0.0641
14369W        W33903  18.656  15.872  12.500 -0.0954 -0.0115 -0.1473
14370W        W33904  11.670   8.088  10.934  0.0090  0.0225  0.1357
14371W        W33905  12.630   6.181  10.877 -0.1821  0.0253  0.0449
14372W        W33906  14.234  14.295  13.465  0.0053 -0.1421  0.0115
14373W        W33907  17.366   3.438  12.067  0.2610 -0.0249 -0.0610
14374W        W33908  11.274   1.144   4.559  0.0334  0.1291  0.2348
14375W        W33909   3.151   7.087   3.046 -0.0245 -0.2969 -0.1121
14376W        W33910  13.955  13.133   1.969  0.0158  0.3827 -0.1851
14377W        W33911   2.491  17.091   0.907 -0.2189 -0.1263  0.3675
14378W        W33912  15.707   0.071  13.693 -0.1535 -0.0762  0.1298
14379W        W33913  15.900   9.086  13.074  0.2085  0.1636  0.1684
14380W        W33914  12.156   4.383   0.732  0.0167 -0.3999 -0.0109
14381W        W33915   7.347   2.527  13.073 -0.1781 -0.0543  0.0325
14382W        W33916   0.309   2.409   1.072  0.0789 -0.3520 -0.0122
14383W        W33917   5.791  12.245   0.270 -0.0278  0.3220 -0.1456
14384W        W33918   8.617   2.344   2.765 -0.1102 -0.0721  0.2531
14385W        W33919   6.069  13.213   1.567 -0.1367  0.2182 -0.0319
14386W        W33920  13.402   9.244   1.999 -0.1961  0.3460  0.0494
14387W        W33921   0.718   7.390   0.314 -0.1184 -0.1081  0.1449
14388W        W33922  17.576  13.010  14.072  0.3945  0.1306 -0.0237
14389W        W33923   9.059  11.800  11.744  0.0368  0.1287 -0.2025
14390W        W33924   8.013   4.115   3.694 -0.0051  0.1345  0.1275
14391W        W33925   1.559   2.870  11.192  0.0797  0.1007 -0.0709
14392W        W33926   4.977  19.023   1.438  0.4158  0.0976  0.1506
14393W        W33927  10.703  15.478  11.188  0.0305  0.0271  0.0102
14394W        W33928   9.772  16.731   1.976  0.3386  0.0263  0.1021
14395W        W33929   9.547  12.271   2.126  0.0662 -0.1096 -0.1475
14396W        W33930   2.794  14.443   0.611  0.4121 -0.0917  0.1905
14397W        W33931  11.988  15.385  13.397  0.0636 -0.2196 -0.0677
14398W        W33932  13.249  17.437  11.648  0.1792  0.1590  0.2160
14399W        W33933   4.894   5.409   2.524  0.3724  0.0739  0.0143
14400W        W33934   9.142   2.412   3.518 -0.0079 -0.1584  0.2373
14401W        W33935  11.967   8.808  14.022 -0.0673 -0.0427 -0.0546
14402W        W33936   3.228   4.304   0.870  0.0647 -0.0327 -0.1718
14403W        W33937   5.209   2.161   0.539 -0.1370  0.0898 -0.2894
14404W        W33938  14.858   5.378  12.420  0.1192  0.0153  0.1406
14405W        W33939  11.583  10.187   0.143 -0.2552  0.3995 -0.0385
14406W        W33940  18.098  17.299   3.503 -0.2334  0.1345 -0.1533
14407W        W33941  12.699   3.188  13.534 -0.3343 -0.0214 -0.4360
14408W        W33942   7.391   7.304  13.865  0.3378 -0.1689 -0.0616
14409W        W33943   1.872   3.244  12.792  0.1711  0.0326  0.1052
14410W        W33944   1.353   9.104   1.701 -0.0655  0.1062 -0.2238
14411W        W33945   8.733   8.977   4.036  0.0152  0.1833  0.0040
14412W        W33946   7.582   8.313  12.833  0.1846 -0.2110 -0.1412
14413W        W33947   4.670  10.330  11.133  0.0116  0.0746  0.3400
14414W        W33948  11.059   7.481   0.173  0.2533 -0.1495  0.0350
14415W        W33949   7.744   7.405   2.777  0.1166 -0.0523  0.0720
14416W        W33950  18.922   1.228   3.513  0.0519 -0.1554 -0.1893
14417W        W33951   9.747   9.599   1.990 -0.1767  0.1949 -0.3057
14418W        W33952  17.113   8.500  10.086 -0.1876 -0.1389 -0.0448
14419W        W33953   3.005   6.319  11.244 -0.0998  0.0291 -0.1327
14420W        W33954  10.408  17.352  12.022  0.0747  0.2984 -0.2872
14421W        W33955   4.741  12.119   4.072 -0.3690 -0.0915  0.1512
14422W        W33956  15.341   5.483  12.231  0.0404  0.3130 -0.1082
14423W        W33957   1.284  17.157  11.236 -0.1074 -0.0287 -0.1575
14424W        W33958   9.399  13.915  12.158 -0.0763  0.0237  0.0934
14425W        W33959  12.296  18.737  12.462  0.1353 -0.2270 -0.0780
14426W        W33960   7.939  17.908   0.443 -0.3371  0.0681 -0.1142
14427W        W33961  18.351   3.104   1.309 -0.0780  0.0804 -0.2359
14428W        W33962  11.192   9.232   0.321 -0.0217  0.2024  0.0066
14429W        W33963   9.380   2.204  10.802  0.3450 -0.1427  0.1567
14430W        W33964   3.625  14.129  11.542  0.3867 -0.1531  0.0439
14431W        W33965   9.970  11.794  12.796 -0.0218  0.1716 -0.1045
14432W        W33966  18.968   6.472  13.622 -0.0238  0.0911 -0.0151
14433W        W33967   5.291   4.652  10.855 -0.1922 -0.1517 -0.3321
14434W        W33968  16.957  15.181   4.398  0.3429 -0.2120 -0.0635
14435W        W33969  10.922  17.950  14.418 -0.0531 -0.0696  0.1680
14436W        W33970  15.785   5.129  10.797  0.1362  0.0204 -0.4828
14437W        W33971  16.004  11.705   2.208  0.0729  0.1193  0.0993
14438W        W33972   3.338   8.103   0.533  0.3155  0.0998 -0.1226
14439W        W33973  15.814  10.917  10.845 -0.0004 -0.0104 -0.0284
14440W        W33974   3.608   3.182   0.442 -0.3137  0.2278  0.1321
14441W        W33975   3.228   0.025  14.643 -0.0094  0.0523  0.0481
14442W        W33976   9.455   8.344   4.224  0.0965  0.0458 -0.2758
14443W        W33977  18.782   2.454   1.866 -0.3693 -0.2846  0.2109
14444W        W33978   4.593   6.424   3.951  0.2911  0.1634 -0.0781
14445W        W33979  11.678   6.791  14.784  0.1882  0.1324  0.0305
14446W        W33980   3.350   4.617  12.098 -0.2068 -0.0330  0.4302
14447W        W33981   7.260   5.405  11.919  0.3845 -0.0010 -0.0857
14448W        W33982   6.681  17.703   0.409  0.0372 -0.0324  0.0274
14449W        W33983  13.413   5.258  13.676  0.1064  0.2307  0.0573
14450W        W33984  11.177  14.235  11.889 -0.0341  0.0712 -0.0059
14451W        W33985  10.388   1.661   3.662  0.0602  0.2406 -0.0121
14452W        W33986  10.152   8.872  12.185 -0.3581 -0.2107  0.1229
14453W        W33987  12.316  12.465  14.341  0.0957 -0.0512 -0.0692
14454W        W33988   9.839  16.582   3.805  0.0555 -0.1300 -0.0685
14455W        W33989   7.873  16.960   0.101 -0.2523 -0.1484 -0.0431
14456W        W33990  11.224   2.709  11.229 -0.1569 -0.0761 -0.1269
14457W        W33991  13.043  11.041  13.782 -0.1249 -0.3204 -0.0523
14458W        W33992  13.217  12.027   0.125 -0.0626  0.1667 -0.0283
14459W        W33993   8.684   1.444   9.932  0.1979  0.0143 -0.3033
14460W        W33994   6.302   5.663  10.676  0.1056  0.0783 -0.1137
14461W        W33995   2.705  16.855   4.214 -0.1099  0.0397 -0.0726
14462W        W33996  16.221  13.544   0.366 -0.0597 -0.0487 -0.0358
14463W        W33997   5.985  16.606   3.771  0.1908  0.0969 -0.1128
14464W        W33998   9.919   5.862   3.910  0.1164 -0.2299 -0.0012
14465W        W33999   1.174  17.975  14.103  0.1393 -0.0151  0.4330
14466W        W34000  11.213   7.833   4.473  0.1797  0.3433  0.0686
14467W        W34001   8.446   9.300   3.250 -0.0016  0.0396  0.4881
14468W        W34002   1.878  10.554   2.281  0.3328 -0.0746  0.2064
14469W        W34003   9.586  17.271  14.095 -0.1989  0.0877  0.0126
14470W        W34004   8.057   1.630   3.646 -0.2430  0.0072  0.0420
14471W        W34005   6.967   2.454   3.400  0.1293  0.0384  0.1844
14472W        W34006   0.387  12.563   4.751 -0.0946 -0.0046 -0.1341
14473W        W34007   9.316   7.494  13.321 -0.2285  0.0992  0.0810
14474W        W34008   5.604   0.034  13.914 -0.0984 -0.0899 -0.4108
14475W        W34009  18.221   3.394  10.504 -0.1226 -0.2224  0.2746
14476W        W34010  10.789  10.572  10.091 -0.2617  0.0982  0.0822
14477W        W34011  11.425  16.120   4.298  0.1243 -0.5356 -0.1173
14478W        W34012  13.130  17.479  14.153 -0.2950 -0.0418 -0.2399
14479W        W34013  14.107  15.842   3.926 -0.2007 -0.2221  0.2176
14480W        W34014   6.629   3.812  11.629  0.0525  0.6051  0.4044
14481W        W34015   9.122   7.758  14.625  0.0804  0.0594  0.0468
14482W        W34016   6.653   3.240   1.888 -0.3823  0.0706  0.0927
14483W        W34017   2.237   0.970   1.849  0.2074 -0.0528  0.0701
14484W        W34018   3.621   5.726   0.967  0.1035  0.0029  0.3838
14485W        W34019  18.988   7.222  11.079 -0.2590 -0.0794  0.2681
14486W        W34020  15.612  11.101  14.410  0.0277 -0.4563 -0.0692
14487W        W34021   1.786   4.439  13.317  0.3908 -0.0209  0.0916
14488W        W34022  13.354   8.867   1.255 -0.0693  0.0062  0.0876
14489W        W34023  17.273  15.930  11.087 -0.1420  0.3494  0.0998
14490W        W34024   8.252  11.440   0.755 -0.2613 -0.0717 -0.1349
14491W        W34025  17.503  14.386  12.808  0.0822  0.0552 -0.0581
14492W        W34026  17.053   2.625  10.695 -0.0136  0.2335  0.0433
14493W        W34027   8.963  13.743  12.461 -0.1245 -0.0771  0.2091
14494W        W34028   2.402   8.643  13.071  0.2359 -0.0994 -0.0296
14495W        W34029   5.940   1.383   4.545  0.1599 -0.0883 -0.3917
14496W        W34030   2.621  16.085   1.033  0.4022 -0.2034  0.0705
14497W        W34031   3.510  12.840  13.375 -0.0470 -0.1404 -0.1804
14498W        W34032  14.123  18.920   3.615 -0.1350  0.2456 -0.2442
14499W        W34033  18.661  18.542   0.918 -0.1616 -0.1838 -0.1090
14500W        W34034  18.451  14.373  13.230 -0.1004  0.0653  0.1565
14501W        W34035  16.175   7.181  13.298  0.1113 -0.1272 -0.0234
14502W        W34036  15.086   1.141   1.240  0.2664  0.1013 -0.1203
14503W        W34037  13.428  14.266   3.032 -0.0329 -0.1943  0.0594
14504W        W34038  17.448  12.044  10.628 -0.3852  0.0497 -0.2670
14505W        W34039   8.606  15.233  13.056 -0.1672  0.1667  0.0800
14506W        W34040  15.295  10.734   2.722  0.1397  0.0424  0.0670
14507W        W34041  12.185  13.828   0.794 -0.3055 -0.2866 -0.2512
14508W        W34042   1.340  12.688   3.080 -0.1474 -0.0530  0.1457
14509W        W34043  18.164  13.408  12.228 -0.0119  0.1270 -0.0620
14510W        W34044  12.908  12.366  14.758 -0.0562  0.1778 -0.4987
14511W        W34045  16.708  15.160  14.318  0.3822 -0.1565 -0.0375
14512W        W34046   6.716  11.010  12.879 -0.1876 -0.1375  0.2341
14513W        W34047  15.480   8.329  13.503 -0.1653 -0.2594  0.3893
14514W        W34048   4.599  11.368  13.521  0.3785  0.1222 -0.0181
14515W        W34049   3.876   3.548  14.745  0.2030 -0.1248 -0.5129
14516W        W34050  11.087  14.902  10.633  0.0609  0.1041 -0.1184
14517W        W34051   9.805   8.080   1.799 -0.1616  0.0718 -0.0393
14518W        W34052   4.285  16.915   1.468 -0.2133 -0.1099 -0.0826
14519W        W34053  15.154   0.259  11.939  0.0455 -0.1398  0.2233
14520W        W34054  15.903  18.649  12.881 -0.1797 -0.0168  0.1496
14521W        W34055  12.157  17.857   3.590 -0.2900 -0.0961 -0.2068
14522W        W34056   9.830   8.860   0.531 -0.0755  0.1862 -0.3058
14523W        W34057   4.215  11.592  13.206 -0.0253  0.1108 -0.1450
14524W        W34058  14.513  17.764   2.494  0.2528  0.0809  0.1248
14525W        W34059  16.068   3.022  11.743  0.0230 -0.0257  0.2060
14526W        W34060   0.653   7.221  14.684  0.1025  0.1258  0.3482
14527W        W34061  12.629  18.685   2.323 -0.2637 -0.0470 -0.0199
14528W        W34062   3.467  18.229  13.179  0.1194  0.0031  0.0338
14529W        W34063  14.200  16.223  10.212  0.2556 -0.0635 -0.0418
14530W        W34064  13.140   8.393   9.395  0.0817 -0.1060 -0.2013
14531W        W34065  14.407  18.506  14.760  0.0531 -0.1146  0.2054
14532W        W34066  18.403  16.840   0.242 -0.0533 -0.1154 -0.2364
14533W        W34067   9.419   4.443   2.246  0.4552 -0.1301  0.0564
14534W        W34068   0.879   9.570   0.068 -0.0607 -0.0094  0.0436
14535W        W34069   5.415   5.128  11.048  0.0232  0.0708 -0.0898
14536W        W34070   9.082   5.860   0.678 -0.2159 -0.0494  0.2797
14537W        W34071  10.402  17.854   1.853  0.0697 -0.3530  0.1793
14538W        W34072   5.022  17.140   1.983 -0.1264  0.0867  0.4357
14539W        W34073  15.516  16.312  12.654 -0.1074  0.2022  0.1078
14540W        W34074   6.077   5.149   4.134  0.0560  0.1852 -0.2717
14541W        W34075   9.193  14.598  13.443 -0.0360 -0.1751  0.3421
14542W        W34076  13.276   5.968  12.894 -0.1536 -0.1740  0.0799
14543W        W34077   6.214   6.605   1.004 -0.1242  0.1551 -0.0604
14544W        W34078   5.811   0.444  12.645 -0.2383 -0.3420  0.0381
14545W        W34079  12.762   2.003   0.982  0.1546  0.2943 -0.0625
14546W        W34080   8.964  10.855   1.942 -0.1412 -0.0558 -0.0415
14547W        W34081   9.989  13.972  11.888  0.2302  0.1075 -0.0763
14548W        W34082   3.380   5.147   1.200  0.1215  0.1039  0.0227
14549W        W34083  15.877  17.949   2.617 -0.3336  0.1294 -0.2253
14550W        W34084   4.172  16.236  12.072  0.1035 -0.1554  0.0848
14551W        W34085   5.513   1.478  14.793 -0.0378 -0.0205  0.1622
14552W        W34086  19.016  15.514   3.773 -0.2661  0.1845 -0.0416
14553W        W34087  18.086  17.593   1.184 -0.1658 -0.1016 -0.1643
14554W        W34088   6.923   2.857   2.570 -0.3732  0.1935 -0.1359
14555W        W34089  18.202  11.887   3.143  0.0832 -0.1085  0.3046
14556W        W34090  17.971  14.064   0.228 -0.2184  0.1462 -0.0246
14557W        W34091   4.914   4.112   3.229  0.2440 -0.1886  0.1569
14558W        W34092   1.660  13.869  12.840  0.1087 -0.0488 -0.2426
14559W        W34093  15.681  16.647   1.277  0.1084  0.0926  0.1283
14560W        W34094   3.265   3.626  13.187 -0.0811  0.0577 -0.0357
14561W        W34095   2.516   6.256   0.853  0.3277 -0.2024 -0.1045
14562W        W34096   0.298  16.869   9.770  0.0913  0.4744  0.1989
14563W        W34097  17.109   8.970   2.923 -0.0790 -0.1088  0.1076
14564W        W34098   3.606  13.980  11.062  0.1858 -0.1691 -0.0174
14565W        W34099  11.305  14.815  14.494  0.0062 -0.3351  0.0052
14566W        W34100  18.583  17.145   3.629 -0.0240  0.2775  0.1271
14567W        W34101  13.850  11.061  11.952 -0.1589 -0.0291 -0.0359
14568W        W34102   0.508  11.558  12.980  0.0007 -0.3535 -0.0882
14569W        W34103   3.669  18.865   1.955  0.0427 -0.2616  0.2065
14570W        W34104   2.079  12.388  13.826  0.1032  0.2453 -0.1964
14571W        W34105  17.233  16.450  12.690  0.1354  0.3011 -0.1292
14572W        W34106  18.654   7.261   3.450  0.1868  0.0940  0.1723
14573W        W34107   7.463   8.159  10.606  0.1557  0.0899  0.0689
14574W        W34108  14.971   1.703  10.221  0.2609 -0.2208  0.0337
14575W        W34109   4.749   6.434  13.802 -0.2509 -0.0364 -0.0071
14576W        W34110  18.185   1.338  11.666 -0.0418 -0.3384  0.1302
14577W        W34111   2.601  10.747  12.002  0.0941  0.0839  0.1474
14578W        W34112   2.873  17.299   3.797  0.5452  0.1107  0.0333
14579W        W34113  11.330  11.168   1.424 -0.0167 -0.2053 -0.1525
14580W        W34114   4.269  13.645  14.774 -0.0070 -0.0303  0.1537
14581W        W34115  10.429   1.952  11.910  0.0325 -0.3459 -0.1136
14582W        W34116  10.945  18.066  12.796 -0.0601  0.0917  0.2362
14583W        W34117   1.514  15.094  10.833 -0.0478  0.0732 -0.2204
14584W        W34118   6.540  17.774  11.710  0.0039 -0.0133 -0.2095
14585W        W34119   4.562  15.781   0.951  0.0311  0.1378 -0.0300
14586W        W34120  10.398  16.896   3.243  0.1923 -0.3676  0.1543
14587W        W34121   5.594   6.711   0.641  0.1390 -0.0517  0.2315
14588W        W34122  11.463   9.396   9.930  0.1189  0.0186 -0.1019
14589W        W34123  12.623   3.500  10.396  0.0103 -0.0574 -0.2206
14590W        W34124   6.067   5.292   1.341  0.2050  0.1878  0.0081
14591W        W34125  10.729  16.350  13.197 -0.3589  0.0462 -0.2640
14592W        W34126   8.644  11.015   0.067  0.2046 -0.1610 -0.0810
14593W        W34127   4.127   6.407  11.052 -0.0800 -0.1011 -0.2277
14594W        W34128  15.322   3.803   4.655  0.3552  0.0914  0.4101
14595W        W34129   2.808  16.815  12.874  0.2038 -0.0835 -0.0977
14596W        W34130  18.798   2.514   3.791 -0.2797 -0.0092 -0.2312
14597W        W34131  16.756   1.164   3.935 -0.1783 -0.0330 -0.1131
14598W        W34132  10.512  12.536   0.459 -0.0745  0.1620  0.1792
14599W        W34133   6.737   4.898  10.823  0.1880 -0.0696 -0.0406
14600W        W34134   3.947   5.346   0.752 -0.0249  0.0937 -0.1317
14601W        W34135  16.425   2.724  12.392  0.2841  0.1907 -0.0629
14602W        W34136   0.476   6.031   0.034  0.1631 -0.0116 -0.1809
14603W        W34137   0.458  14.872   3.537  0.0771 -0.4273 -0.1433
14604W        W34138  11.743   7.149  12.403  0.3034 -0.1095  0.1696
14605W        W34139   0.846  10.770  13.299  0.1305  0.1459  0.2206
14606W        W34140   8.872   8.548   2.906 -0.0673  0.2574 -0.1221
14607W        W34141  13.434   4.382   1.371 -0.0186  0.0657  0.0650
14608W        W34142  10.345   9.394  14.728  0.1266  0.0968  0.3534
14609W        W34143   6.080   8.344  10.592  0.3888 -0.1105 -0.0834
14610W        W34144  15.142   3.462   2.699  0.2086 -0.1816  0.2018
14611W        W34145  16.269  15.973   0.935 -0.1780  0.1581  0.1631
14612W        W34146   3.424   6.056  11.329  0.1077 -0.0730  0.0204
14613W        W34147   7.233   7.557   1.781  0.0864  0.1361  0.0719
14614W        W34148   8.721  11.348   9.452  0.3363 -0.0223 -0.2165
14615W        W34149   4.275   8.614   3.674  0.1592  0.1554  0.1622
14616W        W34150  16.914   0.913   0.010 -0.0636  0.0223  0.0482
14617W        W34151  17.599   4.518  13.500  0.0771 -0.1383 -0.2634
14618W        W34152  15.414   1.439   2.832 -0.0555 -0.1627 -0.3143
14619W        W34153   1.573  13.187   3.508  0.4562  0.0984 -0.0955
14620W        W34154   7.726   8.355   2.462  0.0925  0.2907 -0.1904
14621W        W34155  13.552  11.340  12.943 -0.3089 -0.1117  0.1631
14622W        W34156  17.242  10.427  10.764  0.2491  0.0170 -0.0800
14623W        W34157  12.831   7.104  11.946 -0.0150  0.0184 -0.0230
14624W        W34158   0.644   9.984   0.109  0.1185 -0.1295 -0.3588
14625W        W34159   9.238   1.472  12.819  0.2556 -0.0626  0.1372
14626W        W34160   3.869   1.604   1.815  0.0981 -0.0889 -0.1061
14627W        W34161   9.942   0.052   2.494 -0.2241  0.2029 -0.3151
14628W        W34162  14.592  10.723  11.552 -0.2098  0.0449 -0.2893
14629W        W34163   7.541   2.953   0.429  0.2245 -0.1512 -0.0378
14630W        W34164   0.339  10.126   4.320 -0.0896  0.1271 -0.0780
14631W        W34165  15.336   8.697   5.127  0.1609 -0.1512 -0.0135
14632W        W34166  16.779  17.475   2.994  0.0812  0.0417 -0.3386
14633W        W34167  13.838  12.546  13.304  0.3462 -0.0993 -0.0410
14634W        W34168  14.206   6.932  13.116 -0.0576 -0.0680  0.2422
14635W        W34169  13.240   0.571   4.639 -0.0549 -0.1274 -0.0682
14636W        W34170   4.131   3.859  14.486 -0.0060 -0.0282 -0.1224
14637W        W34171   9.303  16.679  13.404 -0.0791  0.2259  0.1500
14638W        W34172   1.392  17.313   1.465 -0.3124 -0.0168  0.0231
14639W        W34173  16.951   7.017   4.238 -0.0153 -0.1474  0.0362
14640W        W34174  12.902   1.741   2.106 -0.3272 -0.0586  0.0168
14641W        W34175  14.722  13.252   2.941  0.0734  0.0983 -0.1827
14642W        W34176  14.887   7.990  14.232  0.1118  0.3267 -0.0331
14643W        W34177   1.154   5.078  14.158  0.0599 -0.3874  0.2039
14644W        W34178  11.261   0.041   0.538  0.1330  0.2226 -0.0769
14645W        W34179   0.032  18.824   4.013  0.2036  0.0346  0.0374
14646W        W34180   4.210   6.409   4.340  0.0134  0.1783  0.0128
14647W        W34181   6.812   2.826  14.688  0.1709  0.2383 -0.0411
14648W        W34182   6.656   6.421   2.840 -0.0925 -0.4781  0.1939
14649W        W34183  11.566  14.183   1.200  0.2939  0.1180  0.1878
14650W        W34184   4.202   8.987  13.107  0.4943 -0.1096 -0.0675
14651W        W34185  16.331   4.581  11.345 -0.1506  0.0879  0.0130
14652W        W34186   6.399  17.891  11.163  0.0407 -0.2596 -0.1298
14653W        W34187   9.827   7.675   5.351 -0.0272  0.2681  0.0898
14654W        W34188  13.022   0.656   2.263 -0.1194 -0.2681  0.0907
14655W        W34189   3.064  14.324   2.308 -0.3360 -0.1785  0.0950
14656W        W34190  14.781  11.333  14.285  0.2400 -0.2758 -0.0073
14657W        W34191   4.429  13.760   0.435 -0.1558 -0.0421  0.0406
14658W        W34192  17.919  13.954  11.984  0.3017  0.0651 -0.2067
14659W        W34193  15.403   5.399  13.965 -0.0128 -0.3693 -0.2551
14660W        W34194   1.129   2.048  11.545  0.2027 -0.1406 -0.1719
14661W        W34195   8.306   0.098  14.435 -0.1712  0.3131  0.2197
14662W        W34196  16.744   7.677  12.139  0.0302  0.0376 -0.1437
14663W        W34197  14.066   4.922   0.943 -0.5644 -0.0551  0.1538
14664W        W34198   9.579  12.032   1.304 -0.3036  0.1232 -0.1201
14665W        W34199  12.570  14.047   0.967  0.1039 -0.0630  0.2669
14666W        W34200   5.077   1.689  10.550  0.1265  0.1055 -0.3674
14667W        W34201  16.154  10.124   2.919  0.0123 -0.2450 -0.1669
14668W        W34202  14.270  15.117  11.656 -0.0590  0.0249  0.0918
14669W        W34203  10.398   3.926   2.021  0.1239 -0.0424 -0.0873
14670W        W34204  17.903   8.398  13.662 -0.2029 -0.0242 -0.2892
14671W        W34205   6.841  13.845   3.949  0.0789  0.2223  0.1523
14672W        W34206  12.060  10.241  14.686 -0.1231  0.3427  0.0883
14673W        W34207  16.954   0.321  13.233 -0.2705 -0.0082  0.0008
14674W        W34208   3.727   9.327  11.597  0.1124  0.1131 -0.0433
14675W        W34209  17.307  12.456  12.336 -0.0662  0.1538  0.2195
14676W        W34210   8.238  12.563  11.344 -0.1679 -0.0019  0.0298
14677W        W34211   3.067   5.513   4.287 -0.0708  0.0758  0.2361
14678W        W34212   1.402   2.090  10.713  0.2042  0.4127 -0.1354
14679W        W34213   3.544   9.345  14.266  0.0786 -0.2699  0.0808
14680W        W34214  15.475  10.277  12.973  0.1199  0.2204  0.0791
14681W        W34215   6.325  17.880   3.164  0.0663  0.0602  0.3349
14682W        W34216   5.754   7.696   0.798 -0.2627 -0.4452  0.1053
14683W        W34217   8.157  14.911   0.219  0.0086  0.1558  0.2259
14684W        W34218   6.121  13.718   3.598  0.0299 -0.2008 -0.1269
14685W        W34219   2.440  11.788   0.631  0.3059  0.0238  0.0116
14686W        W34220  16.526   5.706   3.372  0.1120  0.0727 -0.3349
14687W        W34221   6.508   1.086  12.046 -0.3510  0.1292  0.1323
14688W        W34222  17.164  15.957  13.122  0.0028 -0.1992  0.2693
14689W        W34223   3.659  10.048   1.098 -0.0276  0.1646 -0.0497
14690W        W34224   4.550   3.784  13.240 -0.0793 -0.0599 -0.0938
14691W        W34225   5.382   6.990  11.588 -0.1138 -0.2679 -0.0787
14692W        W34226  10.148  10.445   3.186 -0.2872  0.1764  0.0214
14693W        W34227  12.852  12.082  14.337 -0.1002  0.0372  0.1335
14694W        W34228   8.298  10.165  13.576 -0.4673 -0.1003 -0.0327
14695W        W34229  10.365   1.164   1.422  0.0856  0.0197 -0.2186
14696W        W34230   2.694   6.020  14.453 -0.3132  0.4166  0.1387
14697W        W34231   4.975  18.685   4.153  0.1058 -0.1165 -0.0554
14698W        W34232   4.524   5.459   9.571  0.0823  0.3263  0.1736
14699W        W34233  14.163   0.344  10.848 -0.1937  0.3718  0.0988
14700W        W34234  14.423  11.377   2.605 -0.1248 -0.1287 -0.0658
14701W        W34235  18.767   4.907   0.523  0.1688  0.1838 -0.3176
14702W        W34236  10.002   0.432  13.442  0.0559  0.0175  0.3552
14703W        W34237  18.404   2.879   2.331 -0.1255  0.2238  0.0433
14704W        W34238   6.182   4.482  12.091 -0.2406 -0.0837 -0.0688
14705W        W34239   0.070  18.105  11.992  0.1108 -0.1870  0.1579
14706W        W34240   4.711   2.627  10.693  0.0391  0.0366  0.1333
14707W        W34241   7.715   3.570   5.430 -0.2584  0.1263  0.1535
14708W        W34242   2.368   2.367   3.533 -0.2974 -0.0405 -0.0182
14709W        W34243   6.572  16.249  12.647  0.1022 -0.0209  0.3501
14710W        W34244  14.382  18.710  13.821  0.1772 -0.1481  0.0419
14711W        W34245   8.845   1.179   3.304  0.1891  0.1267 -0.1786
14712W        W34246   0.252   4.690  11.615 -0.1122 -0.1442 -0.1073
14713W        W34247  10.044  13.201   3.368  0.1575 -0.3653 -0.2713
14714W        W34248  12.609   7.911   2.333  0.2298 -0.1124  0.1120
14715W        W34249   5.562   6.281   0.358 -0.0721 -0.2470  0.0977
14716W        W34250  14.816  12.343  14.137 -0.1445  0.0827  0.3548
14717W        W34251   3.043   0.416   0.797 -0.3092  0.0173 -0.0028
14718W        W34252  12.852   0.368  10.979  0.2072  0.2007  0.1166
14719W        W34253   1.833  14.627  11.818 -0.1213 -0.0513  0.0227
14720W        W34254  14.379   2.882  12.903 -0.0316  0.1422  0.0553
14721W        W34255  12.137  16.056   3.230 -0.0239 -0.0679 -0.0323
14722W        W34256  14.448  16.485   2.984 -0.1484 -0.0523 -0.1821
14723W        W34257  13.728   0.822  10.814  0.2589  0.1951 -0.0528
14724W        W34258   6.256   1.514  10.679 -0.1877  0.0829 -0.2444
14725W        W34259   0.933   4.828  11.522 -0.2362  0.1163  0.0198
14726W        W34260   3.499  11.560   0.553  0.0470  0.0533 -0.0291
14727W        W34261   8.340  19.052  12.010  0.1920  0.1813 -0.2561
14728W        W34262  18.449  13.168  13.681 -0.2099  0.0158  0.0921
14729W        W34263   3.692   2.409   3.081  0.1179 -0.2154  0.1087
14730W        W34264  10.025  11.132   2.715  0.1858 -0.2875 -0.1233
14731W        W34265   2.185  18.364   2.852  0.1271  0.0461 -0.0309
14732W        W34266   4.552  18.883   1.549 -0.1563  0.1111  0.0014
14733W        W34267  15.169  14.437   2.616 -0.0380 -0.1346 -0.2462
14734W        W34268   6.818  11.134  14.792 -0.2978 -0.1261 -0.3822
14735W        W34269  10.473   4.064   3.959  0.1400  0.2106 -0.1142
14736W        W34270   0.498  14.247   2.329  0.2037  0.1646  0.3317
14737W        W34271   6.713   1.928   0.473  0.0783  0.2185  0.0055
14738W        W34272  16.861   7.908   0.783  0.1045 -0.0141  0.1525
14739W        W34273   5.710  15.461  14.647  0.1300 -0.3044 -0.1076
14740W        W34274  14.204   2.871  12.064 -0.4092  0.1174  0.0638
14741W        W34275  10.731  19.073  12.766  0.0096 -0.3883 -0.0486
14742W        W34276  18.832  10.899   4.868  0.1147  0.0359  0.2661
14743W        W34277  14.825  12.090  10.072 -0.0211 -0.0531 -0.1409
14744W        W34278   2.394  10.771   0.935  0.0218 -0.2416  0.2278
14745W        W34279  12.915  12.084  11.606 -0.1313  0.0605  0.1172
14746W        W34280   8.723  10.949  12.736  0.4004 -0.3677  0.3554
14747W        W34281  15.572  18.986   1.788 -0.0615 -0.1038 -0.2140
14748W        W34282   8.936   5.181   3.964  0.0186 -0.3193 -0.0657
14749W        W34283   4.463   0.139  11.980 -0.0261  0.2258 -0.2421
14750W        W34284  11.692  15.034   9.782  0.3158 -0.0003  0.0900
14751W        W34285   7.421  15.018  14.105  0.0988 -0.3891 -0.0446
14752W        W34286   0.545   5.770  10.432  0.2572  0.0692  0.2084
14753W        W34287  12.176  18.921  11.969  0.0111  0.0571  0.0762
14754W        W34288   6.424   8.662  12.124 -0.2654  0.2184 -0.0138
14755W        W34289   5.730  16.757  14.020  0.0242  0.0573  0.1373
14756W        W34290   3.357   6.271   1.103  0.4604  0.2911 -0.0267
14757W        W34291   8.715   1.102   0.366  0.3036  0.0396  0.1331
14758W        W34292   5.986   3.175  12.603  0.0943  0.1566 -0.0775
14759W        W34293  19.094  12.329  11.399 -0.1184 -0.1172 -0.0632
14760W        W34294  11.286   1.249  13.625 -0.1773 -0.3163  0.1630
14761W        W34295   6.194   5.050  10.079  0.0684 -0.0230 -0.2491
14762W        W34296   5.524  15.031  10.886 -0.1620  0.1568  0.1056
14763W        W34297   6.914  11.992   4.365 -0.1890  0.0916  0.0637
14764W        W34298  12.537   4.470  11.603 -0.1827 -0.0243  0.1026
14765W        W34299  14.747   1.602   1.205 -0.1007  0.2217  0.0810
14766W        W34300  17.602   4.595  14.468  0.0601 -0.1625 -0.0081
14767W        W34301  13.731   1.290  12.082  0.0489  0.1895  0.5183
14768W        W34302   5.786  14.959   0.034  0.0683 -0.1050  0.0253
14769W        W34303  10.885   0.983  11.850 -0.3143  0.0037 -0.1404
14770W        W34304  16.521   3.689   1.902 -0.0909 -0.2973  0.0633
14771W        W34305  13.464  13.182  12.875  0.1469  0.1314  0.1059
14772W        W34306   7.166   4.746   1.936  0.1799 -0.1726  0.2157
14773W        W34307   8.726  18.436   3.181  0.1744 -0.1559 -0.2715
14774W        W34308   3.658  17.248   0.430  0.3151 -0.0065 -0.1783
14775W        W34309  17.496   6.304  14.201  0.0657 -0.1037  0.1946
14776W        W34310   6.015   6.342   0.646  0.0388 -0.0470  0.1741
14777W        W34311  16.553   9.125   2.825 -0.1438  0.2614 -0.1137
14778W        W34312  12.355   9.488  12.122  0.3334  0.0174  0.1678
14779W        W34313   7.733   1.845   1.149  0.0458 -0.0670  0.2053
14780W        W34314  15.296   2.342   0.691 -0.4265 -0.0561 -0.1899
14781W        W34315   2.129  13.647  12.811 -0.0337  0.0248  0.2707
14782W        W34316   5.036   8.916   1.303  0.0406 -0.0522  0.0338
14783W        W34317   7.249   6.893  10.994  0.1184  0.2368 -0.1650
14784W        W34318  13.507  18.408  13.301 -0.0595  0.0586 -0.3680
14785W        W34319  17.333  10.308   3.502 -0.1157  0.1895 -0.2955
14786W        W34320  17.692   3.093  12.017  0.0920 -0.1206 -0.0350
14787W        W34321   5.923  13.992   2.231 -0.0248  0.1280  0.0630
14788W        W34322  15.172  11.767  10.231  0.0083  0.1926 -0.0220
14789W        W34323   6.354   6.336  14.629 -0.3533  0.1857  0.3033
14790W        W34324  16.182  11.075   5.378  0.1889  0.1840 -0.0537
14791W        W34325   4.054   0.777  13.858 -0.1866 -0.2680 -0.1934
14792W        W34326  12.343   5.604  14.351  0.1778  0.2414 -0.1068
14793W        W34327   7.859   8.917  12.168  0.1321  0.3273 -0.0699
14794W        W34328   4.835  14.568   2.414  0.0142  0.2091 -0.0092
14795W        W34329  14.576  12.181   1.158  0.0112  0.2073 -0.0698
14796W        W34330  14.181  17.247  10.702  0.0408 -0.2364 -0.1790
14797W        W34331   8.836  16.790  13.258 -0.0103  0.2596 -0.0352
14798W        W34332   7.747  13.628   4.187  0.1817 -0.2276 -0.0204
14799W        W34333   1.041  11.835   3.593 -0.1180  0.0910 -0.0025
14800W        W34334  17.779  16.861   3.723  0.1271 -0.1761 -0.0322
14801W        W34335  16.202  18.822   0.857  0.2608 -0.2354 -0.0678
14802W        W34336  16.277  12.535  13.399  0.0204  0.0377 -0.1264
14803W        W34337  12.723   8.358   2.226 -0.0840  0.0592 -0.0817
14804W        W34338   3.561  11.975   1.430  0.3182 -0.3983  0.1487
14805W        W34339  14.969  10.951   0.790 -0.3293  0.2095 -0.1063
14806W        W34340   9.138   2.612  14.078  0.0974 -0.4832  0.1150
14807W        W34341   8.293  14.143   0.331  0.3206 -0.0576  0.2403
14808W        W34342   2.411  18.721   0.554  0.0548 -0.0360  0.0948
14809W        W34343   9.861  17.410   1.151 -0.0855  0.0910  0.2722
14810W        W34344   8.287  12.327   0.579 -0.1452  0.0365 -0.2622
14811W        W34345   8.663   6.576   2.140 -0.0518 -0.2836 -0.0202
14812W        W34346   6.733  18.626  12.746 -0.1317 -0.0456  0.1237
14813W        W34347   5.648  17.793  11.517  0.0583  0.0667  0.3150
14814W        W34348   9.172  14.203   3.108  0.0551 -0.1122  0.1060
14815W        W34349   1.020  11.397   3.861 -0.0815 -0.0650 -0.2038
14816W        W34350   6.582  12.193  10.609 -0.2835  0.1184  0.1520
14817W        W34351  14.854  18.985  12.860  0.1507  0.2430  0.1161
14818W        W34352   5.841   7.245   2.498 -0.0071 -0.0680  0.0242
14819W        W34353  14.885   0.961  11.392  0.4280  0.1246  0.0463
14820W        W34354  12.156  14.442   2.317  0.1449 -0.0416 -0.3693
14821W        W34355   5.968  18.502  12.648  0.0427  0.1881 -0.0700
14822W        W34356   3.544   2.286  10.472  0.0770 -0.1446  0.0843
14823W        W34357   3.300   2.516  10.853  0.1199  0.3750 -0.2127
14824W        W34358  11.987  13.784   4.194  0.0918 -0.0737 -0.1828
14825W        W34359   5.298  12.566   3.261  0.1316  0.0481 -0.0186
14826W        W34360  19.001  10.075   0.869 -0.1994 -0.1584 -0.1209
14827W        W34361   2.222   8.574  10.055 -0.1548  0.0676 -0.1323
14828W        W34362  10.106   3.668   3.955  0.0964 -0.2017 -0.0593
14829W        W34363   7.618  11.298  13.222 -0.1962  0.3029  0.3142
14830W        W34364  15.061  12.097   1.026 -0.2309  0.3230  0.1604
14831W        W34365   2.583   2.846   1.498  0.3102 -0.1991 -0.2668
14832W        W34366  15.536   1.742   1.775  0.0582 -0.2492 -0.0738
14833W        W34367   6.062  10.429   3.328  0.3365 -0.2296  0.2871
14834W        W34368  17.445  18.299  10.718  0.2095  0.0028 -0.0948
14835W        W34369  16.098   6.662   4.316  0.1388  0.1140 -0.0613
14836W        W34370   1.329   8.122   1.445 -0.0021 -0.1825 -0.0096
14837W        W34371   2.795   6.862   2.336 -0.3248  0.1812 -0.1440
14838W        W34372   7.004  10.069  12.686  0.0042 -0.0677 -0.1855
14839W        W34373   3.742   8.793  10.333  0.2803  0.2942  0.1202
14840W        W34374   0.416   7.554  14.422  0.0413  0.1411  0.3501
14841W        W34375  10.269   2.737   1.205 -0.2545  0.0274  0.1931
14842W        W34376   5.351   7.540  11.540  0.1497 -0.2392  0.1472
14843W        W34377  15.238   3.652   0.594  0.5067  0.4630  0.1256
14844W        W34378  17.060  17.789  12.974 -0.0619 -0.0153 -0.2347
14845W        W34379   6.926  15.571   0.552 -0.2263 -0.2325  0.1647
14846W        W34380  14.917   7.394   1.664 -0.1471  0.2035  0.2069
14847W        W34381   4.054   8.821   4.575 -0.0026  0.0026 -0.1191
14848W        W34382  15.184   0.134  11.071  0.1001 -0.0510  0.0559
14849W        W34383  13.486  13.815  12.290  0.1064  0.0550  0.4207
14850W        W34384   6.256  18.383   2.993  0.0030  0.1481 -0.0150
14851W        W34385  17.535   4.474  10.823 -0.1771  0.1305  0.3451
14852W        W34386   6.179  11.429   1.381  0.2504  0.2847 -0.2121
14853W        W34387   2.190   9.433   1.476  0.0226 -0.5211 -0.2199
14854W        W34388  15.347   3.352  11.389 -0.1118  0.0705 -0.0206
14855W        W34389  13.695   8.973   2.904  0.1472 -0.1027 -0.2591
14856W        W34390  18.933  15.289  14.448  0.1151 -0.2069 -0.3943
14857W        W34391   9.925   4.647  14.312 -0.0543  0.0845  0.3374
14858W        W34392   0.844   5.352  14.699 -0.1527  0.0521  0.0735
14859W        W34393   1.697   1.364   2.720 -0.0225 -0.0533  0.2077
14860W        W34394   8.495   0.041   1.595 -0.2461 -0.0960 -0.0152
14861W        W34395   8.386  16.497   4.133 -0.4394 -0.0295  0.3259
14862W        W34396  15.215  12.516   3.035  0.1446  0.3131  0.1655
14863W        W34397  16.229   7.348   3.883  0.0013  0.4164  0.2123
14864W        W34398   0.287   3.128   1.690  0.0116  0.0137  0.2595
14865W        W34399   6.901  13.451   2.615 -0.2217  0.1885 -0.1618
14866W        W34400   8.089  10.373   0.371 -0.1832  0.0306  0.3576
14867W        W34401   6.778   6.467  10.984  0.2675  0.0257 -0.0403
14868W        W34402  18.995  17.098  13.071  0.2021 -0.1518 -0.2544
14869W        W34403  11.412  13.640   1.840  0.0714  0.1218  0.0587
14870W        W34404  13.963   0.283  14.480 -0.1487  0.5781 -0.0248
14871W        W34405   3.811   4.346   1.674 -0.3349  0.0896  0.1830
14872W        W34406  10.144   7.606   0.079 -0.3696 -0.2315 -0.1543
14873W        W34407  11.979   3.234   3.750 -0.0941  0.0308 -0.2100
14874W        W34408  11.562   2.008  12.013 -0.0258  0.0801  0.5051
14875W        W34409  13.825   6.870   2.095 -0.0799  0.1160  0.2200
14876W        W34410  10.074   9.685   9.658 -0.0615 -0.0148 -0.1382
14877W        W34411  15.290  14.445   0.803 -0.0971 -0.0588  0.1082
14878W        W34412   0.116  10.543   0.858  0.1119 -0.1633  0.1589
14879W        W34413  16.577  14.531  10.778 -0.1699  0.0019 -0.1170
14880W        W34414   6.540  10.858  10.719  0.4073  0.1646 -0.5049
14881W        W34415   9.261   7.332   2.386  0.0022 -0.1114  0.2010
14882W        W34416  10.137  13.213  11.867 -0.2128 -0.1282 -0.0411
14883W        W34417  11.318   7.060  10.840  0.2615 -0.1373 -0.4537
14884W        W34418   5.740   1.543  13.392  0.0588 -0.1752 -0.0174
14885W        W34419  17.300   3.339   9.559 -0.3092  0.0098  0.0481
14886W        W34420  13.634   1.830   3.717  0.2260  0.1105  0.0376
14887W        W34421   6.331  17.313   3.834 -0.1416 -0.0854 -0.0025
14888W        W34422   5.010  16.029   2.278  0.3063  0.0378  0.2336
14889W        W34423   5.776  14.810  13.523  0.1898  0.1215 -0.0255
14890W        W34424   0.540   5.061  10.095 -0.2347 -0.0586  0.4071
14891W        W34425   5.223   2.792   4.268  0.0841 -0.1025  0.0456
14892W        W34426   9.705  16.950   2.486 -0.4787 -0.1331 -0.0700
14893W        W34427  16.697   5.180  11.602  0.0712  0.1196 -0.0452
14894W        W34428   0.310   3.219   4.095 -0.1683 -0.1258 -0.4937
14895W        W34429   2.318  16.892   4.978 -0.0142  0.0626 -0.1928
14896W        W34430  15.166  12.634  13.905 -0.0004  0.1324  0.2938
14897W        W34431  10.416   0.158  13.331 -0.4323  0.2918  0.0460
14898W        W34432   3.114   9.012  12.887 -0.0900  0.0704  0.1664
14899W        W34433   8.132   6.312   3.383 -0.2793 -0.1046 -0.0702
14900W        W34434  15.976   6.585  12.463  0.0740  0.1001  0.0083
14901W        W34435   6.075  16.262   3.280  0.1546  0.1622  0.1727
14902W        W34436  12.486  14.143  14.158 -0.1888 -0.0301 -0.3916
14903W        W34437   8.220   6.749  13.576 -0.1295 -0.1135 -0.0840
14904W        W34438   1.317   4.702  12.319  0.1729 -0.0013 -0.0115
14905W        W34439  15.410   1.253  12.609 -0.1788  0.0644 -0.0835
14906W        W34440   4.786  14.643   0.449  0.1819 -0.1589  0.0773
14907W        W34441  17.805  11.479  13.874  0.0399  0.1113  0.0822
14908W        W34442  15.405  14.607  13.227  0.0100 -0.1996 -0.0167
14909W        W34443  13.903  16.715   2.073  0.3098  0.2580  0.0303
14910W        W34444   3.588   1.764  13.126 -0.2062  0.0791 -0.0166
14911W        W34445   0.167   5.726   1.962  0.0688 -0.0602  0.3854
14912W        W34446   8.890   9.087   2.994 -0.0973 -0.1974 -0.0105
14913W        W34447  11.639  15.034  13.234 -0.0121 -0.0571 -0.0641
14914W        W34448  16.861  10.742  10.921  0.2888  0.2764 -0.2230
14915W        W34449   7.677   6.808  11.444 -0.1572  0.0113 -0.1094
14916W        W34450   9.355   9.685  12.600  0.2293 -0.1345 -0.0458
14917W        W34451   4.327  17.650   0.822 -0.0403  0.0326 -0.1863
14918W        W34452   1.547  18.934  11.454 -0.0628  0.0170 -0.1483
14919W        W34453  16.742   3.551   3.480  0.3156 -0.1994 -0.1673
14920W        W34454   2.413   5.737  13.533  0.3514  0.0056  0.1319
14921W        W34455  17.155  10.849   3.400 -0.2932  0.0596  0.0236
14922W        W34456   6.435   6.002   2.854 -0.0982  0.0090 -0.2244
14923W        W34457   0.514  10.251  14.500  0.0787  0.1151  0.1098
14924W        W34458   1.492   6.792  12.529 -0.3741  0.0981 -0.1051
14925W        W34459  10.938   3.529  12.340  0.0476  0.1248  0.0055
14926W        W34460   8.528  12.621  10.834  0.1784 -0.2135 -0.1100
14927W        W34461  13.481  13.486  11.826 -0.3587  0.0095  0.1729
14928W        W34462   1.501  13.019  14.228  0.0665 -0.3606 -0.1418
14929W        W34463  18.259  14.294  12.562 -0.1969  0.1619  0.3512
14930W        W34464   2.215  17.859   2.720 -0.2239  0.1633  0.0604
14931W        W34465  18.176  10.224   3.043 -0.5113  0.1520 -0.0592
14932W        W34466   3.937  13.971  13.300 -0.4128 -0.1363 -0.2511
14933W        W34467  13.875  18.073   2.021  0.3192  0.0041  0.0542
14934W        W34468   4.316   7.450   0.238  0.0342 -0.1846  0.1493
14935W        W34469  15.132   6.275  13.915  0.1416 -0.1557 -0.3197
14936W        W34470  16.511  17.725  13.567 -0.1839  0.2549  0.3182
14937W        W34471   7.113   6.397  12.132 -0.0054  0.5268 -0.0579
14938W        W34472  16.984   4.163  10.631  0.4654  0.1058 -0.2707
14939W        W34473  13.965  10.093  13.786 -0.0292  0.0568 -0.1878
14940W        W34474  15.579   3.359   1.575  0.1855  0.0788  0.1559
14941W        W34475  12.953  14.303  11.351  0.2047 -0.0833 -0.0093
14942W        W34476  11.303   6.279   0.353 -0.3064  0.0829  0.0370
14943W        W34477  14.203  10.274  14.587  0.2675 -0.1204 -0.4136
14944W        W34478  17.511   9.309   5.044  0.2964 -0.0612 -0.2786
14945W        W34479   7.123   8.120  13.840  0.1286  0.2680  0.1584
14946W        W34480   9.865  10.874   0.634  0.1238  0.2816  0.0747
14947W        W34481  16.589  13.696   9.544 -0.0837 -0.1270 -0.1372
14948W        W34482  18.730   8.100  11.001  0.0071  0.0136 -0.1015
14949W        W34483  11.436   0.264  10.799  0.0097 -0.1202  0.0061
14950W        W34484  18.699   4.395   0.388  0.3361  0.0192 -0.3305
14951W        W34485   4.923   0.622  13.423  0.0805 -0.5800  0.1246
14952W        W34486  16.629  18.973   5.114  0.0981  0.0856 -0.0267
14953W        W34487  12.560   8.421  14.058 -0.0508 -0.0141  0.2807
14954W        W34488   1.017   8.989   1.336  0.0618  0.0289 -0.0982
14955W        W34489   6.813  18.070  13.581  0.0165 -0.4387 -0.0550
14956W        W34490   4.785  11.203  14.800 -0.0568 -0.0551 -0.0598
14957W        W34491   6.681   5.539   2.897 -0.2832 -0.0898  0.2040
14958W        W34492   3.295  11.834  13.140  0.0372 -0.0118  0.1367
14959W        W34493  11.807  15.651   4.215 -0.1551  0.0699  0.1045
14960W        W34494  18.353  14.410   4.188 -0.2108  0.0081  0.0514
14961W        W34495   4.518   9.182   2.833 -0.0953 -0.1150  0.1823
14962W        W34496   7.297  18.474  12.510 -0.0513  0.1416  0.1740
14963W        W34497   3.268   5.243  11.415 -0.1477 -0.2072  0.1995
14964W        W34498   2.108  11.579  13.562  0.0178  0.1366  0.2327
14965W        W34499   8.805   6.436  14.809 -0.0430  0.1095  0.2225
14966W        W34500   9.315  13.388  12.425  0.0865 -0.4522 -0.0915
14967W        W34501   4.211  11.582   1.264 -0.1585 -0.1465 -0.1515
14968W        W34502   2.906  16.447  13.321  0.3345 -0.1283  0.0799
14969W        W34503  10.393   5.526   0.384 -0.0037 -0.0085  0.0567
14970W        W34504   1.277   5.621   0.080  0.0492 -0.3712 -0.1199
14971W        W34505   5.859  10.550  10.863  0.0119 -0.2587  0.2104
14972W        W34506  12.414   6.762  13.337 -0.0736 -0.5518 -0.1870
14973W        W34507  10.432  13.265  10.964 -0.1580 -0.1647  0.1994
14974W        W34508   0.733  14.012   1.977  0.0311 -0.2073 -0.1489
14975W        W34509   0.225  17.551  12.246 -0.0789 -0.2025 -0.6030
14976W        W34510   2.635  12.901   3.052  0.3451  0.1672 -0.0356
14977W        W34511  13.752   5.159   3.033 -0.0957  0.0614  0.1443
14978W        W34512  16.375  16.448  12.909 -0.1624 -0.0096 -0.1074
14979W        W34513   2.408   0.681   3.167  0.1856  0.0386  0.0486
14980W        W34514   3.040   7.680  14.675  0.1286  0.1894  0.0555
14981W        W34515   0.234   0.959   3.648  0.3499  0.3881 -0.2796
14982W        W34516   9.123  15.960  13.959  0.2409 -0.3546  0.1137
14983W        W34517  14.018  17.154  13.049 -0.0454  0.0717  0.1900
14984W        W34518  12.442   3.021   1.624 -0.2186 -0.0325 -0.3036
14985W        W34519  14.170   5.212   3.250  0.1910  0.1885  0.0414
14986W        W34520  15.988   5.174  12.568  0.1112 -0.1424  0.1034
14987W        W34521  16.962   6.896  11.672 -0.0451  0.1399  0.1452
14988W        W34522   9.255   8.912  13.225  0.0177  0.0857  0.3266
14989W        W34523  18.090   8.023  12.352 -0.1876 -0.1448  0.4709
14990W        W34524  11.700   1.491  11.648 -0.0523 -0.0345  0.0672
14991W        W34525   1.255   7.424   0.027  0.2967 -0.0166 -0.0623
14992W        W34526  11.489   0.685  12.635 -0.3345 -0.1782  0.1474
14993W        W34527  10.304  15.717  13.685  0.0714  0.1581 -0.0462
14994W        W34528  18.730   9.080  12.788 -0.0253 -0.2457  0.1044
14995W        W34529  10.608   8.415  14.358 -0.2809  0.0462 -0.2395
14996W        W34530  16.481   8.889   3.261  0.2426 -0.1427  0.0736
14997W        W34531  11.458  11.589   1.049  0.1320  0.2240  0.2598
14998W        W34532   0.411   5.195  13.380  0.5044  0.1109  0.0730
14999W        W34533  13.503  10.901   3.159 -0.1459  0.1545 -0.2362
15000W        W34534  18.977   7.160  14.032  0.0907  0.1019 -0.2667
15001W        W34535  18.686  10.649  14.385  0.2065  0.2262 -0.2613
15002W        W34536  12.749  16.523   1.617 -0.2128 -0.1079 -0.0468
15003W        W34537   7.678  17.576   2.606 -0.1901 -0.0781  0.2052
15004W        W34538  17.274   6.421  14.837  0.1847 -0.0567  0.1393
15005W        W34539   6.108   5.220  13.223 -0.1268 -0.1002 -0.1776
15006W        W34540  10.669   1.079  12.340 -0.2845 -0.3511 -0.2057
15007W        W34541   9.605  16.622  10.567 -0.1467  0.1803  0.1927
15008W        W34542  14.107  10.242  10.657 -0.1501  0.0359 -0.2209
15009W        W34543  18.463   5.201   3.024  0.0184  0.0047 -0.4391
15010W        W34544   6.397   4.800   3.423  0.0542 -0.1284  0.0390
15011W        W34545   7.888  14.532   2.993  0.1372 -0.2059 -0.3653
15012W        W34546  17.259   5.190   0.677 -0.2579  0.0018  0.1031
15013W        W34547  18.033   6.252  14.155 -0.0716  0.1540 -0.1138
15014W        W34548  12.377  14.146   3.168 -0.0086  0.0468  0.0865
15015W        W34549   8.832  18.792   4.025 -0.0990  0.0838 -0.2461
15016W        W34550  15.819  18.344   3.876 -0.0878 -0.3333  0.2813
15017W        W34551  11.706  13.112   2.594 -0.1196  0.6825 -0.1887
15018W        W34552   5.226  14.811   3.134 -0.1194 -0.3468  0.0529
15019W        W34553  12.406   1.832   2.251  0.2013  0.1780 -0.1836
15020W        W34554  10.198   1.833  10.822  0.0346  0.2119 -0.0637
15021W        W34555  18.328   3.442  11.450  0.0722 -0.4027 -0.1372
15022W        W34556   1.437  11.940   2.733  0.0602 -0.1431  0.0086
15023W        W34557   1.138   3.519  13.930  0.0086 -0.0004 -0.3188
15024W        W34558   4.142  16.259   1.862 -0.2205  0.1776 -0.1125
15025W        W34559  18.009  12.341   3.222  0.2501 -0.3373 -0.0008
15026W        W34560  15.697   1.329  13.940 -0.0387 -0.3801  0.0936
15027W        W34561   7.298  11.986   2.609  0.0208 -0.1418  0.1368
15028W        W34562  18.259   5.553   1.512  0.1528  0.1835  0.2471
15029W        W34563  15.620  11.288  13.072  0.0708  0.1536  0.2641
15030W        W34564  15.474   6.267  11.464  0.0264 -0.2501  0.3037
15031W        W34565  13.400  19.062  10.696 -0.0448  0.1413 -0.3093
15032W        W34566   0.903  16.174  14.633 -0.1502  0.3245 -0.0861
15033W        W34567  15.716   2.120  11.976  0.5041 -0.0128 -0.0269
15034W        W34568   5.233   5.341   0.367  0.3487 -0.0910 -0.0034
15035W        W34569  17.904   1.539  11.233 -0.4373  0.0293 -0.0419
15036W        W34570  11.925   0.516  13.558  0.1041  0.2709 -0.1714
15037W        W34571   8.077  18.168   3.139  0.0728 -0.2781  0.2467
15038W        W34572   5.842  10.387   4.233  0.0470  0.0719 -0.0352
15039W        W34573  15.539  18.121  14.556 -0.0501 -0.3949 -0.2485
15040W        W34574  11.993  17.625   0.291 -0.1009  0.1775 -0.1320
15041W        W34575   7.197   9.570   2.400 -0.1621 -0.4361 -0.2833
15042W        W34576   4.633   0.894  11.096  0.1572 -0.1805  0.0884
15043W        W34577   1.144  17.651  12.267 -0.3830 -0.0915 -0.0149
15044W        W34578  11.830   3.910  12.290 -0.0343  0.0791  0.1634
15045W        W34579   5.923  13.097  14.234  0.0892 -0.1222 -0.3749
15046W        W34580   9.073  14.674  11.585  0.1141  0.0992  0.0716
15047W        W34581   5.694   5.203  13.016 -0.2560  0.1544  0.0860
15048W        W34582   7.566  12.547  12.662  0.2368 -0.0722  0.1975
15049W        W34583   9.204   2.941   1.432  0.2857  0.0281  0.2119
15050W        W34584  16.727   6.966   5.147  0.2958  0.0694 -0.0108
15051W        W34585   1.713   6.288   2.140  0.1640 -0.0535 -0.0150
15052W        W34586  16.942   6.604   9.482 -0.3049  0.1499  0.1092
15053W        W34587   5.774   1.530  10.789 -0.2608  0.1093 -0.0448
15054W        W34588  14.590   3.112   3.443  0.0586  0.0203 -0.3899
15055W        W34589   9.864   2.450   2.080 -0.1078 -0.2712  0.2171
15056W        W34590   9.755   1.868  11.497 -0.1240  0.1539 -0.0608
15057W        W34591   1.004  16.550   0.484 -0.2371 -0.0936  0.2604
15058W        W34592  10.550  14.380   1.604  0.1092  0.0616 -0.1212
15059W        W34593   1.531  17.585   4.150 -0.1471 -0.1222 -0.0709
15060W        W34594   8.956  12.907   4.211  0.0814 -0.0041  0.1405
15061W        W34595  16.342  15.004   0.504 -0.0601 -0.2659 -0.1694
15062W        W34596   6.324  12.128   2.396 -0.0315  0.1079  0.1551
15063W        W34597  10.303   8.117  14.703  0.1107  0.0008  0.0557
15064W        W34598   2.822  14.027  12.327 -0.0166 -0.1904  0.1630
15065W        W34599  12.943   6.909   3.916 -0.0126  0.2086  0.0008
15066W        W34600   2.158   1.016  12.126 -0.1496  0.1765 -0.2014
15067W        W34601   9.749  15.034  14.618 -0.1676  0.2741 -0.2076
15068W        W34602   3.261   5.837  12.203 -0.1761 -0.0054 -0.1890
15069W        W34603   1.739  10.969   3.260 -0.1753  0.1639 -0.0461
15070W        W34604  15.718   7.752  11.390 -0.0951 -0.2446  0.1656
15071W        W34605   2.285   2.593  13.582 -0.3652 -0.0535  0.0914
15072W        W34606  16.125   8.088   3.193 -0.0465 -0.1575 -0.3494
15073W        W34607  16.694  12.669   4.989  0.2152 -0.2590  0.1399
15074W        W34608   7.102   6.501   4.767 -0.1873  0.3980 -0.1430
15075W        W34609  11.631   6.710  12.676 -0.3985 -0.0456  0.2543
15076W        W34610  12.544   8.217  12.561  0.2147 -0.1469 -0.0713
15077W        W34611   7.840   6.123   2.586  0.1962 -0.1664 -0.0679
15078W        W34612  13.396   7.837  10.613 -0.1332  0.0291 -0.1483
15079W        W34613  18.022   5.245   1.113  0.0169  0.1772  0.0709
15080W        W34614  17.652   2.157  12.578 -0.5047  0.0271 -0.4296
15081W        W34615   9.526  16.512   4.839 -0.1842 -0.1345 -0.2223
15082W        W34616  12.700   2.301  13.231  0.1042 -0.0467  0.1466
15083W        W34617  13.679  10.614   1.233  0.2813  0.0869  0.2006
15084W        W34618  10.738  10.638  11.106  0.0404  0.2359 -0.0104
15085W        W34619   3.331  13.263  11.392 -0.1331 -0.2271 -0.1562
15086W        W34620  17.424   4.608   2.616  0.0390 -0.3066  0.0856
15087W        W34621   3.530   6.931   1.697 -0.1369 -0.0726 -0.0942
15088W        W34622  19.019  17.409  12.664 -0.0352  0.0707  0.0828
15089W        W34623  12.073   9.315   2.484 -0.3090 -0.2506  0.0448
15090W        W34624  18.838   9.602  10.972 -0.0363 -0.2921 -0.1676
15091W        W34625  16.831  13.518  10.999  0.1076 -0.0590  0.0681
15092W        W34626  15.131   5.799  12.650 -0.0205  0.2028  0.0805
15093W        W34627   6.246  18.373   3.534 -0.4634  0.1687 -0.3739
15094W        W34628  18.215   5.504   9.636  0.2701  0.1350 -0.1933
15095W        W34629   4.649  15.182   3.862 -0.1792 -0.0064  0.0060
15096W        W34630   7.302   3.173   2.829  0.0693 -0.0055 -0.2538
15097W        W34631  18.564  10.497  10.813  0.0854  0.1784 -0.1350
15098W        W34632  12.220  18.641   0.847 -0.1477 -0.2924  0.0963
15099W        W34633   5.678   3.087  13.035 -0.1126  0.0564  0.1387
15100W        W34634  10.138  14.734   0.805  0.1986  0.0179 -0.2672
15101W        W34635  13.286  11.110   0.310 -0.1436 -0.0900 -0.0555
15102W        W34636  15.638  18.173  11.392  0.3861 -0.0609 -0.0625
15103W        W34637   0.219  15.110  14.097 -0.0712  0.0491 -0.1428
15104W        W34638   0.321  13.250   1.957  0.0243 -0.2359  0.1177
15105W        W34639   4.500   7.559  13.107 -0.0689 -0.0123 -0.3205
15106W        W34640  12.040  11.558  13.741 -0.3698 -0.1578  0.0041
15107W        W34641  15.369  11.270   4.050 -0.2430 -0.2626  0.0311
15108W        W34642   4.250  16.424   0.342 -0.0861  0.0875 -0.2440
15109W        W34643   5.909   3.241  11.953 -0.3769  0.2077  0.1154
15110W        W34644  16.555   9.138  14.045 -0.1536  0.1776 -0.0427
15111W        W34645   3.465   4.290   3.881 -0.3238 -0.0994 -0.0473
15112W        W34646   4.746  12.338  14.067  0.2958  0.3190 -0.3819
15113W        W34647  17.308  10.586  14.803  0.0058  0.3661 -0.1357
15114W        W34648  16.604   7.639   3.716  0.2604 -0.0266  0.3106
15115W        W34649   9.818  16.931   1.500 -0.3256  0.0047  0.1752
15116W        W34650  11.051  10.548   3.140 -0.0260 -0.0070 -0.2230
15117W        W34651   9.863  16.065  14.836 -0.2421  0.0720 -0.3078
15118W        W34652  14.205   4.842   2.873  0.1039 -0.0093  0.0041
15119W        W34653  13.562  14.463   1.958  0.0292  0.3200 -0.1460
15120W        W34654  10.402  15.117  14.375  0.1192  0.0289  0.2641
15121W        W34655  14.224  14.628  14.483 -0.1222  0.4074  0.1751
15122W        W34656  15.112   9.725   2.077  0.0652  0.1975 -0.0811
15123W        W34657   1.641  10.962   2.185  0.0829 -0.1423 -0.1088
15124W        W34658  17.270   5.744   4.777  0.0309 -0.0294  0.4237
15125W        W34659   2.581   8.410  13.883  0.2263  0.3514  0.2690
15126W        W34660  16.177   4.697  12.780 -0.1806  0.1944  0.1810
15127W        W34661  13.889  15.942   0.547 -0.0128 -0.1614  0.0470
15128W        W34662  12.938  17.482   1.426  0.3229 -0.3131 -0.1413
15129W        W34663   1.254   0.956  11.096  0.2389  0.1207  0.0593
15130W        W34664  18.683  18.995   4.356 -0.1053  0.2302  0.0226
15131W        W34665  10.197  16.710   4.151  0.1566  0.0707  0.1464
15132W        W34666  12.839  18.381   3.574 -0.2816 -0.2313 -0.1617
15133W        W34667   5.783  13.023   2.540  0.1371 -0.0068  0.1599
15134W        W34668   9.405  17.800   2.101 -0.2523  0.2987 -0.1309
15135W        W34669   1.678   9.599  13.988 -0.0736  0.0621  0.0317
15136W        W34670  17.807   1.985  14.465 -0.4183 -0.0280  0.1184
15137W        W34671  11.156   1.530   0.127 -0.2542 -0.1324  0.0250
15138W        W34672   5.680  15.156  12.655  0.0920 -0.1816  0.0665
15139W        W34673  11.398  14.597   2.853  0.1580 -0.1615  0.0215
15140W        W34674  19.107   0.117   0.958 -0.5096  0.0104  0.3905
15141W        W34675  16.125   3.262   2.792  0.1063  0.1980  0.1125
15142W        W34676   5.789   4.139   1.929 -0.1903  0.0305  0.1050
15143W        W34677  16.679   5.276  13.107 -0.2327 -0.1679 -0.0662
15144W        W34678   0.840   0.722  11.242  0.1896  0.1808  0.0842
15145W        W34679   9.599   1.427   1.119  0.1932 -0.1075  0.0090
15146W        W34680  10.565  16.139   1.006 -0.3423 -0.0470  0.1406
15147W        W34681  16.413   1.291  11.654 -0.1297 -0.1852 -0.0353
15148W        W34682   2.286  12.753  12.985 -0.0044 -0.1160  0.1214
15149W        W34683  13.277   6.056  12.434 -0.1316  0.1653  0.1554
15150W        W34684  13.717   2.095  13.322  0.0226 -0.1737 -0.1069
15151W        W34685  15.027  11.141   2.958  0.3147  0.1707 -0.1081
15152W        W34686  13.354  10.207   1.660 -0.0071  0.1330  0.1906
15153W        W34687   6.883   7.031  10.558 -0.2038  0.0918 -0.0036
15154W        W34688   9.331   9.230   0.284 -0.0462  0.1184  0.0259
15155W        W34689  10.011  12.610  12.536 -0.1007  0.0638 -0.1645
15156W        W34690   4.923  14.179  13.169 -0.3313  0.4076 -0.2310
15157W        W34691   9.477  18.859  13.101 -0.1347 -0.2479  0.1891
15158W        W34692  11.534   2.201   3.592  0.1604 -0.1999 -0.0805
15159W        W34693   5.113  16.002   0.728 -0.0464  0.1637 -0.1642
15160W        W34694  11.193   3.035   4.545  0.0928  0.0956  0.2157
15161W        W34695   7.635   6.982  14.182 -0.4786  0.1131 -0.1876
15162W        W34696  14.078  15.928  14.266  0.0232  0.0006  0.1298
15163W        W34697  15.963  19.076   2.545 -0.2070  0.1763  0.0843
15164W        W34698  12.765  15.017  14.735 -0.1253 -0.0327  0.0709
15165W        W34699  16.194  12.726   2.248 -0.0444  0.0792 -0.2360
15166W        W34700   0.406  14.912   0.928  0.1469  0.2707 -0.2054
15167W        W34701  10.790  14.535  10.904  0.2726  0.0966 -0.2797
15168W        W34702  11.180   6.671  13.944  0.0146 -0.1831 -0.0502
15169W        W34703   4.850   0.800   0.797 -0.3023  0.0706 -0.0878
15170W        W34704  17.609  18.745  13.063  0.1381 -0.1345 -0.2361
15171W        W34705   5.242  17.699   3.266  0.0985 -0.1223  0.0019
15172W        W34706   0.767   1.446   2.719  0.1678  0.0176 -0.0803
15173W        W34707  14.442  11.707  12.482  0.0776 -0.0417  0.0976
15174W        W34708   0.437  16.857   3.885 -0.1083 -0.4214 -0.0214
15175W        W34709   2.717  10.506   2.604  0.3078 -0.1931 -0.0629
15176W        W34710  18.475  10.594   9.481  0.3227  0.1635  0.0322
15177W        W34711   2.384   8.880  14.576  0.1404  0.0489 -0.0670
15178W        W34712   6.204  17.980   0.505  0.1843  0.2965 -0.0321
15179W        W34713  18.605   5.469  13.268  0.1563  0.0473 -0.1465
15180W        W34714   8.828   8.991  11.534  0.0097 -0.0384 -0.0250
15181W        W34715   6.595   6.284   0.804 -0.1608  0.0731 -0.2298
15182W        W34716  19.078  10.120  13.613  0.2142  0.3567 -0.1083
15183W        W34717  11.183  12.098   3.876 -0.0056 -0.2200  0.0399
15184W        W34718   6.316  17.183   1.914 -0.3320 -0.1854 -0.1701
15185W        W34719   0.487   1.029  10.608 -0.0087 -0.1783  0.0691
15186W        W34720   4.223  13.505  14.159 -0.1051  0.0563  0.1489
15187W        W34721   2.583  17.661   1.254  0.0572 -0.5085  0.0299
15188W        W34722  10.400   5.548  13.202 -0.3219  0.1424  0.3659
15189W        W34723  16.997   3.729  13.295  0.0027  0.3616  0.1264
15190W        W34724   9.960  15.588  14.745 -0.1416 -0.1791  0.0461
15191W        W34725   8.102   8.521   4.023 -0.3292 -0.2940 -0.2405
15192W        W34726   5.881   4.417   0.782 -0.0751 -0.2551 -0.0223
15193W        W34727   4.760   4.431  11.908  0.0781 -0.0776 -0.3435
15194W        W34728  11.355  15.793   3.819  0.1549 -0.1387 -0.1502
15195W        W34729   6.503   5.163  12.945 -0.2609 -0.2862 -0.0620
15196W        W34730  13.152  11.607  11.537  0.3836 -0.3052 -0.0078
15197W        W34731   0.813   7.466   2.975 -0.0163  0.1655 -0.3213
15198W        W34732   5.608   0.959  11.960 -0.0441  0.1073  0.3211
15199W        W34733   4.003  15.392  13.330  0.2682 -0.0016 -0.2119
15200W        W34734   1.648  18.916  12.118 -0.1638 -0.0687 -0.1126
15201W        W34735  14.503  13.763  12.098 -0.2989 -0.2617  0.3206
15202W        W34736   8.677  10.226  11.439 -0.3696 -0.0815 -0.0362
15203W        W34737   4.609  16.234   3.612  0.0987 -0.0714  0.2428
15204W        W34738   5.239   8.840  14.226  0.0601  0.3321  0.0642
15205W        W34739   9.317   8.088   0.144 -0.2422 -0.1311  0.0086
15206W        W34740   9.055  13.179   2.667 -0.0296 -0.1805 -0.2617
15207W        W34741  10.316   1.880  14.290  0.4901 -0.1138  0.4556
15208W        W34742   6.093  11.460  14.370  0.0792  0.0067 -0.0133
15209W        W34743  10.939   6.044  10.455  0.1363 -0.2971 -0.0379
15210W        W34744   9.777   6.547   0.081  0.2186 -0.1463  0.0655
15211W        W34745  11.793  12.624   2.390 -0.1275 -0.0595 -0.0779
15212W        W34746   9.171   5.317   0.733  0.0463 -0.0141  0.0088
15213W        W34747   5.616  11.594  12.220  0.0490  0.0778  0.0496
15214W        W34748   1.529   1.071  13.358  0.1418 -0.0109 -0.0538
15215W        W34749   8.725  10.485  14.245 -0.3194  0.2434  0.2859
15216W        W34750   9.425  15.826   0.059 -0.1009  0.3719  0.0385
15217W        W34751   9.724  12.842  11.079 -0.1977  0.0454  0.3663
15218W        W34752  16.681   2.383  13.589 -0.2101  0.4785  0.0800
15219W        W34753   0.857  17.311  12.542  0.2550  0.0313 -0.2128
15220W        W34754   5.099  12.313   5.261 -0.0773  0.0513  0.2349
15221W        W34755   2.778   2.570  13.763 -0.2363  0.0144  0.1548
15222W        W34756  11.780   2.197   1.525 -0.1469 -0.4833  0.1311
15223W        W34757   7.356   3.975   1.312  0.2675 -0.0932 -0.0837
15224W        W34758   1.592   5.185   2.915 -0.1472 -0.0246 -0.2034
15225W        W34759  17.578   8.980  14.206 -0.0256 -0.0060  0.1387
15226W        W34760  13.650   2.578   2.616 -0.0369  0.3114  0.1320
15227W        W34761   8.547   3.966  14.441  0.0358 -0.0119 -0.0673
15228W        W34762   4.463   2.894   4.090  0.1940  0.0704 -0.2044
15229W        W34763  19.041   7.737   1.605  0.1873  0.0046 -0.0723
15230W        W34764  18.273  12.832  14.768 -0.4156 -0.1192 -0.3721
15231W        W34765   0.856  12.938   4.148  0.1010  0.0197 -0.1385
15232W        W34766  11.642  14.430   2.441 -0.1658  0.1779 -0.1693
15233W        W34767  11.683  17.695  12.563  0.3338 -0.3465  0.2878
15234W        W34768   6.253  17.194   4.322 -0.1076  0.1529  0.0059
15235W        W34769  11.887  13.395  13.131  0.0003  0.1352 -0.1248
15236W        W34770   0.086   9.651   0.626 -0.2723 -0.0485  0.2507
15237W        W34771   8.111   1.290   2.878 -0.3751 -0.1730  0.3920
15238W        W34772   7.934  16.835   1.650 -0.1781  0.1492  0.1846
15239W        W34773   2.072  15.929  11.745 -0.2224  0.1850 -0.1598
15240W        W34774   7.063  15.227   4.488 -0.2995  0.0622  0.2265
15241W        W34775  11.009  14.148  12.711  0.0155  0.0189 -0.0143
15242W        W34776   3.276  18.677   1.422  0.2413  0.1622  0.0843
15243W        W34777   2.594  18.819   2.036  0.2039 -0.0791 -0.0389
15244W        W34778   0.573   2.114  13.005 -0.2708  0.0275 -0.0609
15245W        W34779  18.087  16.435  13.129 -0.0223 -0.2467  0.3113
15246W        W34780  12.560   7.398  11.625  0.1059 -0.2017  0.2150
15247W        W34781   3.103   8.589   4.996  0.0395  0.3809 -0.0986
15248W        W34782  10.677   3.823   0.849  0.0311 -0.1934 -0.1040
15249W        W34783   4.276  16.730  14.794  0.2429  0.0852  0.2263
15250W        W34784   0.597  17.251   4.173 -0.0152  0.0432  0.2762
15251W        W34785  17.730   4.211  11.440 -0.0921 -0.4672 -0.0380
15252W        W34786  10.983  15.104  14.789 -0.0356  0.0277  0.1144
15253W        W34787  10.966  18.288   0.799  0.1839  0.0845 -0.1597
15254W        W34788   1.078  17.373   9.793 -0.1748  0.0388 -0.2375
15255W        W34789  14.298   4.382   1.583 -0.1690 -0.1276 -0.3146
15256W        W34790   6.399   3.220   0.241 -0.0781  0.1549 -0.1561
15257W        W34791   7.318  12.487  11.277  0.0415 -0.2666 -0.2294
15258W        W34792  16.840  11.622  14.173  0.2051 -0.1318 -0.1405
15259W        W34793   7.423  10.752  14.169 -0.3641 -0.0227 -0.0159
15260W        W34794  11.400   5.045   3.529  0.2420  0.0446  0.0793
15261W        W34795  12.559   2.152  13.685  0.0833 -0.0194 -0.0063
15262W        W34796  18.528   8.294   0.981  0.0023 -0.1653 -0.2517
15263W        W34797  17.262  12.469  10.837  0.0405  0.2312  0.0007
15264W        W34798   3.383  13.371   1.138 -0.1222 -0.2777  0.0733
15265W        W34799   2.092  10.853   3.955  0.1770 -0.1429  0.2485
15266W        W34800   1.828  14.691   0.563  0.1185  0.1119  0.0592
15267W        W34801   5.021  16.692   2.278  0.2434  0.1631 -0.0088
15268W        W34802  18.263   7.999   3.709 -0.2453 -0.2825  0.0959
15269W        W34803   1.959  10.113  14.494 -0.0587 -0.0856 -0.0741
15270W        W34804   9.992   6.360  12.495  0.0971 -0.1071 -0.2514
15271W        W34805  19.027   3.935  14.742 -0.0343 -0.0496  0.0556
15272W        W34806   3.167   8.026  11.707 -0.1315  0.1196 -0.1758
15273W        W34807  10.247  16.754  10.689 -0.3416 -0.0245 -0.0264
15274W        W34808   1.289   6.255   2.380 -0.3962 -0.1787 -0.0158
15275W        W34809  19.076  18.974  13.343  0.0956 -0.1063  0.0724
15276W        W34810   4.388  15.459   0.584  0.3247 -0.3256 -0.1555
15277W        W34811  18.009  16.591   0.115 -0.1870  0.2330 -0.2790
15278W        W34812   0.284  17.250  13.243  0.2308 -0.0571  0.0601
15279W        W34813   1.213   0.334   3.345 -0.0615  0.0857 -0.1822
15280W        W34814  14.413  17.085   0.613 -0.0544 -0.1314 -0.1621
15281W        W34815  11.915   3.267   0.808  0.0096  0.0802 -0.2809
15282W        W34816  11.710   5.476   0.836 -0.1257 -0.0918  0.0102
15283W        W34817   0.558  11.913   1.735  0.4252 -0.3377 -0.0100
15284W        W34818  16.440   0.401  12.117  0.0004 -0.2293 -0.2368
15285W        W34819   4.728  13.470   3.542  0.1551 -0.0427 -0.0419
15286W        W34820  16.013   8.525   4.981 -0.3777 -0.2192 -0.1881
15287W        W34821   9.097   6.878  14.580  0.1094  0.2668  0.0478
15288W        W34822   7.153  16.413  11.504  0.0036 -0.2637  0.3023
15289W        W34823  16.931   1.428   0.805  0.3890 -0.2144  0.0523
15290W        W34824  14.598   3.017  13.322 -0.0778  0.1316 -0.1527
15291W        W34825  14.822   8.520  14.474  0.1211 -0.0300 -0.2404
15292W        W34826   6.485   1.959  13.768  0.2498  0.1800 -0.2109
15293W        W34827  15.806  17.773  12.067 -0.2704  0.0899  0.1407
15294W        W34828  19.015  16.956   0.239  0.0611 -0.1759 -0.0628
15295W        W34829   7.393  14.311   0.309  0.0177 -0.3804  0.1221
15296W        W34830   0.766   0.942   3.701  0.2100 -0.1837  0.3669
15297W        W34831   5.036   2.215  10.706  0.0696 -0.0977  0.2729
15298W        W34832   6.228   5.868   0.658  0.0244  0.2608 -0.0462
15299W        W34833   5.287  10.725   3.170  0.0815 -0.2518 -0.2781
15300W        W34834   6.301   5.471   9.783  0.2307 -0.1142 -0.2206
15301W        W34835  11.147   4.540   1.896  0.0290 -0.2006 -0.4047
15302W        W34836  17.780   6.402   0.752  0.0018 -0.1864 -0.3714
15303W        W34837   0.367   1.854   1.638  0.2993 -0.1044  0.0386
15304W        W34838  13.387   2.641   3.767  0.0691 -0.1298 -0.0673
15305W        W34839   7.937   8.958   0.235 -0.0338 -0.2206  0.1792
15306W        W34840   5.845   8.352  13.134  0.2031  0.0335 -0.0925
15307W        W34841   4.105   7.535  13.391  0.0975 -0.1922 -0.2872
15308W        W34842   4.091   1.761   4.841  0.1184 -0.0016  0.4058
15309W        W34843  13.356  17.724   2.979  0.1174 -0.2181  0.2493
15310W        W34844   8.518   3.407   3.382  0.0123 -0.0839 -0.1640
15311W        W34845  14.898   7.867   0.220  0.1135  0.0960 -0.2416
15312W        W34846   7.844  10.648  11.395  0.1118 -0.1308 -0.0673
15313W        W34847   1.668   4.727  10.690  0.0658 -0.1464  0.3702
15314W        W34848   6.679  11.376  11.192  0.0614 -0.2042  0.2827
15315W        W34849   3.384  18.211  11.327 -0.1606 -0.0306  0.2104
15316W        W34850  11.810   2.507   0.212  0.1851  0.0775 -0.0852
15317W        W34851  15.918  14.408  11.471 -0.2335  0.0257 -0.2599
15318W        W34852   3.195  13.311  13.643 -0.1122  0.2301  0.2156
15319W        W34853  15.283   9.443  12.339 -0.0608  0.3046 -0.0812
15320W        W34854   1.839   9.451  13.102 -0.3345 -0.2999  0.3934
15321W        W34855   4.800   3.413  10.767  0.0994 -0.0031 -0.0361
15322W        W34856  17.234   9.447   1.522 -0.1078  0.1806 -0.3715
15323W        W34857   0.516  11.055   0.212 -0.0588  0.3458  0.0805
15324W        W34858  12.053   3.075   2.003  0.1811 -0.0074  0.1508
15325W        W34859  15.458  15.939  14.110  0.0724  0.0939  0.0411
15326W        W34860  18.248   8.132  12.806 -0.3517 -0.2075 -0.3462
15327W        W34861   9.059   7.878  13.263  0.1102  0.3400 -0.1868
15328W        W34862  12.250  10.389   1.358 -0.0031  0.5615 -0.1129
15329W        W34863  10.653   5.572   1.597  0.0359 -0.0297  0.1983
15330W        W34864   3.509  12.719  12.248 -0.3499 -0.1479 -0.1163
15331W        W34865   7.988   7.302   1.390 -0.0171 -0.0586 -0.1456
15332W        W34866  12.556   1.298  13.522 -0.0496  0.0107  0.1157
15333W        W34867   2.777   2.420  14.614 -0.1091  0.1230  0.0693
15334W        W34868  12.698  11.278  14.784  0.1433 -0.1084 -0.1112
15335W        W34869   7.610   9.817   1.127  0.1601 -0.3294  0.0144
15336W        W34870  16.628   9.479  13.418  0.1501  0.0652  0.0525
15337W        W34871  17.414   9.864   1.275 -0.1824 -0.0455 -0.0700
15338W        W34872  13.419   4.801  11.603  0.0125 -0.2416 -0.1836
15339W        W34873  14.289   4.185  14.804  0.3437 -0.1200 -0.2171
15340W        W34874  17.991  12.772   1.873 -0.1031  0.0675  0.1528
15341W        W34875  17.782   2.847  11.183 -0.1181  0.2941  0.0218
15342W        W34876   4.863   0.552   4.042  0.0278 -0.2018 -0.0318
15343W        W34877   6.643  16.662  14.578  0.2360 -0.1283  0.0637
15344W        W34878   4.217   4.350  12.432 -0.0116  0.2982  0.2637
15345W        W34879   3.395   8.676   1.533  0.1290  0.1143 -0.1114
15346W        W34880  16.610   8.816  11.642  0.2103  0.1835 -0.0288
15347W        W34881  14.670   2.152   1.139  0.1334  0.0588  0.3595
15348W        W34882  12.181  12.916  12.463  0.2125 -0.4175  0.2560
15349W        W34883  17.147  13.663  13.052  0.1075 -0.0670  0.0550
15350W        W34884  15.929  14.601   4.384 -0.0008  0.1949 -0.0048
15351W        W34885  16.953  17.214   4.521  0.1994 -0.1981 -0.2465
15352W        W34886  18.829   6.179   3.216  0.4491 -0.1378 -0.5413
15353W        W34887  14.653  16.385   0.574  0.1536 -0.2582  0.0695
15354W        W34888   5.266  18.506   2.779  0.0243  0.0451  0.3713
15355W        W34889  12.916  16.037   1.632  0.1333 -0.0989 -0.0542
15356W        W34890   1.515   8.611   1.449  0.1675 -0.1911  0.1321
15357W        W34891   3.076   8.404   3.450 -0.0386 -0.3558  0.0459
15358W        W34892   8.483  11.088  12.060  0.1229 -0.2090  0.0587
15359W        W34893   1.198  13.191  13.020 -0.0711  0.4100  0.1901
15360W        W34894  18.175  12.399  11.509  0.0862  0.0807  0.2810
15361W        W34895  17.045  18.665  11.340  0.1420 -0.1397  0.3137
15362W        W34896  12.551   9.054  13.354  0.0897 -0.1138  0.1471
15363W        W34897   5.057   5.013   1.374 -0.2086 -0.2931 -0.2886
15364W        W34898   9.420  13.947   1.701  0.1165 -0.1119  0.1405
15365W        W34899   1.534   7.403   0.948 -0.1669 -0.0458  0.2478
15366W        W34900  11.242   0.474   2.007 -0.1606  0.0913 -0.1019
15367W        W34901  18.855   8.406   2.446  0.1123 -0.5475 -0.2054
15368W        W34902   6.527  18.620  11.839  0.1684  0.1176 -0.1373
15369W        W34903   1.241  17.433   0.872 -0.1457 -0.0330  0.1049
15370W        W34904  11.873  15.008  13.794 -0.0169  0.2564 -0.0494
15371W        W34905   6.420  11.615  12.686  0.0410 -0.2258 -0.0364
15372W        W34906   1.377   6.998   2.646 -0.1964  0.1122 -0.5475
15373W        W34907  11.888   6.007  12.948  0.2411 -0.0265 -0.3278
15374W        W34908  15.528  17.384  11.728 -0.1380 -0.2710  0.0380
15375W        W34909  16.290   1.183  10.648 -0.0112  0.3139  0.1421
15376W        W34910  10.688  13.445   2.636 -0.2917  0.1023 -0.4559
15377W        W34911   6.072  10.505   1.028 -0.1059  0.1432  0.2520
15378W        W34912   4.980  13.050  11.866 -0.1605 -0.0293 -0.1521
15379W        W34913  14.412  14.028  12.531 -0.4304 -0.0764  0.2480
15380W        W34914  10.858  18.536   1.783  0.0473  0.1427  0.1600
15381W        W34915   1.538   2.306   9.315 -0.4186 -0.0422 -0.2437
15382W        W34916  13.359  17.583  14.689 -0.0533 -0.0686 -0.0688
15383W        W34917  13.349   3.467   3.492  0.0779 -0.3976  0.2170
15384W        W34918   0.236  14.721  13.274  0.3090 -0.1254 -0.3337
15385W        W34919  15.616  10.957  11.416  0.0101  0.0957  0.1330
15386W        W34920  10.317  14.191   4.159 -0.0707  0.0504  0.1414
15387W        W34921   2.872  11.537  13.068 -0.1218 -0.1000  0.0788
15388W        W34922   3.406   3.481  14.474  0.0314  0.0975  0.1399
15389W        W34923  10.049   9.416   2.921 -0.0985  0.3789  0.0204
15390W        W34924   0.401   5.702   1.053 -0.0348  0.3762 -0.2593
15391W        W34925  16.296  10.503  13.431 -0.1353  0.1452 -0.1126
15392W        W34926   5.330   4.472   1.578  0.3110 -0.0614 -0.0164
15393W        W34927  10.662   5.852  13.443 -0.1269 -0.1627 -0.1629
15394W        W34928  17.638  12.369   3.759 -0.1848 -0.2329 -0.2195
15395W        W34929  17.898   4.785  14.812  0.1271  0.0158 -0.2134
15396W        W34930   1.458  14.948   1.509  0.2961 -0.1230  0.2051
15397W        W34931   4.190   8.221   0.165  0.0960 -0.1350  0.1069
15398W        W34932   5.994   8.956   1.367 -0.0452 -0.0923  0.3830
15399W        W34933   3.809   7.950  13.630  0.1822  0.3229 -0.0339
15400W        W34934  17.548  15.975   3.035  0.2830  0.0571 -0.1941
15401W        W34935   0.386  17.591  14.265  0.2619 -0.0802 -0.1342
15402W        W34936   6.349  13.830   0.286 -0.0184  0.0288  0.0627
15403W        W34937   8.779   1.912   1.272 -0.0225 -0.0186  0.1836
15404W        W34938  15.377   8.557  14.281  0.1857  0.0598 -0.3539
15405W        W34939   9.256   2.661  12.406 -0.3539 -0.0759  0.1758
15406W        W34940  18.255  14.843   3.932 -0.1518 -0.0168  0.3329
15407W        W34941  18.941   9.834   1.774 -0.0059 -0.1328  0.1435
15408W        W34942  13.615  16.139   4.302 -0.1133  0.2181  0.2602
15409W        W34943  10.928   4.002   0.381  0.2050 -0.1146 -0.0444
15410W        W34944  17.293  16.318  14.672  0.2532  0.0944 -0.2151
15411W        W34945   6.301  18.127  12.778 -0.1117 -0.2596  0.0925
15412W        W34946  11.012   3.513   1.123  0.0513 -0.2634 -0.0874
15413W        W34947   2.503  13.180  12.133  0.1806  0.1611 -0.1028
15414W        W34948   1.069  12.471   4.107  0.1004 -0.0170 -0.2059
15415W        W34949   7.038   7.365   1.240 -0.0380 -0.0188  0.1525
15416W        W34950  10.801   6.773  12.780  0.2325 -0.1551 -0.1730
15417W        W34951   6.134  12.663  11.728  0.0869  0.1103  0.4440
15418W        W34952  18.464  15.308   2.339  0.2733 -0.0401 -0.0431
15419W        W34953   8.720   3.945   2.617  0.2497 -0.1457 -0.0534
15420W        W34954   8.164   8.104  14.710 -0.0761 -0.2736 -0.1699
15421W        W34955  17.357   3.838   1.784 -0.1799 -0.1311  0.0968
15422W        W34956  13.896  10.872   2.049 -0.0338  0.0368 -0.0723
15423W        W34957  14.492  18.182  11.188  0.0293  0.0090 -0.1816
15424W        W34958  16.335   4.592  14.112  0.0083  0.0137  0.1358
15425W        W34959  13.649  10.482  13.479 -0.1225 -0.1299 -0.0520
15426W        W34960  10.054   0.597   3.164  0.1754 -0.0117  0.0620
15427W        W34961   1.961  14.983  14.003 -0.2439 -0.0006  0.1821
15428W        W34962  16.335   0.095   3.183  0.0872  0.0653  0.1279
15429W        W34963   5.102  10.732   0.065  0.2666 -0.0909 -0.0327
15430W        W34964   3.365   6.358   4.668  0.5472  0.1163  0.1248
15431W        W34965  16.772  15.931   2.538  0.0910  0.1318  0.3618
15432W        W34966   0.697   8.309   0.289 -0.1484 -0.0097 -0.0297
15433W        W34967   6.895  15.448   2.287  0.1655  0.0274  0.0687
15434W        W34968  16.531   5.226   3.451 -0.0561 -0.3309 -0.0161
15435W        W34969   8.152   8.127   3.258  0.1386 -0.0666  0.0282
15436W        W34970   6.407  18.151  11.957  0.1463  0.1463 -0.1427
15437W        W34971   5.995   8.139   1.754  0.2285  0.2446  0.1066
15438W        W34972   9.176   9.009  11.975  0.1951 -0.1689 -0.2709
15439W        W34973   4.048   3.201   3.142  0.0356 -0.4562 -0.1220
15440W        W34974  12.963   7.335  12.431  0.2446 -0.0652 -0.1824
15441W        W34975   3.670  12.258   2.850  0.0779  0.0491 -0.0938
15442W        W34976  14.310   4.123  13.984  0.0525  0.1347 -0.0225
15443W        W34977   3.563   4.118  11.432 -0.2611  0.0580  0.1058
15444W        W34978  17.384   1.720   2.118  0.0735  0.2445 -0.0631
15445W        W34979  10.284  18.757   2.257  0.1732  0.0761  0.4412
15446W        W34980  17.220   4.918  11.767 -0.1012 -0.1050  0.3059
15447W        W34981  11.164  14.471   0.903  0.1256 -0.0437 -0.0151
15448W        W34982   1.258  15.285  11.634 -0.2813  0.0185  0.0356
15449W        W34983   1.281  10.925   2.622 -0.2046 -0.0515  0.0561
15450W        W34984   3.197  17.305   0.683 -0.4215 -0.0381 -0.1945
15451W        W34985  10.634   0.181   4.317  0.2146 -0.1141 -0.0878
15452W        W34986   6.297   3.121  13.768 -0.2045 -0.0642 -0.1288
15453W        W34987   8.827   3.151   3.081 -0.0712  0.0429 -0.2386
15454W        W34988   5.823   8.749  10.911  0.0042  0.1815  0.3103
15455W        W34989  11.007   9.303   3.707  0.2044 -0.3133  0.1849
15456W        W34990   5.170  14.376   2.087  0.4075 -0.2104  0.0226
15457W        W34991   5.288   4.558  13.172 -0.2112 -0.1390 -0.0398
15458W        W34992   6.608  12.839   3.975  0.1678  0.0449  0.1492
15459W        W34993   8.486   8.235  11.834  0.0292 -0.0732 -0.0633
15460W        W34994   7.880  16.465   4.050  0.3700  0.2163  0.2806
15461W        W34995   9.955  15.416   0.721 -0.1426 -0.0289  0.0080
15462W        W34996  17.206  17.696   9.934 -0.3035  0.1722  0.0365
15463W        W34997  10.941  11.647   4.126 -0.0163  0.0217  0.2138
15464W        W34998  13.487   0.154  14.566  0.2354 -0.0469  0.1189
15465W        W34999  14.462  14.657  13.888  0.2684 -0.0345  0.0161
15466W        W35000  11.930   9.420  11.805  0.0595  0.1399  0.0464
15467W        W35001   7.467  11.436   0.949  0.2164  0.2824 -0.0851
15468W        W35002   0.517  17.854   1.468  0.4519 -0.1710  0.3005
15469W        W35003   7.429   4.464   1.591  0.3467 -0.3558  0.0221
15470W        W35004  19.022  18.937   2.937 -0.2272 -0.0399  0.1477
15471W        W35005  13.124   3.949  10.852 -0.2995 -0.4989  0.2852
15472W        W35006  17.912   2.642  13.959  0.0464 -0.0915  0.1007
15473W        W35007  11.140  17.617  13.427 -0.2985 -0.1657  0.0402
15474W        W35008   7.471  11.085  11.457 -0.0247 -0.0769 -0.1481
15475W        W35009   6.369   1.053  13.498  0.2571  0.2903  0.0495
15476W        W35010   4.967  16.266   3.212  0.0538  0.0212  0.0577
15477W        W35011  13.283   8.784  12.774  0.1810 -0.2569  0.1451
15478W        W35012  11.883   7.390  14.621  0.0657 -0.2486 -0.1919
15479W        W35013   4.543  10.820   0.269  0.1804  0.1360  0.1224
15480W        W35014   0.551   4.675   2.990 -0.3164 -0.2338  0.2033
15481W        W35015  11.801  18.919   5.713  0.0466 -0.1479 -0.0236
15482W        W35016   8.121   8.675   1.320 -0.0164  0.2070 -0.3695
15483W        W35017   5.532  15.159   1.371 -0.0306 -0.1484 -0.0216
15484W        W35018  16.030   8.004  11.775  0.4382  0.0189  0.0487
15485W        W35019   5.906  12.343   3.082 -0.1263  0.0553 -0.2077
15486W        W35020   4.131  16.569  11.604  0.1792 -0.0576 -0.2741
15487W        W35021   9.046   0.553   1.552  0.2385 -0.0860 -0.2174
15488W        W35022   0.524   9.282   1.884 -0.0613 -0.2689  0.0751
15489W        W35023  12.962  17.974  12.547 -0.0231  0.1205 -0.2515
15490W        W35024   3.519  11.259  14.261  0.0397  0.2718  0.3609
15491W        W35025   2.268   0.289  12.637 -0.0493 -0.1770  0.1933
15492W        W35026  10.653   9.795   1.353  0.3726 -0.1472 -0.3412
15493W        W35027  15.311  10.124   3.273 -0.0037  0.0148  0.0455
15494W        W35028   2.202  16.764   4.127  0.2582  0.0541 -0.0843
15495W        W35029   3.407  13.699  11.580  0.0825  0.1383 -0.1002
15496W        W35030   8.333   5.697  12.640  0.1109 -0.1928  0.0661
15497W        W35031  12.434   7.423   2.554 -0.1580  0.1368  0.2259
15498W        W35032   9.234   2.094   1.873  0.1402  0.3336  0.0093
15499W        W35033  10.877   8.328   3.502  0.0228 -0.2969 -0.1503
15500W        W35034  17.791  13.207   2.018 -0.4568  0.3707 -0.0645
15501W        W35035   7.910   4.339   0.475 -0.3635  0.1351  0.0811
15502W        W35036   9.098  12.787   3.314  0.0667  0.7533  0.1893
15503W        W35037  16.987  11.115  10.562 -0.0834 -0.4155 -0.0819
15504W        W35038   9.438  12.395  10.777 -0.1036 -0.1384 -0.1276
15505W        W35039  12.643  12.766   2.346  0.0761 -0.2214 -0.1665
15506W        W35040   4.928   7.557   1.044 -0.0139  0.0460  0.2235
15507W        W35041   9.844   1.134  14.803 -0.1008  0.0059  0.1225
15508W        W35042   5.542  10.573  11.277  0.0011  0.0059 -0.1181
15509W        W35043   0.048   6.093  14.584  0.2720  0.0196 -0.0593
15510W        W35044   0.482   4.198   9.766  0.0475 -0.1225  0.0037
15511W        W35045   9.600  16.460   1.573 -0.5174 -0.1287  0.0775
15512W        W35046  15.448   2.015  11.066  0.0960 -0.0485  0.4033
15513W        W35047  18.688  18.713  13.230 -0.0820 -0.1200 -0.1157
15514W        W35048  11.267  16.598   1.969  0.2489 -0.0517 -0.2324
15515W        W35049  11.066  14.260   2.641 -0.0510  0.0189  0.1607
15516W        W35050   7.687  13.295  14.225 -0.0041  0.0436 -0.0118
15517W        W35051   8.504   6.287  11.826  0.1616 -0.0717  0.0187
15518W        W35052  11.045  15.283   3.298 -0.0377  0.0941 -0.3159
15519W        W35053   0.736   9.301  12.293  0.2056 -0.1244  0.1288
15520W        W35054  10.747   9.007   2.778 -0.0079 -0.1295  0.0462
15521W        W35055  10.891  10.281   1.451  0.2261  0.3424 -0.0023
15522W        W35056   4.905  14.312   0.067  0.0390 -0.0167  0.3066
15523W        W35057  13.897   6.138   3.785  0.2776 -0.0255  0.1770
15524W        W35058   7.243   0.183   9.642 -0.0140 -0.2028  0.1204
15525W        W35059  14.816   3.073   2.481 -0.3630  0.3471  0.0180
15526W        W35060  15.386  12.934  12.266  0.0570  0.2572 -0.3159
15527W        W35061   8.473  16.679   0.845  0.0625 -0.0069  0.0799
15528W        W35062   6.922  18.443  12.136  0.1212  0.3580 -0.1042
15529W        W35063   0.590  14.917  12.154  0.0549 -0.1216 -0.2124
15530W        W35064   8.444   4.602  11.925 -0.1766  0.0060  0.2817
15531W        W35065  12.477   0.327   3.926 -0.2521  0.0770  0.1688
15532W        W35066   7.234   6.858   4.457  0.0726 -0.2610  0.1878
15533W        W35067   3.515   0.818   0.134  0.0314 -0.3272 -0.1027
15534W        W35068   8.600  10.395   0.171  0.3523 -0.1126 -0.0754
15535W        W35069   4.294   5.119  14.127 -0.2002  0.1223 -0.1228
15536W        W35070   7.943   6.629   4.660  0.1177  0.2571  0.1127
15537W        W35071   6.100  17.799   4.484  0.0651 -0.2379 -0.0291
15538W        W35072   3.194   3.239   0.093  0.3422  0.1060  0.0518
15539W        W35073  13.482   3.913  13.345 -0.1299  0.2333 -0.1470
15540W        W35074  14.120   2.594  12.556  0.1032  0.1120  0.0274
15541W        W35075  18.789   9.741  14.568  0.0207 -0.3334  0.3587
15542W        W35076   2.934   3.870   2.139  0.0685 -0.1180 -0.2654
15543W        W35077   1.225   7.744  12.190 -0.1031  0.2376  0.2462
15544W        W35078  18.938  17.556   3.740 -0.1452 -0.3220 -0.3764
15545W        W35079   1.709   8.796  14.408 -0.1253  0.0046 -0.1259
15546W        W35080  16.137  13.663   0.885 -0.1451  0.2047  0.0250
15547W        W35081  15.582  14.175   3.903  0.0956 -0.1656  0.2281
15548W        W35082   9.651   4.299   0.299  0.1684 -0.2065  0.0734
15549W        W35083   3.087  11.386   2.488  0.0624 -0.0986 -0.0526
15550W        W35084   8.603   3.009   2.670  0.1677 -0.0740 -0.0570
15551W        W35085  11.083   6.934   2.647  0.4817  0.0710 -0.1237
15552W        W35086   8.144  15.619  11.013  0.0211  0.0914  0.0354
15553W        W35087   6.124   3.904   1.460  0.0070 -0.0133 -0.0363
15554W        W35088   2.535   9.519   2.846  0.0056 -0.1400 -0.1016
15555W        W35089   3.147  15.989   2.673 -0.0489  0.1968  0.1482
15556W        W35090   8.404  17.556  14.554 -0.1508  0.2207 -0.1255
15557W        W35091  11.606   4.037  13.853  0.2128 -0.0578  0.4042
15558W        W35092  11.546  18.088   1.827  0.0314 -0.0437 -0.0416
15559W        W35093   1.959  14.270   0.733  0.0680  0.1411  0.3395
15560W        W35094   8.473   5.714  11.768  0.1675 -0.1057  0.1072
15561W        W35095  12.772  14.115   2.184  0.0771 -0.0853  0.1552
15562W        W35096   2.809  13.277   2.767 -0.0964  0.1495 -0.0546
15563W        W35097  12.035   0.803   2.555 -0.0251  0.4415 -0.0746
15564W        W35098   9.152  16.814  11.170 -0.0259  0.0309  0.0773
15565W        W35099   0.688  17.440   0.954 -0.0605  0.2406 -0.1611
15566W        W35100  15.551  14.587  13.799  0.1281  0.0986  0.1642
15567W        W35101   4.195   5.414  13.582  0.1181  0.2809  0.1906
15568W        W35102  18.821  12.746   2.368  0.0008  0.0652 -0.2151
15569W        W35103   7.636  17.810   1.778  0.1687  0.1901  0.0268
15570W        W35104   4.689  12.200  12.958 -0.2071  0.0802 -0.2932
15571W        W35105   5.503   5.432   2.063  0.0701 -0.1208 -0.0774
15572W        W35106   0.444  14.002   0.563 -0.2729  0.0964  0.0765
15573W        W35107   9.359   4.410  13.350  0.0922 -0.2205 -0.2883
15574W        W35108  19.036   9.717  10.535  0.3529  0.1494  0.1742
15575W        W35109   1.467  17.454   3.161  0.2707  0.3917 -0.3612
15576W        W35110  18.398  10.871   2.969  0.1466 -0.1341 -0.1290
15577W        W35111   7.887  13.310  12.029 -0.0643 -0.0660 -0.0158
15578W        W35112  10.625  14.068  14.343 -0.0399 -0.2577 -0.2262
15579W        W35113   2.050  13.170   2.190 -0.2383 -0.0682 -0.0833
15580W        W35114   0.565   3.007  11.899 -0.1184 -0.3209  0.0629
15581W        W35115  13.738  10.766   0.086  0.0769  0.1483 -0.0769
15582W        W35116   3.239   6.314  12.418 -0.0454 -0.1951  0.0354
15583W        W35117  14.617  12.760  10.676  0.5417 -0.0029  0.0715
15584W        W35118   3.072   1.606   0.175 -0.1255 -0.0780  0.1069
15585W        W35119  12.622  18.994  10.440  0.1095 -0.2364  0.0424
15586W        W35120   6.022  14.366   4.298  0.1245  0.0551 -0.0873
15587W        W35121   5.657   5.577   1.638 -0.1507 -0.1406 -0.2554
15588W        W35122   2.192  15.409  11.483 -0.0620  0.2212 -0.0373
15589W        W35123   1.382  13.453   1.918  0.3280  0.1279 -0.0852
15590W        W35124   6.975  14.511   2.788  0.1972 -0.4940  0.1466
15591W        W35125  17.569  15.752  14.843 -0.0783 -0.1220 -0.3250
15592W        W35126   0.153   8.427   2.740  0.1711 -0.0933  0.0633
15593W        W35127  11.705  17.880   3.191  0.0133  0.0217 -0.1165
15594W        W35128  17.595  10.998   0.323  0.2793  0.0428 -0.4737
15595W        W35129  11.851  15.687   2.968 -0.0348 -0.1434 -0.0389
15596W        W35130  12.827   9.231   2.245 -0.0304  0.0483 -0.2554
15597W        W35131   6.385  15.860  14.196 -0.0355  0.2566 -0.0882
15598W        W35132  14.450   8.288  11.717  0.2082  0.0327  0.1078
15599W        W35133   0.463   1.161  12.494 -0.1158 -0.0551 -0.0288
15600W        W35134   8.843   3.111  13.382  0.0828 -0.0594 -0.0272
15601W        W35135   9.753  18.264   4.208  0.0345  0.1141  0.0105
15602W        W35136   3.490  17.909   1.885 -0.1073 -0.0783 -0.0948
15603W        W35137   7.312  10.019   4.105 -0.1719 -0.1548  0.0952
15604W        W35138  13.752  16.311   0.206 -0.0787  0.0707  0.0145
15605W        W35139  11.057  13.022   1.366  0.2496 -0.3433  0.1010
15606W        W35140  16.069   5.663  10.886 -0.0209  0.0351  0.0433
15607W        W35141  11.074   7.515  12.775 -0.0772 -0.0138 -0.0445
15608W        W35142   9.588  11.067   0.276  0.0156 -0.2485  0.4392
15609W        W35143   1.293  11.439   4.859 -0.2836  0.4485  0.1171
15610W        W35144  18.989   0.808  13.042  0.1092 -0.3431 -0.0724
15611W        W35145   8.899   0.760  14.402 -0.3511 -0.1525 -0.3657
15612W        W35146  17.277   9.266  10.574  0.2079 -0.1167 -0.0403
15613W        W35147  10.297   8.940   0.901 -0.1537 -0.1252  0.1769
15614W        W35148   8.362  10.808   3.325 -0.1851  0.0580  0.1652
15615W        W35149  16.774  16.756   2.097 -0.0965  0.0071 -0.0094
15616W        W35150   3.047  11.747   1.630  0.1210 -0.0081 -0.0807
15617W        W35151  13.241   0.627  10.822 -0.3103 -0.2011 -0.3566
15618W        W35152  12.977  15.140  11.044  0.1448  0.0781 -0.0573
15619W        W35153   2.407   9.850  14.642  0.1205  0.1305  0.1587
15620W        W35154   8.669   5.714  12.226 -0.2739 -0.0552  0.0833
15621W        W35155  11.057  16.963   0.665 -0.2138 -0.0409 -0.0775
15622W        W35156  11.819   1.642   2.900 -0.1126 -0.3952  0.0221
15623W        W35157   4.618   3.360   3.819 -0.0370  0.1458  0.0698
15624W        W35158   4.248   3.033   0.009 -0.0103 -0.0848  0.0480
15625W        W35159   3.251   7.204  12.156 -0.0552 -0.1542 -0.3270
15626W        W35160   1.651  15.030  14.542 -0.2793  0.4348 -0.1113
15627W        W35161   4.212   8.711  11.015  0.1802 -0.2394  0.0052
15628W        W35162   6.378   6.523  13.322  0.1501  0.4631 -0.1828
15629W        W35163  13.931   6.172   4.769 -0.1171  0.1054  0.0161
15630W        W35164  19.033   2.454  10.348  0.5031 -0.0830  0.0299
15631W        W35165   2.540  10.049  12.750  0.0506 -0.0500 -0.1995
15632W        W35166  14.201   8.983   2.753  0.2293 -0.2092  0.0307
15633W        W35167   6.200   9.622   0.768  0.0006 -0.0056  0.1509
15634W        W35168   0.402   0.064   2.725 -0.3361  0.0213 -0.0412
15635W        W35169  13.092   3.510  13.503  0.3654  0.3084 -0.1957
15636W        W35170  13.604   1.165  13.448 -0.0110 -0.4762  0.1468
15637W        W35171   8.809   5.964   2.507  0.1719 -0.1116 -0.0281
15638W        W35172   1.071   2.358  14.618 -0.4376  0.4347  0.0234
15639W        W35173   1.630   4.775   0.119  0.0495 -0.2680  0.0267
15640W        W35174  15.558   9.205   0.106  0.4091  0.1589 -0.2425
15641W        W35175   6.391  13.913  11.952 -0.1924 -0.4111  0.4022
15642W        W35176  17.995   2.050  10.921 -0.2266 -0.0024  0.2332
15643W        W35177  17.639  14.424   0.375 -0.0944 -0.0080  0.1132
15644W        W35178   1.803  16.459   1.034  0.1740  0.1797 -0.1309
15645W        W35179   8.536   5.386   2.968 -0.0944 -0.2073 -0.3538
15646W        W35180  18.986   4.645   2.335 -0.0882 -0.0726 -0.2820
15647W        W35181   9.936  12.402  14.125 -0.4348 -0.2579 -0.0244
15648W        W35182   1.903  12.045   0.685  0.1705 -0.2650 -0.2273
15649W        W35183  12.771  14.168   4.596 -0.1385 -0.3249  0.0071
15650W        W35184   2.727  15.095  13.861  0.0469 -0.4125  0.0537
15651W        W35185   0.989  13.902   0.598  0.0950  0.1309 -0.0409
15652W        W35186   4.250   1.435  13.028  0.0416  0.2619 -0.0890
15653W        W35187   7.024  13.164  13.030  0.1746  0.1567  0.1142
15654W        W35188   3.504   1.323  14.179 -0.0550 -0.0885 -0.0337
15655W        W35189   6.623  11.736   1.382 -0.1016 -0.1661  0.1762
15656W        W35190  13.482   3.281   1.611  0.0150 -0.1142 -0.1937
15657W        W35191   6.681   1.966  14.352  0.1533 -0.3254 -0.2169
15658W        W35192   0.932   7.599  12.663  0.0884 -0.1294  0.1450
15659W        W35193  18.956  17.641  11.150  0.3651 -0.0116  0.0565
15660W        W35194  12.772   3.845   4.030 -0.0194 -0.0692  0.0913
15661W        W35195  10.429  17.222  14.433  0.1196 -0.0878 -0.2840
15662W        W35196   6.360  18.277  11.497 -0.0659 -0.1143  0.0060
15663W        W35197   1.069  13.285  14.509 -0.0494  0.2063 -0.2012
15664W        W35198   6.435  13.673  14.018 -0.1160 -0.0845 -0.1174
15665W        W35199   7.730   0.419   3.971  0.1032  0.0119  0.0459
15666W        W35200  12.624  19.099   0.718  0.1645 -0.0227  0.0499
15667W        W35201  11.935  17.000   3.059  0.0289  0.1938 -0.0286
15668W        W35202   1.388  16.972   0.730 -0.1446  0.0715  0.0566
15669W        W35203   2.709  18.991  14.659  0.0725  0.1435  0.0318
15670W        W35204   6.374   5.156  10.606 -0.2369  0.0950  0.1092
15671W        W35205  12.973  18.146  10.744  0.0750  0.3153 -0.1695
15672W        W35206  17.550   4.362   3.046 -0.2022  0.1590  0.2264
15673W        W35207  16.368   8.309  12.720 -0.1054 -0.0101  0.0959
15674W        W35208  18.484   5.739  14.740 -0.3727 -0.0966  0.1635
15675W        W35209   9.445  15.319  10.900  0.1716  0.0463  0.0721
15676W        W35210  12.449   2.717   4.897 -0.0588  0.0990 -0.1593
15677W        W35211  17.910   7.825   0.298 -0.2346 -0.2344 -0.2200
15678W        W35212   3.097  17.818   0.558  0.1308 -0.1224  0.1975
15679W        W35213   4.167   1.994   0.884 -0.0007 -0.1079  0.1272
15680W        W35214   0.079  15.268  13.144 -0.0247 -0.1651  0.0304
15681W        W35215   6.088   7.394  13.256 -0.3618  0.2530  0.2582
15682W        W35216   6.548   2.663  10.375 -0.0875 -0.1426 -0.2544
15683W        W35217   4.191  18.588   0.783  0.1920 -0.1116  0.1878
15684W        W35218   7.027   9.363   1.100 -0.2625  0.0374  0.1239
15685W        W35219  10.318  18.420   3.254  0.1550  0.0469 -0.2598
15686W        W35220   1.793   2.972   0.446  0.0559 -0.0977  0.0160
15687W        W35221   3.331   1.913  12.483  0.0489 -0.1033  0.2694
15688W        W35222  18.769  15.023  12.145 -0.4115  0.1754 -0.1350
15689W        W35223   6.700  18.846   5.083  0.0567  0.0859  0.2502
15690W        W35224   6.690   6.964  11.047  0.1010 -0.1718 -0.1078
15691W        W35225  10.258   3.543   3.464  0.0199 -0.0966 -0.0489
15692W        W35226   7.767  17.561  13.736 -0.1940  0.0655 -0.0769
15693W        W35227  15.961   9.497  10.623 -0.0076  0.0327 -0.0314
15694W        W35228  10.514  11.013   3.879 -0.0966  0.1647 -0.0151
15695W        W35229  12.813   8.086  13.059 -0.0178  0.4737  0.0428
15696W        W35230  14.768  15.309  14.024 -0.1365 -0.0935 -0.1975
15697W        W35231   3.329   6.342   0.284  0.2987  0.3471  0.0423
15698W        W35232  12.446  17.707  13.547 -0.0024 -0.1519 -0.2364
15699W        W35233   8.753  16.710   3.890  0.3190  0.0612  0.0809
15700W        W35234   9.516   2.310   1.111 -0.0591  0.1449 -0.1887
15701W        W35235  16.399  17.280   1.094  0.1005  0.1638 -0.2199
15702W        W35236  15.600  12.899  11.756 -0.1854  0.0603 -0.3914
15703W        W35237  11.650  13.117  10.203  0.1072  0.2689  0.0155
15704W        W35238  18.931  18.430   1.836 -0.0687  0.1199  0.0994
15705W        W35239  15.696   8.800   2.559  0.4122  0.1417 -0.2519
15706W        W35240   9.863   5.341  13.344  0.1003 -0.0293 -0.1159
15707W        W35241  18.491   1.557  11.370  0.1111 -0.1138 -0.2815
15708W        W35242  12.451   0.527  13.613 -0.1644 -0.0029 -0.0404
15709W        W35243   3.271   8.419  12.481  0.3514 -0.2305  0.1159
15710W        W35244  10.559  17.326  13.908 -0.2249 -0.0488  0.2185
15711W        W35245   7.864   1.327   3.355  0.0339 -0.0840 -0.3252
15712W        W35246   8.555   3.586   5.159 -0.1549  0.1898 -0.0473
15713W        W35247  12.701  16.737   3.753 -0.1114  0.0052  0.0264
15714W        W35248   8.830   4.841   1.616 -0.2024  0.0090  0.1249
15715W        W35249  18.445   5.764  14.024  0.0620 -0.1692 -0.1524
15716W        W35250  14.317   2.621   3.858 -0.0114 -0.0987 -0.0209
15717W        W35251   8.535   9.318   2.590 -0.1006 -0.0528 -0.2247
15718W        W35252  15.279  15.722   3.186  0.1187  0.2948 -0.0615
15719W        W35253  12.723   1.862  10.775 -0.1895  0.1686  0.0165
15720W        W35254   7.365   1.079   1.752  0.0686 -0.4200 -0.2359
15721W        W35255   0.779  10.272   0.684  0.0302  0.1144 -0.1197
15722W        W35256  13.231   6.892  12.138 -0.1363 -0.0844 -0.0849
15723W        W35257   0.162  16.813   5.148 -0.2575 -0.2201  0.1009
15724W        W35258  11.741   3.859  13.176  0.0911 -0.1614  0.0331
15725W        W35259   4.060   3.950  11.030 -0.1157  0.1801  0.1429
15726W        W35260   3.808   7.858  13.062 -0.1404 -0.0924 -0.2287
15727W        W35261   4.850   8.280  11.132 -0.0086  0.0083  0.0452
15728W        W35262  13.307  19.060   2.177 -0.2016 -0.0987 -0.1021
15729W        W35263   4.328   2.651   9.331  0.3308 -0.1097 -0.0154
15730W        W35264   0.085   7.636  14.064  0.0909  0.1219  0.0376
15731W        W35265  11.418   7.043   1.320 -0.0681 -0.0993 -0.2213
15732W        W35266   5.754   3.644  12.774  0.0475 -0.0275  0.0524
15733W        W35267  11.165   8.760  12.799  0.0890 -0.2974 -0.0693
15734W        W35268   6.549   3.813   0.687 -0.0788 -0.3444  0.0777
15735W        W35269  14.687  14.224  13.705  0.0496  0.3054 -0.2770
15736W        W35270  15.199   3.122   9.544 -0.0261  0.2368 -0.0024
15737W        W35271  17.697   4.720  11.665 -0.1696 -0.3477 -0.3730
15738W        W35272  15.504   9.246  11.550  0.0358 -0.0593 -0.0989
15739W        W35273   8.814  18.549   1.879 -0.3606  0.1791  0.0626
15740W        W35274   4.141  12.357   0.545 -0.2901 -0.3535  0.2470
15741W        W35275  17.604   2.911  13.691 -0.0679  0.1012 -0.2972
15742W        W35276  14.581   7.858   3.572  0.4823 -0.2630 -0.5563
15743W        W35277   0.837   7.647   3.464  0.1819  0.1636 -0.0838
15744W        W35278  18.932   1.402  11.904  0.1755  0.2590 -0.1186
15745W        W35279  19.036  18.298  12.425 -0.1701 -0.0355 -0.4873
15746W        W35280   6.488  11.048   4.632  0.2458  0.1979  0.1237
15747W        W35281   0.278  17.438   3.780 -0.1363 -0.2190  0.0848
15748W        W35282   2.245  10.409   1.382  0.1264 -0.0758  0.0698
15749W        W35283   2.343  12.834   1.331  0.2988 -0.2696  0.1731
15750W        W35284   2.156   8.293   0.991  0.3179  0.0332  0.0923
15751W        W35285   8.124   4.267  13.477  0.0291 -0.2640 -0.0597
15752W        W35286   5.525  15.614   0.752 -0.0709  0.1306 -0.1861
15753W        W35287   0.233  11.326  14.253  0.2517  0.1566 -0.0429
15754W        W35288   4.101   2.548   2.209 -0.1684 -0.1896  0.2860
15755W        W35289   1.714   4.906  14.225  0.1935  0.2167 -0.0553
15756W        W35290   7.492  15.720   0.807  0.1289  0.0765  0.1906
15757W        W35291   7.699  14.592   4.768 -0.2720  0.4233 -0.2017
15758W        W35292  14.352   6.740  13.955 -0.0557 -0.0422  0.4701
15759W        W35293  15.486  13.495  10.462 -0.1226  0.0053 -0.2101
15760W        W35294  13.342  12.800  13.209 -0.1849  0.1976  0.2421
15761W        W35295  15.043  12.472   4.020 -0.2106  0.2077 -0.1411
15762W        W35296  10.633  10.873   0.148 -0.3617 -0.1814 -0.1184
15763W        W35297  11.173  17.377   2.888  0.1707  0.3069  0.1027
15764W        W35298  12.704  15.977  11.028 -0.3471 -0.0527  0.4758
15765W        W35299   2.177   7.752   0.466  0.1416  0.2510 -0.0604
15766W        W35300  13.732  15.935  12.553  0.1829  0.0695  0.1890
15767W        W35301   2.973  18.743   3.282  0.0124  0.2000 -0.0235
15768W        W35302  11.492  11.942   0.184 -0.2953  0.1862  0.1280
15769W        W35303  10.724   6.028   1.291  0.0897  0.1224 -0.2320
15770W        W35304   0.563  10.618   3.059 -0.2415 -0.0240  0.6305
15771W        W35305  12.055  17.576  14.540 -0.0736 -0.1282  0.2698
15772W        W35306   6.655   7.419  10.439  0.1664 -0.0460  0.3557
15773W        W35307   0.771  17.421  11.237  0.4917  0.0451  0.0258
15774W        W35308   7.248   4.790   2.729  0.1704  0.0257  0.0798
15775W        W35309  14.362   2.521  11.699  0.2240 -0.1040  0.1349
15776W        W35310   3.058  14.432   1.058 -0.1670  0.1254 -0.1951
15777W        W35311   0.328  15.649   1.353  0.0472  0.1255  0.0613
15778W        W35312  15.449  15.490  14.753  0.2650  0.2359 -0.1338
15779W        W35313   1.069   7.378  11.223  0.1548  0.0711  0.1240
15780W        W35314  12.631   6.384   0.398 -0.0020  0.2262  0.2209
15781W        W35315  18.676   8.978   3.242 -0.0224 -0.2071 -0.1395
15782W        W35316  15.169  13.545   9.635  0.3989 -0.0498  0.1127
15783W        W35317   0.546  17.452   1.862 -0.0143  0.1206  0.1546
15784W        W35318  11.084   5.056   2.041 -0.0784  0.1487 -0.1794
15785W        W35319   1.661   4.339  11.152  0.0498 -0.2493 -0.3977
15786W        W35320  18.317  18.429  13.437  0.2278  0.1051 -0.1672
15787W        W35321   8.963  16.224   3.950 -0.0166  0.1135  0.0940
15788W        W35322   9.150  13.232   3.137  0.2096  0.1750 -0.0555
15789W        W35323  14.136   7.180   0.547 -0.1609 -0.0524 -0.2035
15790W        W35324   2.741  12.013   4.370  0.3144 -0.2165  0.2517
15791W        W35325  16.449   0.845   4.270 -0.1491 -0.1314  0.1646
15792W        W35326   0.954   6.081  10.518  0.0661  0.3420 -0.2151
15793W        W35327   1.069  11.265  14.676  0.1340  0.1688  0.1918
15794W        W35328  19.068  13.919   1.516 -0.0207  0.2913 -0.3769
15795W        W35329   5.143  18.825  10.770 -0.2163 -0.1013  0.2436
15796W        W35330  13.033   3.820   0.043 -0.1033 -0.2931  0.3409
15797W        W35331  17.159  11.367  11.761  0.0891  0.0960 -0.2283
15798W        W35332  14.734   5.691   1.386  0.3707 -0.1166  0.0515
15799W        W35333  17.227  16.486   2.142 -0.1131 -0.0502  0.1628
15800W        W35334   5.898   6.845   4.374 -0.0105 -0.0346 -0.1413
15801W        W35335   2.603   0.683   1.455 -0.0860  0.1194 -0.0847
15802W        W35336  16.062   5.668   4.267 -0.3836  0.1856  0.1477
15803W        W35337   6.718   7.670  11.772 -0.0946  0.0700  0.1404
15804W        W35338   9.600  15.852   2.726 -0.1506  0.0876  0.1288
15805W        W35339   0.958  15.142   2.335 -0.1202  0.2449  0.3269
15806W        W35340  14.916   9.223   9.515  0.0271  0.0218  0.0036
15807W        W35341  15.557   4.172   0.348 -0.4021 -0.1396 -0.1164
15808W        W35342   8.952  10.284  14.643 -0.2145  0.0309  0.1484
15809W        W35343  12.141   7.212  10.946  0.1742 -0.0988 -0.1153
15810W        W35344  12.239  12.902   4.323  0.1328  0.2647 -0.1306
15811W        W35345   5.202   6.889  13.508 -0.0744  0.0518  0.1769
15812W        W35346  15.294   7.875   1.626 -0.0252  0.0297  0.0342
15813W        W35347   8.593   7.676  11.903  0.0478 -0.1066  0.0462
15814W        W35348   6.242  15.957  12.250 -0.1961 -0.1827  0.0762
15815W        W35349  15.418   2.282   1.244  0.0302 -0.1547 -0.0278
15816W        W35350  14.754  10.273  13.759 -0.4050  0.1320 -0.1302
15817W        W35351   8.746  18.272   2.323  0.0063 -0.0060  0.1160
15818W        W35352   6.830  10.132  13.842  0.1811 -0.0481 -0.0521
15819W        W35353   6.325   1.357   1.426 -0.2533 -0.0258 -0.0060
15820W        W35354  19.097   0.849  11.166  0.3151  0.0119  0.2625
15821W        W35355  15.169   3.145   0.868 -0.0322  0.2140  0.0825
15822W        W35356   5.524  10.922  13.073  0.0506  0.2277 -0.1191
15823W        W35357  17.728   9.517  10.596 -0.1300 -0.0164 -0.1360
15824W        W35358   9.435  13.443  11.251  0.0883  0.4998  0.1573
15825W        W35359   4.049  12.814   0.279  0.2273  0.1220  0.0783
15826W        W35360  17.305   2.488  12.726  0.1107 -0.2396 -0.3314
15827W        W35361   7.214  11.787  12.382  0.1969  0.0981  0.1138
15828W        W35362   0.987   0.056   0.656 -0.2944 -0.4228  0.3122
15829W        W35363  17.068   1.726  13.185  0.3258 -0.0842 -0.0807
15830W        W35364   8.347  12.634   1.770 -0.0861  0.0891 -0.2190
15831W        W35365   3.364  12.799   1.943 -0.4255  0.1987 -0.2663
15832W        W35366  18.771  18.447   3.718  0.1328  0.0200 -0.4344
15833W        W35367  13.288  11.577  14.828  0.0079 -0.0433 -0.1490
15834W        W35368   8.309   0.048   0.545  0.0374  0.3224  0.0217
15835W        W35369  17.961   7.114   3.500 -0.0636 -0.0821  0.1057
15836W        W35370   4.498   8.544  13.946 -0.1615 -0.0961  0.1340
15837W        W35371  16.348  11.466  11.964  0.0504  0.0938 -0.1440
15838W        W35372   1.745  15.574   0.877  0.2201  0.0878 -0.0258
15839W        W35373   8.687  18.209  11.902  0.0426  0.5469  0.0272
15840W        W35374  18.082  10.342  11.041  0.0986  0.0412  0.3079
15841W        W35375   5.251   1.715   3.678  0.0309  0.1864 -0.2094
15842W        W35376  16.019  11.851  10.588 -0.2105  0.1470  0.2845
15843W        W35377  10.143  15.251  13.688 -0.0795 -0.0723  0.1538
15844W        W35378  12.265   4.192  11.030  0.0805  0.0198  0.0483
15845W        W35379  18.045   4.835   1.505  0.0701  0.5066  0.1308
15846W        W35380   9.037   9.841  11.334 -0.0143  0.0369  0.0739
15847W        W35381  13.210   9.307   1.009  0.1676 -0.0134 -0.0108
15848W        W35382  17.344  17.458   1.996  0.0361  0.4591  0.0621
15849W        W35383   5.662  13.438   1.323  0.1474 -0.1127  0.1509
15850W        W35384  14.360   5.890  11.861 -0.2127 -0.1078  0.1549
15851W        W35385  13.198   2.842  14.157  0.4009  0.3434 -0.0283
15852W        W35386   1.195   0.612  13.126 -0.0625 -0.0886  0.2909
15853W        W35387   8.331   8.761   0.014  0.0546  0.3784  0.0652
15854W        W35388  14.765  15.155  11.430  0.4016  0.5436 -0.0734
15855W        W35389   8.021   6.519   2.889  0.1736  0.0088  0.1719
15856W        W35390  18.100   4.661   1.951 -0.2749  0.0236 -0.4113
15857W        W35391  13.531   7.928   0.126  0.3600  0.3044  0.0365
15858W        W35392   1.065   1.030  12.613  0.1706  0.0829 -0.3025
15859W        W35393   9.673  13.307   3.089  0.2040  0.1273 -0.1725
15860W        W35394  18.635   3.785   1.254  0.4455  0.0044 -0.0077
15861W        W35395   4.616  17.611  14.191 -0.2735 -0.1117 -0.1134
15862W        W35396   5.448   9.107  12.559 -0.1139 -0.1188 -0.1323
15863W        W35397  18.783   3.574   0.616  0.0612 -0.1425  0.0009
15864W        W35398  17.850   9.583  11.810 -0.1327 -0.2083  0.0599
15865W        W35399  14.006  11.575   2.218  0.1399  0.0828  0.0789
15866W        W35400  16.832   7.165  12.549  0.1932  0.1450  0.1166
15867W        W35401   6.998   6.926   3.618 -0.0779  0.2229  0.2526
15868W        W35402   8.686   6.220  13.400 -0.4114  0.2924 -0.0004
15869W        W35403   0.677  14.278  11.093  0.0019  0.1823 -0.1190
15870W        W35404   7.435  13.283   1.195  0.1149 -0.0532  0.1777
15871W        W35405   4.185  10.453   0.453  0.0108 -0.0013 -0.0192
15872W        W35406   9.140  15.016   0.447 -0.2027  0.2971 -0.4458
15873W        W35407  16.391   3.094   3.494  0.0796 -0.1246  0.4348
15874W        W35408   7.210   1.705  11.175 -0.3968  0.0565  0.0287
15875W        W35409  17.256  16.610  11.156  0.1649  0.0178  0.0888
15876W        W35410  11.301   4.823  12.940 -0.1054  0.0880  0.0494
15877W        W35411  17.712  15.904   2.526 -0.4351  0.1037 -0.1054
15878W        W35412   4.176  13.738   1.725 -0.2974 -0.0373 -0.0298
15879W        W35413   1.141   1.247   2.976 -0.0067  0.0550 -0.2067
15880W        W35414   8.605  15.421  14.403  0.1068 -0.0953 -0.1832
15881W        W35415   3.046  10.690   3.609 -0.2286  0.2114  0.1640
15882W        W35416   4.701   4.750  12.323 -0.0208  0.0638 -0.0480
15883W        W35417   0.941  15.394   9.747  0.2032 -0.0189 -0.0088
15884W        W35418  18.095   9.441   3.636  0.1013  0.0929  0.0531
15885W        W35419   6.596  16.991  11.231  0.0161 -0.1758 -0.0912
15886W        W35420  17.381  13.634   3.956  0.0655 -0.0946  0.0808
15887W        W35421   8.880  16.968   4.878  0.0552  0.0174 -0.0386
15888W        W35422   8.101   2.810   2.170  0.1178  0.1054 -0.0128
15889W        W35423   1.304  17.357  14.393  0.0168 -0.1376  0.3098
15890W        W35424  10.445   6.986   3.785 -0.1209 -0.0692  0.1376
15891W        W35425  12.866   5.502   2.409  0.2683  0.2199 -0.0942
15892W        W35426   3.069   4.369   0.376 -0.3005 -0.1110  0.1410
15893W        W35427   6.365  15.675   2.966  0.1143  0.2089 -0.0406
15894W        W35428   1.281  14.210  14.126 -0.2986 -0.2893  0.4617
15895W        W35429  14.195   0.579   2.195 -0.0919 -0.0528  0.2345
15896W        W35430   3.547   4.664  14.096 -0.1386 -0.0712  0.1930
15897W        W35431  18.315  17.743   3.255  0.0423 -0.1527  0.1403
15898W        W35432   1.573   8.456   2.681 -0.1428  0.0471  0.0731
15899W        W35433  16.129  15.987   2.927 -0.0795  0.2146  0.1082
15900W        W35434   8.058   4.257   1.339 -0.2851  0.0853  0.0757
15901W        W35435  11.376  17.759   9.956  0.1182  0.3172  0.1373
15902W        W35436   3.402  11.639  12.263  0.2417 -0.1041  0.0235
15903W        W35437   6.146  12.645   0.337  0.0786  0.0535  0.1305
15904W        W35438  17.804   9.938  11.425  0.0978  0.1854  0.0412
15905W        W35439   4.425   3.557  13.857  0.1421  0.1033 -0.2290
15906W        W35440   5.632  16.011  11.352 -0.1268  0.0099 -0.1253
15907W        W35441   2.069  14.712  14.559  0.0493 -0.0598  0.1569
15908W        W35442  16.039  12.775   3.510 -0.0640  0.3320 -0.0636
15909W        W35443  10.200   4.228  12.846 -0.1400  0.0980 -0.0497
15910W        W35444  18.736  10.481   1.429 -0.0409 -0.0958  0.0340
15911W        W35445   9.592  18.776  14.059 -0.1808 -0.0397  0.2874
15912W        W35446  15.378   7.833   0.526  0.2298  0.0107  0.1349
15913W        W35447  15.763   6.882   2.635 -0.2235  0.2208  0.2271
15914W        W35448  10.710   0.235  11.273 -0.2740  0.0340  0.0454
15915W        W35449  15.248  14.692   1.259  0.1386 -0.0701  0.1480
15916W        W35450  13.560   9.700  10.750  0.2701  0.0352 -0.0808
15917W        W35451   0.312   0.634  11.439 -0.0360 -0.1148 -0.2489
15918W        W35452  17.893   0.733   0.495  0.0624  0.1622  0.1586
15919W        W35453  16.983  13.851  12.077  0.0184 -0.1399  0.0047
15920W        W35454   9.237  10.960   3.265 -0.0767 -0.1449  0.1483
15921W        W35455  17.264   7.179   9.984  0.2163  0.3901 -0.0241
15922W        W35456   1.079   0.697   2.860  0.1144 -0.2135  0.2292
15923W        W35457  17.846  18.631   0.673 -0.2495 -0.0570  0.3898
15924W        W35458  16.034  14.648  14.038  0.2056 -0.0527  0.0922
15925W        W35459   6.871  15.846  14.219  0.0691 -0.2218 -0.1541
15926W        W35460  18.985  14.381  14.304  0.2308  0.3806  0.1684
15927W        W35461  11.072   6.721   1.076 -0.0216  0.0923  0.1042
15928W        W35462  13.757   3.070   2.566  0.0606  0.1167  0.4001
15929W        W35463   9.949   3.415  14.765  0.0130  0.0575  0.1252
15930W        W35464   0.029  17.687   3.244  0.0380 -0.0563  0.0164
15931W        W35465  17.166  13.571  12.470 -0.0017 -0.3538 -0.1572
15932W        W35466  16.031   5.438   0.621 -0.4295 -0.0515  0.1585
15933W        W35467   9.417   3.636   2.793  0.5141 -0.1155  0.1180
15934W        W35468  17.763   1.954   3.157 -0.3284  0.0405  0.0140
15935W        W35469  17.527  11.099  13.955 -0.0036  0.1762 -0.2101
15936W        W35470   4.181  18.663   3.799  0.1237  0.0815 -0.0146
15937W        W35471   9.114   7.762  13.730  0.0258 -0.0479 -0.3801
15938W        W35472  11.660   9.248   0.606  0.3448 -0.4263  0.0771
15939W        W35473  14.420  19.030  10.715 -0.4528  0.0094 -0.1495
15940W        W35474   0.817  14.355  13.878  0.1708  0.0490 -0.1136
15941W        W35475  15.755  14.213  13.568  0.1182 -0.0130  0.0882
15942W        W35476  11.998  12.705   1.861 -0.0954  0.3865 -0.0650
15943W        W35477  10.737   8.816  13.092 -0.2519 -0.0771  0.2322
15944W        W35478   8.316  13.438   1.076 -0.0846  0.0086 -0.3409
15945W        W35479  17.159   6.493  10.941 -0.1124  0.2185  0.2498
15946W        W35480   5.779  18.777   2.389  0.2160  0.2625 -0.1855
15947W        W35481   4.005   8.684  13.889  0.2471 -0.1090  0.0532
15948W        W35482  12.943   4.052  13.551 -0.0583  0.0913  0.1176
15949W        W35483   9.503   8.804   0.171 -0.1548 -0.3147 -0.3358
15950W        W35484   9.431  14.005  13.331  0.0288 -0.0808 -0.2057
15951W        W35485  14.490  15.038  12.174  0.3793  0.0228  0.1466
15952W        W35486  12.493   7.108  10.515  0.0622  0.3795  0.1197
15953W        W35487   6.818   1.086  13.264 -0.0496  0.2408  0.1372
15954W        W35488  17.670   2.084  10.356 -0.0489  0.1644 -0.0746
15955W        W35489  11.274   1.904   1.768  0.4172 -0.0411 -0.2050
15956W        W35490   0.629  18.406   1.997 -0.0743  0.1980  0.1960
15957W        W35491  13.410   4.264  13.696 -0.1446 -0.1098  0.0731
15958W        W35492  13.085   4.720   9.860 -0.2523 -0.2441 -0.1010
15959W        W35493   2.336  12.249   2.957  0.2119 -0.5861 -0.1274
15960W        W35494  11.255  13.882  12.353  0.0619  0.1997 -0.3164
15961W        W35495   4.093  14.326  14.648  0.3010 -0.0012 -0.1113
15962W        W35496  15.289  13.953  10.592 -0.1053  0.0082 -0.0501
15963W        W35497  17.174  18.313   2.853  0.0992 -0.0396  0.0095
15964W        W35498   1.125   7.248  14.395  0.2942  0.0262  0.1265
15965W        W35499  17.153  11.678   2.208  0.1189 -0.3056  0.2718
15966W        W35500  18.196  15.182   2.769  0.1674  0.0047  0.0663
15967W        W35501  18.901  14.307   1.267  0.0013  0.2414 -0.0423
15968W        W35502  13.341   8.416   0.345 -0.0467  0.1808 -0.1611
15969W        W35503  17.735   8.074   0.716  0.1558  0.1412  0.1428
15970W        W35504  17.601  17.112  10.869 -0.0257  0.0322 -0.2435
15971W        W35505  13.633  11.731   2.414 -0.3437  0.1588  0.4349
15972W        W35506   5.901   4.046   0.044  0.1713 -0.0777  0.1525
15973W        W35507  11.871  16.493   3.557 -0.3032 -0.0632 -0.2621
15974W        W35508   7.660  18.161  13.932 -0.0757  0.2945  0.1964
15975W        W35509   4.734   4.256  13.171 -0.0922 -0.0803  0.2931
15976W        W35510  15.486  17.439  12.278 -0.2767  0.3073 -0.1631
15977W        W35511   0.343   3.109  11.221  0.0864  0.1783  0.1673
15978W        W35512   9.055  17.387   1.316  0.1123  0.1720 -0.1767
15979W        W35513   7.700   3.076  12.151  0.1739 -0.4543  0.0082
15980W        W35514  18.547   3.768  10.543 -0.0712 -0.2807 -0.1397
15981W        W35515  17.108   5.188  13.900 -0.0249  0.0920 -0.1899
15982W        W35516  13.934   9.878  14.806  0.2185 -0.0962  0.0529
15983W        W35517  11.576  12.296  12.125  0.0338 -0.2901  0.1842
15984W        W35518  15.602   3.207  14.804 -0.0684 -0.0131 -0.1609
15985W        W35519   6.488   5.654   1.877 -0.2512 -0.2024  0.2081
15986W        W35520   7.276   9.794  11.313 -0.3543  0.0233 -0.3113
15987W        W35521  12.598   5.895   2.253  0.0502 -0.0744  0.1076
15988W        W35522   4.560   6.106  13.230 -0.0550  0.0952  0.1916
15989W        W35523  13.385  14.405   3.478  0.1102  0.0375 -0.4535
15990W        W35524   4.422  12.630   2.390 -0.2578 -0.1955  0.1275
15991W        W35525   9.139  18.096  11.623  0.0061 -0.2461 -0.0329
15992W        W35526  15.080  15.564   3.724  0.0216 -0.6085 -0.4433
15993W        W35527   7.226   0.672   1.135  0.3217 -0.0165 -0.2775
15994W        W35528  17.514   0.478  10.443  0.0232  0.2733  0.1495
15995W        W35529   3.816  16.678  11.947 -0.2719  0.1007  0.0724
15996W        W35530   5.677   3.444   2.729 -0.5094 -0.2219 -0.1593
15997W        W35531  13.030   4.635  13.676  0.0677  0.2325  0.2205
15998W        W35532  13.212   3.573   3.957 -0.0870 -0.2783 -0.2032
15999W        W35533   8.566   6.752   5.166  0.0105  0.0238 -0.0869
16000W        W35534  13.779  10.534  10.978  0.0590 -0.0380 -0.0313
16001W        W35535   3.312   3.915   3.010  0.1014  0.0185  0.1416
16002W        W35536  14.154  16.735   3.419 -0.1277 -0.1496 -0.0559
16003W        W35537   8.051  13.987  14.690 -0.1977 -0.2350  0.1241
16004W        W35538   8.978  14.448   4.009 -0.1398  0.0003 -0.0795
16005W        W35539   6.433   6.882  14.455  0.2486  0.0683  0.2031
16006W        W35540   1.130   0.424  10.990 -0.2573 -0.0579 -0.0159
16007W        W35541   8.603   3.579  11.317 -0.1406  0.2139  0.0657
16008W        W35542   0.689   0.943   3.129 -0.0653  0.0806 -0.0787
16009W        W35543  14.272   3.585   3.705  0.1290  0.0142 -0.3610
16010W        W35544  13.947   2.920   0.694  0.2078  0.1633 -0.0128
16011W        W35545  14.473   9.876  12.186 -0.1086  0.2135  0.0201
16012W        W35546   7.602   5.863  12.977 -0.0373  0.4001 -0.0239
16013W        W35547   9.962  11.966   0.642  0.0682  0.2111  0.1041
16014W        W35548   0.509   9.292   3.986  0.1984 -0.1084 -0.1271
16015W        W35549   6.778  10.985  11.541  0.0305  0.2167 -0.0116
16016W        W35550  12.488   1.421   9.645  0.0841  0.2252  0.0469
16017W        W35551  14.407  10.383   0.674 -0.1142  0.1249 -0.0042
16018W        W35552   7.808   7.422  14.154  0.0858  0.0325  0.0810
16019W        W35553  10.272   6.926  14.174 -0.2188  0.0797 -0.1841
16020W        W35554  14.906   9.855   2.521  0.1439 -0.0896 -0.0886
16021W        W35555  17.329   8.984  11.817 -0.1997 -0.0373  0.2736
16022W        W35556   0.914   9.214  13.588  0.2442  0.0037 -0.2895
16023W        W35557   0.639  16.354   2.669  0.0742  0.0224  0.1317
16024W        W35558   9.611   1.507   2.445 -0.1461  0.0271 -0.3368
16025W        W35559   1.824   0.430   3.949  0.0331  0.0142 -0.2350
16026W        W35560   5.865   8.899   2.678 -0.1816  0.1528  0.0896
16027W        W35561   7.876  10.854  13.206 -0.0167  0.2334  0.0775
16028W        W35562   9.136   0.447  11.788  0.3401 -0.0923 -0.1241
16029W        W35563  15.158  10.908   1.801 -0.2472  0.0594  0.2696
16030W        W35564  18.808   9.125   2.728 -0.0783  0.0887 -0.1771
16031W        W35565  11.136   0.730  12.201 -0.0439 -0.1004 -0.1937
16032W        W35566   5.223   8.793  12.144  0.2277  0.0471  0.3903
16033W        W35567   6.892   9.165  12.771  0.4105 -0.2424 -0.1582
16034W        W35568   1.828   6.258  14.554  0.3501  0.0151 -0.0237
16035W        W35569   4.005   4.294   9.993  0.1173 -0.0320 -0.0225
16036W        W35570  17.454  11.490  11.384  0.2161  0.3964 -0.3105
16037W        W35571  16.217   9.176  13.605  0.1676 -0.1128  0.1456
16038W        W35572   2.091  14.604   2.761 -0.0086 -0.2509  0.2950
16039W        W35573  15.440  10.550   0.750 -0.0107  0.2612 -0.0165
16040W        W35574   5.981   3.365   3.667 -0.1480  0.1286 -0.2339
16041W        W35575  10.847   9.114   1.574  0.0951 -0.0735 -0.1595
16042W        W35576   6.529  10.693   1.079 -0.0016  0.2078  0.1285
16043W        W35577   4.552   7.352   1.398  0.2395 -0.2666 -0.2522
16044W        W35578  17.344   2.591  13.352  0.0706  0.0905  0.0310
16045W        W35579   8.169   7.228  12.144 -0.0836 -0.0290 -0.0306
16046W        W35580  13.276   4.694  12.912 -0.0176  0.0085 -0.0275
16047W        W35581   0.261   8.293   1.317  0.1701 -0.0213  0.0535
16048W        W35582  14.743   9.651  14.762 -0.1219  0.2600 -0.3283
16049W        W35583  16.245  17.387  14.830  0.0302  0.0753 -0.0621
16050W        W35584   0.574   0.417  14.713  0.2689 -0.1812 -0.1493
16051W        W35585   7.242  10.036  11.781 -0.1698  0.0945  0.0807
16052W        W35586  12.797   2.277  12.343  0.3336 -0.0226  0.0760
16053W        W35587   3.989   9.212  11.164 -0.1104  0.1736 -0.0762
16054W        W35588  10.382  12.012   4.049  0.1622 -0.1583 -0.1167
16055W        W35589  11.562  17.350  11.796 -0.3838  0.1388 -0.3182
16056W        W35590  10.638  17.053   3.651  0.1968  0.0829 -0.0416
16057W        W35591   2.445  15.617   1.885  0.1036 -0.2118  0.3752
16058W        W35592  13.174  16.981  14.629  0.5011  0.0012  0.0771
16059W        W35593  13.605  11.892   0.469 -0.2368  0.0596  0.1581
16060W        W35594   2.728   7.110   3.887  0.0718  0.1491 -0.3020
16061W        W35595  11.509   9.981  14.528  0.2442 -0.0175 -0.0701
16062W        W35596   7.997   3.066  12.833 -0.0602  0.1806  0.2963
16063W        W35597  10.878  14.614   5.472 -0.1441  0.3184  0.0224
16064W        W35598  15.417  14.674  11.333 -0.0227  0.0071  0.0403
16065W        W35599   1.892   0.330  12.094 -0.0076 -0.1344 -0.1152
16066W        W35600  12.417   9.857  10.656 -0.0453  0.4004  0.0502
16067W        W35601   9.480  15.706   1.460 -0.0378  0.0378 -0.0550
16068W        W35602   3.239   4.481  11.559 -0.3162  0.3454 -0.0432
16069W        W35603   4.929  17.164   4.190 -0.2888  0.2010 -0.0487
16070W        W35604  13.846  10.349  11.441  0.2284 -0.1779 -0.0947
16071W        W35605   7.084   1.496   1.921 -0.1917  0.2911  0.1261
16072W        W35606   1.955  16.846   0.690  0.1909 -0.0035  0.2544
16073W        W35607   1.630  11.954   1.543  0.0871 -0.1661  0.2446
16074W        W35608   4.422  11.470  12.454  0.0710  0.3121 -0.4991
16075W        W35609   2.780  16.201   0.265 -0.0057 -0.1725  0.2364
16076W        W35610  15.932  12.831  13.640  0.2439 -0.2394  0.1194
16077W        W35611  13.357   1.650   4.113 -0.1760 -0.0684 -0.2189
16078W        W35612   6.727  13.417  14.745 -0.2059  0.2157 -0.3390
16079W        W35613  12.247   7.372  14.275  0.0718  0.1541  0.2211
16080W        W35614  16.517  15.851  12.211  0.0783 -0.1754 -0.0280
16081W        W35615   1.807  11.147  12.043 -0.1968  0.1721 -0.2563
16082W        W35616  11.108  14.601   0.031  0.1258  0.1750  0.0482
16083W        W35617  16.544  12.604  13.843  0.1644 -0.1161  0.0858
16084W        W35618   0.880  16.264   1.821 -0.0579 -0.1915 -0.2823
16085W        W35619   8.314  13.577   1.600 -0.1052  0.2446  0.2105
16086W        W35620   0.701  13.073   2.411 -0.2923  0.0981 -0.2939
16087W        W35621  13.328  10.956   2.048  0.0997  0.1887  0.0398
16088W        W35622  13.105   2.056   1.460 -0.1611 -0.0346 -0.1526
16089W        W35623  12.456  13.015   1.147 -0.1135  0.2390  0.2573
16090W        W35624   0.988   8.139   0.719  0.0648 -0.0022 -0.0427
16091W        W35625  14.405   3.998  11.661 -0.1563 -0.1213 -0.1115
16092W        W35626   4.117   5.035   1.105 -0.0508  0.2665 -0.2453
16093W        W35627   0.583  17.583   3.291 -0.2978  0.0692  0.1713
16094W        W35628   5.482   9.093   1.033  0.1851  0.2684 -0.1236
16095W        W35629   7.326  18.030  14.396  0.1035 -0.1402  0.0730
16096W        W35630   4.867  11.212   1.101  0.2464 -0.2475  0.0744
16097W        W35631   3.613  18.315  14.182  0.1638 -0.0239 -0.0993
16098W        W35632   7.129   8.957   1.384 -0.0159 -0.2006  0.0480
16099W        W35633  18.260   7.840   1.325 -0.2075 -0.1774 -0.0728
16100W        W35634   7.141  16.621  14.671 -0.1403 -0.0089 -0.2750
16101W        W35635  15.933   3.769   9.433 -0.0889 -0.0516 -0.0130
16102W        W35636   4.418   4.953  13.654 -0.3039 -0.1125  0.0689
16103W        W35637   7.452   0.837   0.742 -0.0440  0.0847  0.0260
16104W        W35638  14.179   5.293   0.441 -0.0362  0.2954 -0.2686
16105W        W35639  13.068  17.065   3.468 -0.0380  0.2568  0.1635
16106W        W35640   2.982   9.638   2.076  0.0169  0.0464  0.0853
16107W        W35641   2.210  15.185  12.911 -0.0972  0.0748  0.1969
16108W        W35642   2.089  11.139   2.254  0.2211  0.1855 -0.0285
16109W        W35643  10.080   9.339   4.848 -0.3004  0.3178 -0.4164
16110W        W35644  14.268   4.682  13.783 -0.2438 -0.0279 -0.1158
16111W        W35645   2.496   1.651   3.565 -0.1200 -0.0058 -0.0333
16112W        W35646   1.677   3.870   0.005  0.4393  0.1203 -0.2422
16113W        W35647   7.263   3.494   1.283 -0.1153 -0.1070  0.1065
16114W        W35648  18.587   7.966  14.091  0.1154  0.2191  0.0728
16115W        W35649  15.171   3.875  14.351 -0.2323 -0.1720  0.1941
16116W        W35650  13.500  18.048  14.527  0.1285  0.0194  0.0365
16117W        W35651   5.361   4.527   2.530  0.3235 -0.2134 -0.1107
16118W        W35652  11.348  14.832   3.302 -0.0651  0.0748 -0.1388
16119W        W35653  17.666  17.060   1.824 -0.1620  0.1122  0.2860
16120W        W35654   8.774   2.986   1.714  0.0028  0.1866 -0.1309
16121W        W35655  13.453   9.873   3.740 -0.0241 -0.1314 -0.0729
16122W        W35656  15.596   8.847   3.065 -0.1041  0.0186 -0.1688
16123W        W35657   0.797   3.988  11.167 -0.0310 -0.2013 -0.1204
16124W        W35658  14.794  13.324  13.148  0.1930  0.2231 -0.1808
16125W        W35659   6.128   5.596   2.840  0.0395  0.0164  0.1397
16126W        W35660   3.095   6.097  13.183 -0.0962 -0.0750  0.0695
16127W        W35661  13.931  16.965   3.828  0.0997 -0.2874  0.1296
16128W        W35662  10.450  11.365   2.433 -0.1222 -0.2626 -0.0993
16129W        W35663  15.357   2.793   3.572  0.3165 -0.1167 -0.0419
16130W        W35664  17.601  15.777  12.243  0.0860  0.1910 -0.1231
16131W        W35665  14.009   6.686   3.771 -0.3901 -0.3432 -0.3163
16132W        W35666  14.190  15.159   4.966  0.2948  0.0221 -0.1392
16133W        W35667   0.788   1.447   3.728 -0.2516 -0.1506 -0.0584
16134W        W35668  17.630  18.205   2.585 -0.4627 -0.0701 -0.0912
16135W        W35669  15.859   4.844   2.513 -0.0734  0.1142 -0.3591
16136W        W35670  13.745   7.475   1.320  0.2787  0.1538 -0.0666
16137W        W35671  18.832  15.152   4.133  0.0234  0.1806  0.1343
16138W        W35672  13.242   9.034  14.598  0.2152 -0.1741 -0.1198
16139W        W35673   4.877   9.627   0.470 -0.0815 -0.3920 -0.2243
16140W        W35674  14.270   6.959  11.930  0.3617 -0.4494 -0.0699
16141W        W35675  10.551   6.526   1.245 -0.0271 -0.4406 -0.1207
16142W        W35676   8.997  17.436   1.841 -0.3476 -0.3046 -0.2447
16143W        W35677  17.531   5.648   1.898 -0.0729 -0.2341 -0.1140
16144W        W35678  13.369   6.413   2.868 -0.0267  0.3130  0.2675
16145W        W35679   6.034   2.323  11.493  0.3115  0.5683 -0.1809
16146W        W35680  15.178   4.491   0.677  0.4156 -0.0248 -0.0079
16147W        W35681  14.037   8.968  13.423 -0.0087  0.0321 -0.1653
16148W        W35682  18.016  13.214   0.708  0.2077  0.0799  0.1133
16149W        W35683   9.154  14.574  12.114 -0.0446  0.0127 -0.2698
16150W        W35684   6.242  14.613  13.454 -0.1585 -0.1397  0.0268
16151W        W35685  10.780  17.115  12.883  0.2182  0.2401  0.3452
16152W        W35686   7.776  18.762   3.987 -0.1382  0.2093  0.3145
16153W        W35687  10.481  12.423   9.993 -0.0096 -0.2647  0.2573
16154W        W35688   8.857  15.928  12.564 -0.0089 -0.1433 -0.0287
16155W        W35689  12.418   9.787   3.605 -0.3630 -0.0298  0.0702
16156W        W35690  11.947   0.555  12.348 -0.3254 -0.0252  0.0046
16157W        W35691  18.536  12.728   0.963 -0.0159  0.0604  0.2068
16158W        W35692   3.997  15.604   4.481 -0.0614  0.0673 -0.0173
16159W        W35693  13.298  12.896  11.844  0.1897  0.3186  0.2514
16160W        W35694  12.313   9.971  12.473 -0.2360 -0.2353 -0.1307
16161W        W35695  17.023   6.474  11.929 -0.0013 -0.0177 -0.2113
16162W        W35696  19.081   6.551  11.584 -0.0228 -0.1513 -0.1105
16163W        W35697   7.713   9.507  13.221  0.3276 -0.1102  0.1487
16164W        W35698   9.606   5.746  13.592 -0.0878 -0.0382 -0.1859
16165W        W35699   9.189  17.689  12.549  0.0501  0.2624  0.3017
16166W        W35700  12.712  11.221   0.637  0.3109  0.1879  0.0987
16167W        W35701  11.750   6.263   0.096 -0.1048  0.0499  0.0330
16168W        W35702   7.621   1.674   2.340 -0.1760 -0.1013  0.0235
16169W        W35703   3.034  13.861   4.104 -0.4020  0.1828  0.1717
16170W        W35704  18.019   1.925  12.162 -0.2161  0.2418 -0.0864
16171W        W35705   5.535   9.946   3.598 -0.1610  0.1759  0.0022
16172W        W35706   1.376  14.869   2.282  0.0787  0.0047 -0.0713
16173W        W35707  11.995   8.088  12.489 -0.0394 -0.0096 -0.1692
16174W        W35708  13.466  10.867   3.873  0.1007 -0.0628 -0.0977
16175W        W35709   7.282  17.573  14.562  0.0611 -0.0500  0.0523
16176W        W35710   9.576   0.090   0.625  0.2226 -0.1625 -0.0718
16177W        W35711  10.290  13.634  12.234  0.0497  0.3190  0.0319
16178W        W35712   1.612   7.598   0.357  0.0201 -0.2407 -0.3280
16179W        W35713   7.942   7.180   3.891 -0.1526  0.0322  0.1678
16180W        W35714   8.934  17.353  11.796 -0.1508  0.1624 -0.3065
16181W        W35715  15.423  10.632  14.422  0.3763  0.1106 -0.1222
16182W        W35716  12.478   9.443  11.607 -0.2270 -0.0090 -0.1120
16183W        W35717  18.531  14.185  11.058  0.0289 -0.1226 -0.0370
16184W        W35718  10.164  15.930   0.795  0.1224 -0.2627 -0.0985
16185W        W35719  16.842   0.919   9.435 -0.1821 -0.1759 -0.1145
16186W        W35720   5.556   2.280  11.272  0.3112  0.3282  0.0047
16187W        W35721   0.863   8.501   2.169 -0.0959  0.1323  0.2732
16188W        W35722   9.413   9.234  12.396 -0.3083 -0.0989 -0.2769
16189W        W35723  10.240  12.390  11.855  0.1460  0.0599 -0.1158
16190W        W35724   1.280  14.180  11.913 -0.2626  0.2696  0.3037
16191W        W35725   1.612   9.426  11.067  0.0415 -0.0476 -0.0848
16192W        W35726   8.902  18.627  13.893  0.0862  0.1762  0.0798
16193W        W35727  14.428  10.809  10.741 -0.4355  0.1797 -0.2470
16194W        W35728   2.372  11.141  11.777 -0.0225  0.3546 -0.0115
16195W        W35729  18.439  11.851   1.909  0.1631 -0.0882 -0.1759
16196W        W35730   4.335   7.171  14.674 -0.2828 -0.1225  0.1622
16197W        W35731   2.185  14.043   1.207 -0.0129  0.1673  0.0810
16198W        W35732  10.788  12.849  14.028 -0.0684 -0.2416 -0.1388
16199W        W35733  11.338  13.254  11.953 -0.0122  0.2016  0.2590
16200W        W35734  11.791  16.959  10.888 -0.2927  0.0104  0.0834
16201W        W35735  14.009   6.421   2.819 -0.3740  0.1582  0.2802
16202W        W35736   1.231  17.600  13.485 -0.1547 -0.0452 -0.1250
16203W        W35737  17.046  13.249   0.342  0.1949  0.2834  0.1619
16204W        W35738   9.281  12.514  12.790  0.4893  0.1077  0.2324
16205W        W35739   2.088   1.683   3.240  0.2722 -0.2730  0.0558
16206W        W35740  17.512   6.712   3.341  0.2475 -0.0135 -0.1019
16207W        W35741   7.015  13.272   1.596  0.1471  0.1315 -0.1354
16208W        W35742  10.747  17.220   2.582  0.4194  0.1271  0.0574
16209W        W35743  15.961   9.756  14.405  0.1769  0.2137 -0.0570
16210W        W35744  13.635  18.575   0.748  0.0742 -0.1967  0.1886
16211W        W35745   0.196  12.050   3.796 -0.2981  0.1119  0.2098
16212W        W35746   6.249   0.304   1.666  0.0206  0.0422 -0.1562
16213W        W35747  11.140  11.808   2.224 -0.0092  0.1683 -0.0036
16214W        W35748  18.876  15.544  12.840  0.2950 -0.0599 -0.1384
16215W        W35749   4.807   9.152   0.305  0.0667  0.1721 -0.0490
16216W        W35750   2.999   2.951   4.123 -0.1715  0.1646  0.3151
16217W        W35751   8.405  17.783   2.990  0.1137 -0.0963  0.0565
16218W        W35752   2.986  10.477  12.927  0.1808  0.1603  0.0373
16219W        W35753  10.417  14.425   0.563 -0.1063 -0.1802  0.1255
16220W        W35754   3.856   7.366   2.227  0.1040 -0.1662 -0.0821
16221W        W35755  15.437   4.218  12.581  0.0911  0.3252  0.1889
16222W        W35756   1.719  13.551  12.382 -0.1564 -0.1392 -0.1003
16223W        W35757   1.090  16.851   4.054  0.0044  0.3314 -0.0861
16224W        W35758  13.417   0.675  12.566 -0.1564  0.0014 -0.2613
16225W        W35759   2.967  16.696   0.446 -0.0301  0.1914 -0.1712
16226W        W35760   3.617  14.329   2.443 -0.0657  0.0056 -0.1319
16227W        W35761   2.261   6.917  13.110 -0.2052  0.0663 -0.0937
16228W        W35762  10.993   3.024  12.948 -0.4558 -0.2624 -0.2003
16229W        W35763  16.397   8.570  13.530  0.1870 -0.0210  0.0666
16230W        W35764  10.684  11.963   4.441 -0.0202  0.1069 -0.2033
16231W        W35765   1.478  14.779  14.132  0.0400 -0.0635 -0.1914
16232W        W35766  14.377   0.828   4.440  0.0108 -0.1259 -0.0178
16233W        W35767  14.365  11.256  12.653  0.0643 -0.3961  0.0312
16234W        W35768  17.600   1.104  11.859 -0.0889 -0.1773 -0.2057
16235W        W35769   0.005   0.480  12.024 -0.1197  0.3126 -0.2032
16236W        W35770  17.273   0.483  12.508  0.1048  0.1816 -0.3384
16237W        W35771   6.121  11.409  10.962 -0.2907 -0.0951  0.0334
16238W        W35772  11.622  13.641  10.739 -0.0700  0.1224 -0.0145
16239W        W35773   9.459   8.171   2.562  0.0955 -0.3422  0.1479
16240W        W35774  14.751   3.873   2.831 -0.2856  0.2315 -0.0687
16241W        W35775   3.530  18.403   3.329 -0.0475 -0.0097  0.3349
16242W        W35776  10.246  18.413  14.811  0.0275 -0.2383  0.1011
16243W        W35777  12.725  11.105  11.944 -0.1534 -0.1650 -0.5629
16244W        W35778   1.608   0.188  13.321  0.0872  0.2468  0.1169
16245W        W35779   5.866  10.201  11.533  0.1240 -0.1057  0.1120
16246W        W35780   9.999   7.151   4.129  0.0978 -0.4174 -0.1226
16247W        W35781  12.534  10.928  12.567  0.3237 -0.0290 -0.2079
16248W        W35782  15.292   9.055   1.692 -0.3074  0.0349  0.0520
16249W        W35783  12.580   2.931   3.412  0.1146  0.0205 -0.0207
16250W        W35784   0.402  10.812   2.630 -0.0371  0.1735  0.1725
16251W        W35785  17.812   4.059  10.975  0.0677  0.0083  0.0479
16252W        W35786   5.860  11.251  14.813  0.0293  0.0739  0.1819
16253W        W35787   9.649  11.264  11.484 -0.2134 -0.0810 -0.0681
16254W        W35788  13.636  17.783   0.142  0.0028  0.1950  0.1392
16255W        W35789   2.901   1.102   9.478  0.0311 -0.5507 -0.2478
16256W        W35790  11.379  18.790  11.350 -0.2079 -0.2755  0.0756
16257W        W35791   5.017   2.992   1.573 -0.0933 -0.2392 -0.4043
16258W        W35792   0.977  11.086  14.203 -0.0126  0.0790 -0.1785
16259W        W35793  16.498  10.847   1.316 -0.1109 -0.1652  0.0596
16260W        W35794   9.312  12.088   2.558  0.1821 -0.0975 -0.3370
16261W        W35795  13.158  12.896   1.177 -0.3099 -0.1427 -0.1890
16262W        W35796   3.060   5.736  10.363 -0.0501  0.2159  0.0864
16263W        W35797  13.580  17.154  14.480  0.0123  0.2330  0.1818
16264W        W35798  14.871   7.041   3.613 -0.2378 -0.2169 -0.1055
16265W        W35799   6.439   6.414  12.356 -0.1718  0.2436 -0.0136
16266W        W35800  18.328  17.206  11.996 -0.3241  0.0677  0.2148
16267W        W35801  14.674   4.776   4.110 -0.1819  0.0644 -0.1561
16268W        W35802   7.752   4.478  12.067 -0.0579  0.5797 -0.1625
16269W        W35803  12.137  12.675   1.359 -0.1316  0.0852  0.2008
16270W        W35804   8.044  11.170  10.091 -0.0225 -0.0448  0.4767
16271W        W35805  14.619   9.285   4.166 -0.0934  0.0611 -0.4245
16272W        W35806   7.411   0.987  11.498  0.3559  0.1211 -0.2852
16273W        W35807  12.537  19.041  14.833 -0.0542 -0.0096 -0.1020
16274W        W35808   0.983   2.922  12.528  0.0464 -0.0444 -0.1872
16275W        W35809   6.352  10.572   0.093  0.1014 -0.0134  0.1867
16276W        W35810   4.733  17.027  11.835  0.0253 -0.1490  0.2198
16277W        W35811  14.677  13.735   9.554  0.2312  0.1433 -0.2648
16278W        W35812  16.716   1.384  10.860 -0.0759 -0.3478  0.2418
16279W        W35813   9.559   5.825   0.546  0.0114  0.2462  0.1001
16280W        W35814  13.650  13.113  14.748 -0.0956 -0.2534  0.4063
16281W        W35815   3.917   1.913   0.471 -0.1453 -0.3831 -0.0020
16282W        W35816   0.471   6.839  12.266  0.2409  0.3162 -0.1620
16283W        W35817  17.258  14.459   3.021  0.0644 -0.1402  0.1473
16284W        W35818  15.507  17.058  10.936  0.1391  0.1192 -0.0970
16285W        W35819   0.276   1.324  11.515  0.0802  0.2264  0.0691
16286W        W35820   7.942  18.685  12.847  0.0240 -0.1341 -0.0901
16287W        W35821  10.160  16.164  13.399 -0.1363 -0.1773  0.0913
16288W        W35822   4.206   0.525  11.793  0.2852 -0.0349  0.0593
16289W        W35823  17.122  11.502  14.642 -0.1950 -0.3380 -0.1470
16290W        W35824   9.530  18.457   4.610  0.2760  0.1156 -0.1720
16291W        W35825  15.035   7.746   2.061  0.0291  0.2083  0.0256
16292W        W35826   8.333   2.809  10.863  0.0008 -0.2663 -0.0008
16293W        W35827   0.063   0.018   1.600 -0.2375  0.2393 -0.0520
16294W        W35828   5.432   1.434   1.466 -0.1220 -0.1592 -0.2753
16295W        W35829  14.809   6.098  14.316  0.0572  0.1715 -0.0071
16296W        W35830  14.220  15.450  13.979 -0.1125 -0.2841  0.3450
16297W        W35831  17.304  19.054  11.146  0.1151 -0.1211  0.2872
16298W        W35832   8.985   5.107  14.289 -0.1751 -0.2447  0.0645
16299W        W35833   8.163  10.563   2.623 -0.2636  0.2458  0.1656
16300W        W35834  10.424   6.016  12.133 -0.2814 -0.1317  0.0376
16301W        W35835  12.558  18.467  14.727  0.1105 -0.1761  0.0482
16302W        W35836  18.363  17.838  13.458  0.0048 -0.0289  0.0910
16303W        W35837   9.776   1.441  11.774  0.2728  0.4956  0.1630
16304W        W35838  16.306  17.827   1.355 -0.0714 -0.1773 -0.0207
16305W        W35839   0.820  17.030   0.618 -0.0795 -0.1496 -0.2189
16306W        W35840  10.381   2.458   4.584 -0.1308  0.0328  0.0070
16307W        W35841   9.510   7.933  11.901 -0.0932  0.0816  0.1588
16308W        W35842   2.668  16.114   1.970 -0.0095  0.4268 -0.2592
16309W        W35843  10.647  12.368  13.146 -0.0702  0.0465 -0.2327
16310W        W35844   9.758  14.881  12.229 -0.0993 -0.2602  0.3244
16311W        W35845   7.792  13.009   2.132  0.1687  0.2154  0.1879
16312W        W35846  11.272  18.492   2.131 -0.0562  0.1724  0.1089
16313W        W35847  15.219  11.307  14.073  0.1556 -0.0019 -0.2892
16314W        W35848   5.694   4.399  10.594  0.2087 -0.2351 -0.2655
16315W        W35849   8.267   5.714  10.591  0.0727 -0.1008  0.0337
16316W        W35850   8.869   1.315   1.756 -0.0786  0.3380  0.0669
16317W        W35851   0.929   0.017   1.428  0.0209  0.0525  0.1558
16318W        W35852  12.388   9.400   0.702  0.0063  0.0910  0.2036
16319W        W35853   6.917   0.613   2.126 -0.0457 -0.1134  0.1005
16320W        W35854  16.782  13.083   2.690 -0.0644  0.0299 -0.1767
16321W        W35855  14.317   1.808   4.416  0.2528 -0.2290  0.1699
16322W        W35856  13.783   7.202  10.282  0.1630 -0.1724 -0.3008
16323W        W35857   5.288   5.656  11.320 -0.0195 -0.1561 -0.0086
16324W        W35858  14.072  13.822  14.291  0.0360  0.0660  0.0619
16325W        W35859  11.928   0.627   0.896 -0.0761  0.3341 -0.2940
16326W        W35860   2.491   1.934   1.850  0.0027 -0.0466  0.1601
16327W        W35861  16.233   1.825  12.531  0.0170  0.1019  0.2197
16328W        W35862   1.611   3.304  10.867  0.0707  0.2198 -0.3225
16329W        W35863   5.563  10.363  14.235 -0.3795  0.1611  0.2793
16330W        W35864   3.554   1.524   2.203 -0.1286 -0.2700  0.1954
16331W        W35865  14.455   8.818   3.384 -0.0756 -0.1356 -0.1349
16332W        W35866  14.969  18.903  12.007 -0.1313 -0.1116  0.2005
16333W        W35867   1.209   9.470   1.392  0.0968  0.0380 -0.1678
16334W        W35868   6.838  13.629  12.055 -0.1871 -0.0901  0.3135
16335W        W35869  16.839   4.425   2.022  0.2453  0.2965  0.1657
16336W        W35870   1.415  11.275   3.512 -0.3506 -0.1185  0.2573
16337W        W35871   5.494  18.379  11.465  0.1060  0.2333  0.2128
16338W        W35872  17.715   6.427  13.757  0.0266 -0.1462 -0.3882
16339W        W35873   7.834   5.464  10.364 -0.2939 -0.1072  0.0491
16340W        W35874  13.022   1.023  12.854 -0.2685 -0.1760  0.0571
16341W        W35875  14.796  14.014  11.618 -0.2648  0.2369 -0.0417
16342W        W35876   2.716  15.279   1.582 -0.1331  0.0691  0.2978
16343W        W35877  16.784   4.730  11.748  0.3867 -0.2508 -0.1315
16344W        W35878   9.033   5.638  11.178  0.0658 -0.1906 -0.0930
16345W        W35879  17.596  13.973  14.150 -0.1353 -0.0859  0.1953
16346W        W35880   5.792   2.531   1.146  0.1716  0.0649  0.2160
16347W        W35881   3.410   4.824  13.209 -0.1797 -0.1788 -0.0457
16348W        W35882  13.984  15.543   2.995 -0.1565  0.2427 -0.3883
16349W        W35883   3.761  17.886   1.051  0.1645  0.1254  0.0861
16350W        W35884   0.855   9.478  10.724  0.1854 -0.0883 -0.1482
16351W        W35885   8.040   5.874   0.790 -0.0894  0.1778 -0.1366
16352W        W35886  18.800   1.994   2.157  0.1049  0.0952 -0.1349
16353W        W35887  13.654  12.235   0.126 -0.3185  0.0371 -0.3029
16354W        W35888   1.572  16.495   9.983  0.2069 -0.0014  0.1984
16355W        W35889  18.173   9.683  10.505 -0.1281 -0.1115 -0.2685
16356W        W35890  18.923   1.798  11.533  0.3147  0.0442 -0.2455
16357W        W35891  18.409  12.800  11.645  0.0490  0.0022  0.1815
16358W        W35892  13.374  10.149   9.838  0.3163 -0.0271  0.1727
16359W        W35893   5.611   8.293   1.481  0.1803  0.5655  0.0851
16360W        W35894   5.444  15.206  12.231 -0.0593  0.1752 -0.3189
16361W        W35895   8.399  13.833  13.797 -0.0851 -0.0101  0.2058
16362W        W35896   8.644   2.699  11.708  0.0761 -0.0100 -0.1309
16363W        W35897   3.520  13.644   4.342  0.0051 -0.0100 -0.1354
16364W        W35898   8.408   6.512  10.869  0.0242 -0.2739 -0.0390
16365W        W35899   8.642  12.679   0.668  0.0927 -0.1929 -0.3024
16366W        W35900   8.059   7.620   3.628  0.1191  0.0636 -0.2269
16367W        W35901  11.413  12.632  10.503 -0.2237  0.0556 -0.0307
16368W        W35902   7.547   8.820   2.131  0.2213 -0.0815 -0.0730
16369W        W35903  16.000   9.694   4.160  0.0736  0.0437 -0.1029
16370W        W35904  15.397  15.527  10.931 -0.3650 -0.1089 -0.3369
16371W        W35905  16.758   6.095   3.651 -0.1159  0.1715 -0.0661
16372W        W35906   3.732   3.990  12.294  0.2603 -0.3183 -0.0152
16373W        W35907   1.716   2.730   1.963  0.1572 -0.1583  0.1889
16374W        W35908   7.311  17.278   2.533 -0.2014  0.0403 -0.0517
16375W        W35909  11.934  11.144  11.233 -0.3740 -0.1331  0.0764
16376W        W35910   2.185   2.107   0.541 -0.2846 -0.0401 -0.1706
16377W        W35911   6.859  18.778  13.192 -0.2283  0.1379 -0.1047
16378W        W35912   1.319  10.361   2.582 -0.1273  0.1176 -0.0122
16379W        W35913  16.480   1.391   3.429  0.2409 -0.0653  0.0822
16380W        W35914   5.560   2.008  14.564  0.0668 -0.0154  0.2077
16381W        W35915   0.895  16.293   1.328 -0.0309  0.3290 -0.1009
16382W        W35916  13.762   4.401   3.522 -0.1148 -0.1641 -0.2899
16383W        W35917  17.296   9.648  13.657 -0.0976 -0.1079  0.0582
16384W        W35918   8.258   6.870   2.315 -0.3435  0.2179  0.2619
16385W        W35919   5.522   7.437   1.938 -0.1758  0.3192  0.1029
16386W        W35920  15.202  10.804   4.060  0.1014 -0.3031 -0.3367
16387W        W35921  13.962   7.094   0.061 -0.1952 -0.1184  0.1206
16388W        W35922  10.393  15.548  12.404 -0.2198  0.0994 -0.2011
16389W        W35923   0.936  13.563  11.676  0.0139 -0.1827  0.0750
16390W        W35924   6.158   2.559   2.095  0.1835  0.2573 -0.2774
16391W        W35925   9.761  16.156   1.244 -0.1318  0.1051  0.0727
16392W        W35926   6.591   6.228  12.860 -0.0427 -0.3573 -0.0670
16393W        W35927  16.672  17.439   1.578  0.2019 -0.5854 -0.2002
16394W        W35928   7.262   6.561   3.879  0.2136 -0.0439  0.1275
16395W        W35929   9.686   7.264   2.689  0.4001  0.2552  0.2921
16396W        W35930   5.563  11.555   0.239  0.0305 -0.0405  0.0694
16397W        W35931  13.313   5.790   0.176  0.5368 -0.3744 -0.0459
16398W        W35932  18.050  16.004  11.476  0.1509 -0.0398  0.0991
16399W        W35933   2.465   1.645   5.110  0.1014 -0.0498  0.0482
16400W        W35934  18.856  18.399  14.184  0.4122 -0.0329 -0.2475
16401W        W35935   5.162   9.430  10.501 -0.0896  0.1707 -0.1077
16402W        W35936  10.348   0.302  14.528 -0.3660 -0.1425 -0.1271
16403W        W35937  10.316   4.161   0.710 -0.0263 -0.0421 -0.3062
16404W        W35938  14.764   0.767   3.501 -0.0825 -0.1464 -0.0747
16405W        W35939  13.416  17.728  12.554  0.0485 -0.0126  0.1782
16406W        W35940   1.446  15.789  13.955  0.4625 -0.2283  0.1364
16407W        W35941   6.558   4.226   0.377  0.1561  0.0717 -0.1892
16408W        W35942  13.113  10.345  12.114 -0.0591 -0.0536 -0.0621
16409W        W35943   7.021   3.881  12.011  0.0648 -0.2342  0.3519
16410W        W35944  17.476  10.210  12.476 -0.1110 -0.4295  0.1053
16411W        W35945  18.273  17.323   4.274 -0.2518  0.1459 -0.0620
16412W        W35946   2.327   2.203  14.575 -0.0306  0.0933 -0.3739
16413W        W35947  12.424  10.405  12.702  0.0521  0.0088 -0.4680
16414W        W35948   6.885  12.935  14.743 -0.1458  0.2758 -0.1949
16415W        W35949  11.667  18.761   0.783  0.2295 -0.3201 -0.3336
16416W        W35950   2.083  13.641  12.035 -0.2440 -0.0522  0.2994
16417W        W35951  12.108  10.694   2.475 -0.1939 -0.0508  0.3368
16418W        W35952   1.641   7.820   9.585 -0.0400 -0.0279 -0.0317
16419W        W35953   8.785  16.507   2.241  0.1457 -0.3562  0.1586
16420W        W35954  13.020  14.086  11.795  0.1191 -0.0231 -0.1814
16421W        W35955  14.017   5.730   3.428 -0.0297  0.2616  0.0732
16422W        W35956  17.835  10.470   1.155  0.1265  0.1995 -0.0864
16423W        W35957  17.142   3.984  12.835 -0.2014  0.3915  0.0486
16424W        W35958  18.665   4.512  14.212 -0.0464 -0.0162  0.1067
16425W        W35959   3.743  14.655  14.324  0.0833  0.1005  0.0065
16426W        W35960   3.968   2.213  12.120 -0.2829 -0.2505  0.3079
16427W        W35961  15.930  12.170   2.900 -0.0375  0.0498  0.1106
16428W        W35962  12.442  17.376   2.158  0.3413 -0.0164 -0.1018
16429W        W35963  10.959   6.159  12.287 -0.0551  0.0939  0.2929
16430W        W35964   6.388   6.381  10.018 -0.1285 -0.3061  0.0392
16431W        W35965   0.945  10.804  14.819 -0.1511 -0.0533  0.0603
16432W        W35966  14.853   3.330   0.468  0.1886  0.0478  0.1033
16433W        W35967  16.146   9.059  14.366  0.0503  0.3564  0.2408
16434W        W35968  19.006   2.763   0.924  0.0600  0.1225 -0.1902
16435W        W35969  18.880  15.853  11.526  0.3216 -0.0445 -0.0346
16436W        W35970  15.101   2.609   1.536  0.1328 -0.0888 -0.1335
16437W        W35971   9.072  16.395  11.423  0.1146 -0.0312  0.1193
16438W        W35972  16.749  13.116  13.781  0.1318  0.1415  0.1946
16439W        W35973   1.742  14.239   2.875 -0.4346  0.0076  0.5184
16440W        W35974   1.081  12.297  10.781 -0.0092 -0.1565  0.1136
16441W        W35975  16.875  16.150  13.479 -0.1131  0.1485  0.2141
16442W        W35976  10.154  11.500  13.895  0.2266  0.1225 -0.3062
16443W        W35977   6.716   4.806   2.907  0.0923 -0.3684 -0.2819
16444W        W35978   0.469  13.824  12.411 -0.1852 -0.0567  0.0995
16445W        W35979  14.881  14.680  12.217  0.3153 -0.0330 -0.1058
16446W        W35980   2.955   8.333  10.731 -0.1106 -0.0157  0.0268
16447W        W35981  14.720  12.050  14.540 -0.1019  0.1385  0.0668
16448W        W35982   9.246   3.979   3.693  0.0107  0.2313 -0.0107
16449W        W35983   6.534  18.386  13.242  0.3097 -0.1369 -0.0451
16450W        W35984  18.946  14.715   0.252 -0.0230  0.0208  0.2645
16451W        W35985  17.746  11.268   1.872 -0.1797  0.2507  0.0867
16452W        W35986  12.329  14.984  14.063 -0.1395  0.2055 -0.0670
16453W        W35987  11.772   4.944  13.329 -0.0415 -0.0350  0.1665
16454W        W35988   8.355   5.730  14.104  0.1288  0.0172 -0.1914
16455W        W35989  12.666   9.888   3.046  0.2222  0.0383  0.0773
16456W        W35990  14.679  10.871   2.687  0.0028  0.1509  0.1642
16457W        W35991   2.509  15.144   3.269  0.0261  0.0289  0.1400
16458W        W35992  14.799  10.406   1.905  0.1851 -0.0766 -0.0215
16459W        W35993  17.263  15.414  12.606 -0.0312  0.2728 -0.2307
16460W        W35994   5.415  10.300   3.947 -0.3986  0.0320  0.0390
16461W        W35995   4.232  15.427   2.068  0.0004  0.0614 -0.3236
16462W        W35996   7.421   7.294   0.864 -0.0943 -0.0225 -0.0984
16463W        W35997   1.664  16.454  11.410  0.1331  0.0117  0.1252
16464W        W35998  11.833  18.195  12.938 -0.1313 -0.2140 -0.3206
16465W        W35999  13.026  12.146   3.962 -0.2389 -0.2109  0.1877
16466W        W36000   6.732   8.959   2.604  0.1936 -0.0392  0.0783
16467W        W36001  12.324  11.988  13.831  0.0921 -0.0549  0.1723
16468W        W36002  17.412   2.540  11.328  0.1403 -0.2243  0.0358
16469W        W36003   3.348  17.197   1.163 -0.0390  0.0689 -0.3117
16470W        W36004  18.180  18.661  13.006 -0.0537  0.1613  0.2249
16471W        W36005   7.132   4.890  14.741 -0.1727  0.1043 -0.0319
16472W        W36006   8.120  16.609  12.507 -0.0699 -0.1619  0.1814
16473W        W36007  15.065   4.630  12.619  0.0910 -0.3609 -0.0342
16474W        W36008  14.111  12.402  11.223  0.1004  0.1488  0.1321
16475W        W36009  13.395  15.516   1.892  0.0265 -0.2091 -0.2094
16476W        W36010   1.991  15.644   0.503  0.0807  0.0851 -0.1019
16477W        W36011   3.226  13.959  14.767  0.2414 -0.1429  0.4305
16478W        W36012   9.559   7.304  13.792 -0.0797  0.2298 -0.1310
16479W        W36013  11.903   3.869   2.955 -0.0690  0.0949  0.0085
16480W        W36014   7.397  18.812   1.515  0.2496 -0.0344 -0.4095
16481W        W36015   8.210  10.314  12.341 -0.1808  0.0664 -0.0647
16482W        W36016  18.245   1.407  12.769 -0.0865 -0.0739  0.0692
16483W        W36017  11.029   2.428  13.679  0.0570  0.1243  0.1293
16484W        W36018  10.754  15.485   4.141  0.0853  0.1361 -0.3142
16485W        W36019  12.005  11.872  12.856 -0.0185 -0.3497  0.0028
16486W        W36020   5.308  18.784  13.175  0.1370  0.0547  0.0440
16487W        W36021   7.897   0.113  14.144  0.1171  0.0098 -0.1274
16488W        W36022  13.514   0.577  11.274 -0.0789  0.2784 -0.0115
16489W        W36023   6.850  11.927   3.101  0.5207 -0.1090 -0.0616
16490W        W36024   9.422   0.455  12.461 -0.0422 -0.3013 -0.0028
16491W        W36025  15.002   3.264  12.346  0.0432  0.4519  0.0333
16492W        W36026   4.997   1.220   2.958  0.2277 -0.1100 -0.2233
16493W        W36027   5.310   7.510   0.658  0.2670 -0.1489 -0.4016
16494W        W36028  10.560   8.594  14.774  0.0093 -0.0942  0.1482
16495W        W36029   9.546   6.293  13.693 -0.0639  0.1502  0.0826
16496W        W36030   1.576   0.072   4.279 -0.1220 -0.2148 -0.0352
16497W        W36031  14.457  16.009  11.927  0.0108 -0.0561 -0.3433
16498W        W36032  18.585   7.610  11.285  0.0784  0.3998 -0.0680
16499W        W36033   5.882   8.177  14.404 -0.0549 -0.0170  0.1660
16500W        W36034   2.892   9.283   1.039  0.0729  0.0986  0.0787
16501W        W36035  17.146  12.855  10.571 -0.2045 -0.2353 -0.2546
16502W        W36036   0.758   7.872  12.292  0.3106  0.1899  0.0454
16503W        W36037  15.665  18.802   9.559  0.1034 -0.4383  0.1113
16504W        W36038  11.426  10.597  12.404 -0.2528  0.0572 -0.0299
16505W        W36039   9.775  10.938  12.726 -0.0593 -0.0496  0.4032
16506W        W36040   5.459  17.398   1.912 -0.0919 -0.1158  0.0053
16507W        W36041  15.247  12.958   0.817 -0.2828  0.1725 -0.3646
16508W        W36042  19.055  10.973  11.872  0.1405 -0.1008  0.1803
16509W        W36043   0.608   1.979   2.050 -0.2077  0.2588  0.2292
16510W        W36044  10.485   2.311  12.771 -0.0118  0.0803  0.0826
16511W        W36045  14.593  14.661   0.030  0.2413 -0.2364  0.2002
16512W        W36046   6.119   1.600  13.753 -0.0015 -0.3432  0.2279
16513W        W36047  15.672  11.382   2.336 -0.0726 -0.2741 -0.2683
16514W        W36048  10.010   1.133   4.533  0.1461 -0.0313 -0.2740
16515W        W36049   3.215   7.580  13.108 -0.0762  0.0302 -0.0239
16516W        W36050   4.775  12.812  13.852 -0.1719  0.1241 -0.0649
16517W        W36051   2.733  15.417   0.592 -0.1222  0.0697 -0.0765
16518W        W36052  12.367  11.213  10.784 -0.0493  0.0704 -0.3177
16519W        W36053   0.564  13.181   1.220 -0.2674  0.0695 -0.1704
16520W        W36054  13.970  10.845   3.964 -0.2661 -0.2932  0.3565
16521W        W36055   5.293  17.224  12.632  0.0912  0.0042  0.0405
16522W        W36056   3.966   1.445   3.127 -0.0998 -0.0773  0.0002
16523W        W36057  14.967  11.942  13.335 -0.0694  0.3702  0.0313
16524W        W36058   3.538   8.980  13.811  0.2224  0.0242 -0.2859
16525W        W36059  17.494   3.136  12.676 -0.2495 -0.2363  0.1088
16526W        W36060   0.648  14.624   1.329 -0.1743  0.1854 -0.2577
16527W        W36061   9.560   9.734  13.022 -0.2775  0.2232 -0.0078
16528W        W36062  11.658   8.749  13.628  0.1786 -0.0523 -0.0781
16529W        W36063   8.741   5.399   9.645  0.0534  0.3172  0.0343
16530W        W36064   1.256  12.005   2.267 -0.1736  0.2141 -0.0799
16531W        W36065   9.722   1.425   3.084 -0.2090 -0.0777  0.2398
16532W        W36066   1.234   4.872   3.105  0.1005  0.2959 -0.1461
16533W        W36067   8.690  11.149   3.276 -0.1591 -0.4325 -0.0234
16534W        W36068  18.844   8.402  12.908  0.1405 -0.1147 -0.0120
16535W        W36069  12.888  14.495  14.083 -0.1531 -0.0786  0.2043
16536W        W36070   8.353  14.802  13.184 -0.0228  0.0689  0.1662
16537W        W36071   4.989   1.651   2.395 -0.0037 -0.1023 -0.0196
16538W        W36072  17.888  18.791   2.459 -0.0638 -0.3333  0.1650
16539W        W36073   0.841  18.739  13.565 -0.2249 -0.0477 -0.0107
16540W        W36074   2.190  15.317   1.582 -0.1770 -0.0699  0.2458
16541W        W36075   1.577   4.019   1.527 -0.1228 -0.2067 -0.1712
16542W        W36076   4.245  10.487  13.902 -0.1156 -0.2115  0.1088
16543W        W36077  11.890  10.196  13.528  0.1945  0.4359 -0.0502
16544W        W36078   2.699  18.324   2.770 -0.2003 -0.0440 -0.0274
16545W        W36079   2.265   7.583  13.822  0.2536 -0.0970  0.0343
16546W        W36080  10.113   9.697  14.061  0.3212 -0.2327 -0.3692
16547W        W36081  14.372  17.877  13.686 -0.3945 -0.2117 -0.1687
16548W        W36082  14.205   1.138   0.962  0.0414 -0.1397  0.3256
16549W        W36083  11.217   4.242  11.745  0.0379 -0.0441 -0.0548
16550W        W36084  16.347   6.280   0.912  0.3462 -0.0782  0.0727
16551W        W36085  11.798  17.877   4.200  0.0926  0.0541 -0.0065
16552W        W36086   9.673  10.359  13.706  0.2210  0.2393  0.1568
16553W        W36087  12.391  17.254  14.342 -0.1075  0.0325 -0.1800
16554W        W36088   7.449  17.555   2.159  0.1543 -0.0481  0.0961
16555W        W36089   7.035   7.572  13.070  0.0015 -0.0272  0.2209
16556W        W36090   6.327   6.353   3.306 -0.2677  0.0144  0.0286
16557W        W36091   5.067   7.006  14.507  0.1405  0.3053 -0.1544
16558W        W36092   6.761  10.658  11.100  0.0522 -0.0516 -0.2019
16559W        W36093  13.932  17.638  13.819  0.1647 -0.1620 -0.2938
16560W        W36094   8.135  10.028  10.974  0.0758  0.1437  0.0358
16561W        W36095  16.320  17.218   2.059 -0.2533 -0.3283 -0.3617
16562W        W36096  17.131   5.393  11.513 -0.1813  0.0173  0.3270
16563W        W36097  13.284  11.758   2.790 -0.0585 -0.0871 -0.0688
16564W        W36098   6.518   0.693   1.798  0.3220 -0.2069 -0.0893
16565W        W36099  16.585   5.231   0.914 -0.0144  0.2241  0.1615
16566W        W36100   6.645   6.590   1.264 -0.2064  0.1819 -0.0712
16567W        W36101  15.681  11.235   3.329 -0.1808  0.1145  0.1520
16568W        W36102  13.632  13.303  12.292  0.2287 -0.1430  0.1361
16569W        W36103  17.678  10.936  13.185 -0.0370 -0.0241 -0.1010
16570W        W36104   8.745  18.188  13.567 -0.2477 -0.2087  0.2257
16571W        W36105  14.340  15.671   4.277  0.0785 -0.0642 -0.2607
16572W        W36106   3.769  13.381  13.506  0.1200  0.1103 -0.1624
16573W        W36107   6.109   1.691   2.721  0.0327  0.2064 -0.1385
16574W        W36108  14.237  16.835  12.532  0.2952  0.0877  0.3091
16575W        W36109   1.672  19.096  12.630 -0.0066  0.0089  0.1146
16576W        W36110  17.830  18.041   5.486  0.1353 -0.1795 -0.0619
16577W        W36111  11.890   5.416  12.027 -0.1360  0.0918  0.0819
16578W        W36112   4.576   8.365  12.534 -0.0700 -0.0554 -0.0502
16579W        W36113  16.349   5.401  10.615  0.1920 -0.1094 -0.0358
16580W        W36114  18.596  18.190  13.754 -0.0660 -0.0885  0.3299
16581W        W36115   0.412   3.051  13.851 -0.2965  0.0037  0.0514
16582W        W36116  13.028  17.340   0.237  0.0155 -0.3415 -0.1084
16583W        W36117  16.784  16.055   1.703 -0.2802  0.0631 -0.3924
16584W        W36118  18.649   9.839  10.267  0.0534 -0.1141  0.2895
16585W        W36119  18.716  15.094  10.734 -0.2206 -0.3058  0.2275
16586W        W36120  11.019  14.960   2.807 -0.1730  0.0742 -0.1347
16587W        W36121   9.030  12.234  13.101  0.0396  0.1474 -0.3014
16588W        W36122  13.390   0.068  11.206 -0.0201 -0.2391 -0.0177
16589W        W36123  15.855   9.787   1.249 -0.1373 -0.1832  0.1326
16590W        W36124   2.424   8.861  13.619 -0.2115 -0.1832  0.0981
16591W        W36125  13.075  18.385  12.923  0.0999 -0.0518  0.1366
16592W        W36126   2.873   5.486   2.281 -0.2196  0.1421 -0.0749
16593W        W36127   9.212  10.929  12.699  0.1996 -0.1356  0.1582
16594W        W36128   4.307   7.004  12.165 -0.4288  0.1911 -0.1810
16595W        W36129   6.657  11.915   1.991  0.1449  0.3075 -0.3334
16596W        W36130  17.914  19.057   1.487 -0.2810  0.2134 -0.3530
16597W        W36131   4.494   4.216   1.313  0.0349  0.3328  0.0248
16598W        W36132  16.797   4.875  11.178  0.2735  0.1535  0.0372
16599W        W36133  18.528  10.951  11.680 -0.0862  0.0692 -0.0624
16600W        W36134   4.577  14.174   1.043 -0.2554 -0.0466 -0.2730
16601W        W36135   7.908   7.615   2.209  0.1861 -0.1518 -0.0376
16602W        W36136  15.015   0.568  13.977 -0.0215 -0.0284 -0.2220
16603W        W36137   1.243   5.086   2.167  0.0572 -0.2131 -0.2224
16604W        W36138  12.489   3.835   4.467 -0.4228 -0.2670  0.2203
16605W        W36139  14.802  17.300  12.321  0.0898 -0.0256 -0.1633
16606W        W36140  13.322  15.257  11.417  0.1506  0.5872  0.0198
16607W        W36141  12.859   4.691   4.067  0.3759 -0.1461  0.1670
16608W        W36142   1.598  11.220  12.481 -0.0832  0.1506 -0.3030
16609W        W36143   7.486   5.272  14.433  0.1846  0.0439  0.2807
16610W        W36144   8.739  16.326  11.899 -0.2515 -0.1013 -0.0608
16611W        W36145  18.640   2.211  10.191  0.0792 -0.3297 -0.0824
16612W        W36146  10.874  17.165  11.090 -0.1097  0.1552  0.2374
16613W        W36147   4.693  10.018   3.484 -0.0271  0.2207  0.0430
16614W        W36148  17.797  12.738   4.147 -0.2783 -0.0662 -0.1011
16615W        W36149  12.523   2.735  11.076  0.1868 -0.0564 -0.1671
16616W        W36150   6.735   5.793   0.608 -0.1170  0.0176  0.1400
16617W        W36151   5.488  11.041   3.521 -0.0443 -0.1068  0.3472
16618W        W36152  16.966   6.486   0.386  0.1242 -0.3447  0.2605
16619W        W36153  16.569   1.359  13.327 -0.0801  0.1230 -0.2392
16620W        W36154  15.907   2.868  14.034 -0.1991  0.1813 -0.5851
16621W        W36155   4.982   5.420  14.671  0.0426  0.3592  0.1454
16622W        W36156   4.582  15.825  12.286  0.1314  0.0669  0.0173
16623W        W36157   9.112  14.922  10.972  0.1875  0.0054  0.0061
16624W        W36158  13.090   1.271  13.525 -0.0692  0.0781  0.0445
16625W        W36159   7.374   8.127   1.762  0.1652 -0.0138  0.2678
16626W        W36160  17.110   0.711   2.090 -0.2522 -0.2959 -0.0768
16627W        W36161  12.713   1.548   3.806  0.1153  0.1494  0.1628
16628W        W36162  13.471  11.928   1.044 -0.3485  0.1420 -0.2941
16629W        W36163   8.026  12.342  14.171  0.0449 -0.1590 -0.2671
16630W        W36164  13.584  15.567  14.586 -0.2381  0.0451  0.2780
16631W        W36165  14.351  10.079  12.833 -0.1768  0.2398 -0.1676
16632W        W36166   2.432  18.784   1.086 -0.0944  0.1090 -0.0550
16633W        W36167   0.073   7.506   2.036  0.2845 -0.0604 -0.2983
16634W        W36168  17.735  14.244   3.010 -0.2368 -0.2942 -0.1257
16635W        W36169  12.127   9.552  11.207  0.0315 -0.0412 -0.0547
16636W        W36170   8.742   0.085  10.986 -0.1252  0.3948  0.3124
16637W        W36171   3.094   9.236  10.208 -0.0250 -0.1604 -0.1873
16638W        W36172  17.620   2.337   0.043 -0.1603 -0.1239 -0.0574
16639W        W36173   8.870   1.792   2.138  0.0871  0.0912 -0.1937
16640W        W36174   7.990   2.104  12.715  0.1229  0.1504  0.3650
16641W        W36175   3.297   0.985  14.443 -0.0441 -0.0621 -0.0130
16642W        W36176   1.556  18.417   0.529 -0.1324 -0.0496  0.1782
16643W        W36177  17.048   7.904  14.113  0.1211 -0.0511  0.0908
16644W        W36178   3.238   4.806   0.697 -0.0049  0.3315 -0.0534
16645W        W36179  16.002   8.223  13.565 -0.0838 -0.0082  0.0797
16646W        W36180  15.946   3.777  10.720 -0.0194  0.0840 -0.3275
16647W        W36181  12.103  13.303   2.944  0.5927 -0.0798  0.0474
16648W        W36182   1.868  10.457   3.556  0.1209 -0.2052 -0.0777
16649W        W36183   5.989   3.045   2.662 -0.0765  0.0375 -0.1742
16650W        W36184   7.406  12.149  11.983  0.4250 -0.3336  0.1988
16651W        W36185   6.443  15.127   1.532 -0.0626 -0.2848 -0.0957
16652W        W36186  15.226   3.116   1.383  0.0023  0.0320 -0.0879
16653W        W36187   0.477  12.617   4.179  0.1068  0.1506 -0.0338
16654W        W36188   6.287   3.031   2.240  0.0165 -0.2132 -0.0100
16655W        W36189   9.057  18.548   2.854  0.1242 -0.0860 -0.2351
16656W        W36190   6.790  16.470   0.175  0.0829 -0.0818 -0.2876
16657W        W36191  15.423  13.772  13.530 -0.1540 -0.0410 -0.2026
16658W        W36192   6.287   4.952   0.426  0.0565 -0.1323  0.0380
16659W        W36193  16.228  11.708  14.663  0.0653  0.1523 -0.1092
16660W        W36194   2.040  15.471  12.492 -0.1481 -0.0676  0.1449
16661W        W36195  11.199   1.630  11.971 -0.1582  0.1057  0.0315
16662W        W36196  18.588   0.827   4.329 -0.0624 -0.0754  0.2048
16663W        W36197  17.425   5.405  12.480  0.0346 -0.1728  0.1626
16664W        W36198  17.292  13.973   3.137  0.2316 -0.1302  0.0930
16665W        W36199   5.730   5.916   4.615 -0.2263  0.1638  0.1518
16666W        W36200   1.412   0.074   1.238 -0.3839  0.1022 -0.0813
16667W        W36201   5.246   7.425  13.562  0.3193 -0.0586  0.0526
16668W        W36202   0.307   2.208  10.222  0.0135 -0.1413 -0.2397
16669W        W36203   4.852   9.750  11.449  0.0469 -0.0207 -0.1701
16670W        W36204   9.368   7.589   5.350 -0.0485 -0.0329  0.0930
16671W        W36205  10.500  12.981   0.620  0.0155  0.0517 -0.3029
16672W        W36206   9.994  13.265   0.750 -0.1225  0.0548 -0.1280
16673W        W36207  17.947  15.347  14.811 -0.1058  0.2468 -0.1031
16674W        W36208   2.914   8.757  13.781 -0.2089 -0.2081 -0.1818
16675W        W36209  19.101  12.775  14.200  0.1469  0.1685 -0.1800
16676W        W36210  13.656   0.296  10.842  0.3588 -0.3545 -0.2193
16677W        W36211  15.052   0.949   3.850  0.1009 -0.1523 -0.3044
16678W        W36212  15.307  13.065   1.293  0.4958 -0.0248 -0.1787
16679W        W36213  15.985  12.218  14.271 -0.0336 -0.1968 -0.0848
16680W        W36214  15.307   3.269  12.756  0.2687 -0.0224 -0.0250
16681W        W36215   2.824  16.352   3.579 -0.1591 -0.3499  0.2364
16682W        W36216  17.733   2.456   1.325 -0.1876  0.0411 -0.1444
16683W        W36217   4.319   8.449  13.119 -0.1638 -0.1349  0.0757
16684W        W36218   5.681   8.591   2.335 -0.0363  0.1856  0.0835
16685W        W36219   0.941   5.160  10.417  0.1519 -0.0069  0.0549
16686W        W36220  13.812  14.338  12.344 -0.1973  0.0800 -0.3046
16687W        W36221   6.605   4.990   1.963  0.1178  0.3858  0.0736
16688W        W36222   4.975   1.333  14.077 -0.0237 -0.0678  0.2576
16689W        W36223   2.960   0.691  13.023 -0.0480 -0.0626  0.1450
16690W        W36224  17.544  18.494   1.605  0.1129 -0.2523  0.0280
16691W        W36225   5.729  17.249  11.236 -0.1970 -0.2029  0.1759
16692W        W36226   7.795   5.074   1.498  0.0784 -0.1479 -0.0972
16693W        W36227  17.227  12.165   3.499 -0.0906 -0.2963  0.0538
16694W        W36228  16.746   6.458  13.646  0.2467  0.1042  0.0625
16695W        W36229   6.530  15.722  14.631  0.2780  0.0882 -0.1996
16696W        W36230   0.027   6.351   2.744 -0.0571  0.0316 -0.0566
16697W        W36231  15.330   5.269   3.784  0.0693  0.0046 -0.2321
16698W        W36232   8.668   3.362   3.943 -0.3400  0.1016  0.2079
16699W        W36233  15.428   7.624   3.061  0.0743  0.2477 -0.0597
16700W        W36234  16.728  10.452  11.490  0.1157 -0.1259 -0.3378
16701W        W36235   4.964   2.441  14.002 -0.3333  0.0358 -0.2256
16702W        W36236   9.387   5.708   3.186  0.0150  0.0522  0.0014
16703W        W36237   9.636  11.718  13.803  0.2108 -0.1894  0.1013
16704W        W36238  18.430   6.987   1.127 -0.1476 -0.3050  0.0595
16705W        W36239   7.204  18.343  14.074 -0.0092 -0.1523  0.3235
16706W        W36240  11.498   0.426  14.336  0.0670  0.1658  0.1356
16707W        W36241   8.809   0.475   4.866  0.3985  0.1448 -0.0927
16708W        W36242   4.769  16.347  12.456 -0.0166  0.1428 -0.2396
16709W        W36243  14.888   5.370   1.723 -0.4673  0.0349 -0.2609
16710W        W36244  15.285   2.757  11.492  0.1752  0.0590  0.4031
16711W        W36245   7.192  12.897  13.459 -0.0449  0.4051  0.4851
16712W        W36246  12.916  14.968   1.704 -0.1839 -0.0776  0.3424
16713W        W36247   8.843   1.710   0.808  0.1302 -0.2012  0.0451
16714W        W36248  17.297   6.922   2.348  0.0438 -0.1943 -0.1877
16715W        W36249  11.770   3.371   2.811 -0.0755  0.2941  0.1117
16716W        W36250  10.056   5.249   1.975  0.1275  0.0923 -0.0280
16717W        W36251   6.185   0.900   1.469  0.0192  0.1950 -0.2777
16718W        W36252   0.736  18.596   3.410 -0.0920  0.0610 -0.0179
16719W        W36253   5.836   5.059   2.198  0.0534  0.0606 -0.0237
16720W        W36254   9.138  13.345   0.593  0.4250 -0.1323  0.0892
16721W        W36255   1.655  16.801  13.152 -0.1960 -0.0595 -0.3070
16722W        W36256   6.768  18.224   0.292 -0.0534 -0.4018 -0.2240
16723W        W36257   8.461  10.035  11.835 -0.1199  0.1699  0.1066
16724W        W36258  10.836   2.250  13.224  0.1829 -0.0705  0.1134
16725W        W36259  11.780  13.677   0.436 -0.0456 -0.1066 -0.2832
16726W        W36260  10.184   0.312  11.136 -0.1078 -0.0650 -0.0289
16727W        W36261  12.677   2.428   0.365 -0.3252  0.1216  0.0367
16728W        W36262   5.842  12.621   3.583 -0.1625  0.0661  0.0246
16729W        W36263   6.955   6.408  14.651  0.0435  0.2577  0.1024
16730W        W36264  17.009  10.117   0.007 -0.0904  0.0154  0.0688
16731W        W36265   7.430   6.020   3.946 -0.2104 -0.1242 -0.1102
16732W        W36266   4.617  12.250   1.362  0.2813 -0.0492  0.1983
16733W        W36267   8.678   9.539  13.999 -0.1377  0.1185  0.2224
16734W        W36268   0.840  13.914   3.467 -0.2134  0.0742 -0.4031
16735W        W36269  15.042  18.651   0.704  0.0532 -0.1198  0.0447
16736W        W36270  16.911   6.937   2.684  0.1484 -0.3474  0.0275
16737W        W36271  14.268   1.081   0.319  0.2667 -0.0429 -0.3025
16738W        W36272   0.070   9.204   1.864  0.0754 -0.0802 -0.1892
16739W        W36273  10.333  11.000   3.081 -0.1731  0.2292  0.0543
16740W        W36274   0.229   6.925   2.435 -0.1887 -0.0621  0.3318
16741W        W36275   9.088  11.207   0.474 -0.1639 -0.2326 -0.2526
16742W        W36276  14.470  16.182  11.087 -0.0333 -0.0456 -0.2611
16743W        W36277   0.392   4.240   0.610 -0.0217  0.1772 -0.3819
16744W        W36278  15.805   2.978  11.319 -0.2216 -0.1111  0.1209
16745W        W36279   7.330   5.100   2.324  0.4625 -0.0752 -0.0216
16746W        W36280   5.359   7.300  12.553 -0.0320 -0.0365 -0.2963
16747W        W36281  12.133   1.863  11.167  0.0426 -0.4267 -0.0445
16748W        W36282   8.080   3.151   1.817 -0.2535  0.0522 -0.2219
16749W        W36283  12.871  17.315   1.888  0.0071 -0.1673  0.0452
16750W        W36284  11.379   4.899   1.526 -0.1675  0.0118 -0.1267
16751W        W36285  10.990   2.829   3.267 -0.1005  0.0463 -0.0065
16752W        W36286  17.161  13.444   3.097 -0.0879  0.0348  0.0511
16753W        W36287  13.624   6.575  14.799 -0.2637 -0.0200  0.1202
16754W        W36288   5.613  13.500   3.108  0.1752  0.0753  0.1049
16755W        W36289   5.573  10.287   9.651 -0.1533 -0.0616  0.0722
16756W        W36290   5.157  16.464   2.725  0.3306 -0.0611 -0.0410
16757W        W36291  13.213   8.436   2.513 -0.0853 -0.1620 -0.0938
16758W        W36292  18.400   1.499   0.440 -0.0177 -0.2527 -0.3300
16759W        W36293  18.118  18.844  13.989  0.0376 -0.4104  0.0093
16760W        W36294  16.658   6.256  14.779  0.2156  0.0370  0.2367
16761W        W36295  15.908   7.696  13.264  0.0602 -0.0809 -0.0644
16762W        W36296   5.789  18.393   2.776 -0.1702 -0.0461 -0.2254
16763W        W36297   0.282  10.259  10.911 -0.2581 -0.0573 -0.3129
16764W        W36298  16.036   6.709  13.428  0.1191 -0.0871  0.2435
16765W        W36299   5.330  13.144   0.617 -0.0382 -0.1016  0.1122
16766W        W36300  15.098   9.787   4.217  0.0988  0.0962  0.3975
16767W        W36301   3.818  15.285  12.217 -0.0157  0.0026  0.0598
16768W        W36302  17.376   2.610   0.370  0.0232 -0.0107 -0.1164
16769W        W36303   5.693   1.220   2.892 -0.1223 -0.2373 -0.1834
16770W        W36304  19.093  13.054   9.650 -0.1060  0.0066  0.3193
16771W        W36305  17.260   3.089   1.748 -0.1271  0.3494  0.0396
16772W        W36306   4.519  12.479  11.639  0.0037  0.2453  0.3258
16773W        W36307   6.940  13.790   1.505 -0.1444  0.2365 -0.1663
16774W        W36308  18.580   0.548  11.995  0.3129 -0.0085  0.0197
16775W        W36309  10.851   5.097  14.463  0.2143 -0.0436  0.2106
16776W        W36310   9.730   4.825  13.313  0.0138  0.0799 -0.2063
16777W        W36311   7.199   3.727   4.726  0.3074 -0.0248  0.1538
16778W        W36312   0.115   1.319   9.876  0.2153  0.1275 -0.0982
16779W        W36313   6.366  14.143  13.730 -0.1756  0.1421 -0.0433
16780W        W36314   1.971   2.261   0.108  0.3226  0.0485  0.1542
16781W        W36315  12.287  16.288  12.143  0.1126  0.1556 -0.2598
16782W        W36316  12.620  15.042  12.529 -0.1586  0.1015 -0.0890
16783W        W36317   1.974   4.778   1.674 -0.0335  0.0223  0.4572
16784W        W36318  14.779  15.439   3.301  0.0897  0.1744  0.3973
16785W        W36319  11.231  17.399   2.388 -0.1279  0.1223 -0.1811
16786W        W36320  10.952   0.477   3.173  0.1530  0.3977  0.0785
16787W        W36321  11.481  11.321   0.597  0.0344  0.0939 -0.2060
16788W        W36322   2.352  13.015   1.825  0.2551  0.0986 -0.0795
16789W        W36323   2.532   2.211   0.181 -0.0077  0.0616  0.1051
16790W        W36324  15.849  12.510   1.947 -0.1470 -0.0484 -0.1228
16791W        W36325  15.180  11.464   1.540 -0.3541  0.0675 -0.0895
16792W        W36326  16.062  14.368  13.067 -0.0469 -0.1643 -0.0026
16793W        W36327  18.864  10.464  11.204  0.2816 -0.0907 -0.2906
16794W        W36328   1.653  15.178   0.557  0.1079  0.0839 -0.0296
16795W        W36329  13.458   8.617  11.823  0.1413  0.2701  0.0419
16796W        W36330   9.239  18.712  11.701 -0.1591 -0.2536 -0.0026
16797W        W36331   0.047   8.875   2.449 -0.0346 -0.1918  0.1879
16798W        W36332   3.549  14.943  11.602 -0.0022 -0.1600 -0.2355
16799W        W36333  10.831   7.370   2.674  0.0846 -0.2789 -0.0381
16800W        W36334   3.108  16.856   0.944 -0.4662  0.2578  0.0276
16801W        W36335   0.581  18.420  14.583  0.0339  0.1009 -0.1277
16802W        W36336   5.609  18.292   1.695 -0.1550 -0.1420  0.0639
16803W        W36337  16.884   6.877   0.733 -0.0403 -0.0836 -0.0363
16804W        W36338   1.767  12.583  12.194  0.3212 -0.0489  0.0012
16805W        W36339  19.033   8.779   0.550  0.2098 -0.0072  0.0980
16806W        W36340  16.105  18.106   0.957  0.1182 -0.3562  0.2779
16807W        W36341  16.780   4.782   3.544 -0.0550  0.1100 -0.1612
16808W        W36342   9.997   3.448   0.426 -0.1485 -0.0684 -0.0522
16809W        W36343  18.396   7.094   0.277 -0.0442  0.1965 -0.0958
16810W        W36344  14.634  18.978   3.325 -0.2641 -0.3854  0.3008
16811W        W36345   1.176   3.356  12.400 -0.1930  0.1402  0.1667
16812W        W36346   0.027  13.693  11.331 -0.1685  0.1443 -0.0996
16813W        W36347   0.704   2.427  12.603 -0.0687  0.0274 -0.0997
16814W        W36348  18.143  12.951  10.627  0.3216 -0.1346  0.0903
16815W        W36349   1.295   5.130  13.158 -0.1550 -0.0483 -0.0396
16816W        W36350  10.439  15.075   1.677  0.0690 -0.3725  0.2696
16817W        W36351  17.918   1.543  14.712  0.0013 -0.2608  0.0999
16818W        W36352  17.302  11.652  14.128 -0.0251 -0.0765  0.1843
16819W        W36353  16.793   8.889  14.583 -0.2552  0.1081 -0.2037
16820W        W36354  15.375   2.823  13.164 -0.2857 -0.2982 -0.0591
16821W        W36355   8.865   1.432   4.303 -0.3557 -0.1458 -0.1929
16822W        W36356  10.644  12.891   0.089  0.0644 -0.1783 -0.2231
16823W        W36357  14.741   4.904  12.146 -0.0430 -0.1881  0.3345
16824W        W36358  17.529  18.439   0.316 -0.1781 -0.2805  0.0686
16825W        W36359  16.601  15.889  11.719  0.0738 -0.0437  0.1248
16826W        W36360  11.615   0.154   3.910 -0.0391  0.0019  0.0790
16827W        W36361  15.017   4.699  13.878  0.0478  0.2428  0.0058
16828W        W36362   4.192  11.558   1.971  0.0889  0.2846 -0.0333
16829W        W36363  13.884   1.975   4.142 -0.1667 -0.1279  0.1010
16830W        W36364   7.956  11.097   0.956  0.2014  0.1637 -0.0209
16831W        W36365  18.157   3.353  14.427 -0.5233  0.0230  0.3102
16832W        W36366   0.838   1.566  13.610  0.0233  0.0250  0.1974
16833W        W36367   7.653  14.086  12.072 -0.1962 -0.1209 -0.2066
16834W        W36368   6.216  18.945   1.522  0.0486 -0.1574  0.0337
16835W        W36369  17.527   1.282  10.947  0.2082  0.0045  0.0208
16836W        W36370  15.025  19.030   0.967  0.1105  0.1627 -0.1829
16837W        W36371  14.986  12.543  10.886  0.0310  0.1524 -0.1573
16838W        W36372   1.256  10.353  13.221 -0.1312  0.2005  0.1905
16839W        W36373  12.509  13.209   2.569 -0.0548  0.0018 -0.0203
16840W        W36374   7.953  15.298  13.693 -0.2283 -0.1108  0.2576
16841W        W36375   5.918  18.595   1.435  0.1757 -0.0363  0.0537
16842W        W36376  10.072  13.705  12.814  0.3326 -0.2325  0.0383
16843W        W36377   3.035  16.216  13.798  0.1888  0.1286  0.1635
16844W        W36378   2.346  15.397  13.914 -0.0656 -0.0648 -0.4420
16845W        W36379   9.130  15.959  12.111 -0.3408 -0.3609 -0.1629
16846W        W36380   1.526  18.609   2.897  0.0671  0.1008 -0.1782
16847W        W36381   1.180   2.521  12.775  0.3037 -0.1915  0.2415
16848W        W36382   7.158  14.265  13.085 -0.0916  0.1127  0.0939
16849W        W36383  16.405  17.773  14.092  0.0685  0.5423  0.1661
16850W        W36384   7.279   4.499  11.157 -0.2675 -0.3167 -0.0907
16851W        W36385  11.029   8.280  10.327 -0.3312 -0.0979 -0.1364
16852W        W36386  18.253  12.071  14.210 -0.0162  0.3701  0.0193
16853W        W36387  12.143  15.067  12.983 -0.2631 -0.0122 -0.3635
16854W        W36388  18.079   7.794   4.732 -0.0106  0.1525 -0.0930
16855W        W36389   4.263   8.004  13.239 -0.0907  0.0088 -0.2869
16856W        W36390   8.896   3.078   1.040 -0.2182  0.0868 -0.1301
16857W        W36391   8.428  13.493  13.385 -0.3383  0.3810  0.0047
16858W        W36392   9.841  13.750   1.875 -0.3484  0.0469  0.0437
16859W        W36393   4.740   3.871   9.329  0.1014 -0.0689  0.0602
16860W        W36394  10.651   2.159   4.275 -0.1490  0.0883  0.0537
16861W        W36395   6.318  12.431   3.933 -0.2883 -0.3228  0.3701
16862W        W36396  15.853   0.263  10.588  0.2681 -0.1851 -0.3142
16863W        W36397  13.680   7.802   3.119 -0.1304  0.2656  0.1084
16864W        W36398   6.721  13.527  10.578 -0.0127  0.5299  0.0686
16865W        W36399  18.559   2.709   2.785  0.3059 -0.5629 -0.1077
16866W        W36400  15.689   8.011  10.950  0.2041  0.0890 -0.2280
16867W        W36401   0.504  18.091   2.424 -0.1706 -0.0379 -0.2747
16868W        W36402   2.882   9.048  14.529 -0.0096 -0.1363  0.0619
16869W        W36403   3.335  11.095   2.182  0.0939 -0.1712 -0.1642
16870W        W36404   2.004  16.791   4.627 -0.2202 -0.0637 -0.0570
16871W        W36405  15.390   3.739  12.581  0.0989  0.3337  0.2524
16872W        W36406   6.785   5.666  10.779  0.1691 -0.0175 -0.1807
16873W        W36407   8.928   3.926   1.423  0.3067  0.1607 -0.0610
16874W        W36408   0.693  13.179  13.253 -0.0765 -0.0706  0.1366
16875W        W36409   0.437  14.624  14.198  0.2026  0.1130 -0.0056
16876W        W36410   2.493  18.265   1.117 -0.2628 -0.1594 -0.1995
16877W        W36411   3.334   0.745  11.766  0.2075  0.0689 -0.1442
16878W        W36412  13.496   3.914   0.272  0.1871  0.1503  0.3744
16879W        W36413   6.006   6.082   3.632 -0.2160  0.1130 -0.0356
16880W        W36414  18.099   9.355  12.162  0.0249 -0.0760 -0.3707
16881W        W36415   5.521   6.495  11.652  0.3444 -0.1057  0.2432
16882W        W36416  16.876  14.913   1.818  0.0035 -0.0214  0.0432
16883W        W36417   7.394  14.861   3.509  0.2101  0.2334  0.1186
16884W        W36418   8.489   6.933   4.413  0.1931  0.1018  0.1715
16885W        W36419  19.075  12.330  12.684 -0.0237 -0.0122 -0.1884
16886W        W36420   3.969  16.866   0.439  0.1405 -0.0921 -0.3447
16887W        W36421  17.646  12.238  14.448 -0.3742  0.0163 -0.0411
16888W        W36422   9.329   0.625  14.134 -0.0190 -0.0978 -0.2193
16889W        W36423   3.521   8.595   3.664  0.2474 -0.0269  0.0639
16890W        W36424   9.379   0.514  11.376  0.2421 -0.2036  0.0698
16891W        W36425   4.774  18.551   2.047 -0.1326 -0.0727 -0.3163
16892W        W36426  14.609   5.504  11.495  0.1144 -0.1587  0.3443
16893W        W36427   5.042  18.585   1.212 -0.1438 -0.1020 -0.0006
16894W        W36428   7.301   1.175   2.350  0.2015 -0.0311  0.0577
16895W        W36429   0.108   1.859  10.711  0.2005 -0.3397 -0.2118
16896W        W36430  18.377   4.721  12.885  0.3254 -0.3392  0.0715
16897W        W36431  10.406   9.566  11.802 -0.1029  0.2705  0.0072
16898W        W36432   0.646  14.994   1.895  0.3294 -0.1694  0.1963
16899W        W36433  15.002   0.608   1.065  0.1134 -0.1488  0.2168
16900W        W36434   9.822   2.731   3.970  0.0861 -0.1931 -0.0329
16901W        W36435   3.393  13.455   2.984 -0.1683 -0.0365 -0.0619
16902W        W36436   1.548   1.503   3.131  0.2425  0.2887 -0.1240
16903W        W36437   6.359  18.873   3.671  0.3835  0.1691  0.2531
16904W        W36438   1.300  15.473  11.134 -0.1118  0.3276  0.3547
16905W        W36439   2.561   6.791   0.627 -0.0627 -0.1082 -0.0174
16906W        W36440  18.480   7.112  11.370  0.1864 -0.2301  0.0002
16907W        W36441  10.200  11.285  11.084 -0.1324  0.2354 -0.0342
16908W        W36442   6.559  12.126   1.044 -0.1826  0.0160 -0.0162
16909W        W36443   6.765   5.382   3.497 -0.2021 -0.0549  0.1948
16910W        W36444   6.345  14.654   2.474 -0.4482 -0.0749 -0.0665
16911W        W36445   4.903  16.043  14.105 -0.1253  0.1745  0.0015
16912W        W36446   2.348   3.256   1.799 -0.0398  0.0709 -0.1010
16913W        W36447   8.164   9.398  14.150  0.0281 -0.0848 -0.0728
16914W        W36448   0.802  19.095  12.709 -0.4135  0.0058  0.0335
16915W        W36449  16.589  14.997  10.806  0.0791 -0.0813  0.3962
16916W        W36450   2.200   8.692  14.053  0.1886 -0.1140 -0.1873
16917W        W36451  12.455   4.110   2.321 -0.0286 -0.0565  0.5346
16918W        W36452   6.587   6.717  11.508  0.1382 -0.0943  0.0042
16919W        W36453  10.922  18.759   0.617 -0.0342  0.0021 -0.1693
16920W        W36454   6.820  14.928   2.523  0.0750  0.2835 -0.1259
16921W        W36455   3.199   5.032   4.378 -0.1411  0.1711 -0.0658
16922W        W36456  13.086   1.774   3.694 -0.1719 -0.0534 -0.5388
16923W        W36457  11.526   2.678   0.567  0.1856  0.1038 -0.1969
16924W        W36458  15.443  15.142   1.055  0.2843  0.0944  0.2973
16925W        W36459   0.258  11.979  10.429 -0.0367 -0.0620  0.0786
16926W        W36460   9.162  17.027   3.951 -0.0669 -0.0358  0.1319
16927W        W36461   1.014   5.004   0.685  0.1312  0.0885  0.1166
16928W        W36462  12.522  12.276  13.420 -0.1367  0.1762  0.1675
16929W        W36463  10.354  18.973   4.557 -0.1449 -0.2990  0.0247
16930W        W36464  13.341  10.570   0.254 -0.0223 -0.1075 -0.3059
16931W        W36465   1.076  18.963   4.245  0.0602 -0.0923  0.0006
16932W        W36466  14.391   8.720  14.820 -0.1016  0.1600 -0.3100
16933W        W36467   2.302  11.619   2.777 -0.0310  0.1111 -0.2148
16934W        W36468   5.141   6.636  11.925  0.0414  0.1262 -0.2283
16935W        W36469  17.434  12.822  13.194  0.0948  0.1930  0.1384
16936W        W36470  15.087  14.349   2.105 -0.2266 -0.1864 -0.0314
16937W        W36471   3.628   7.067  12.626 -0.5207 -0.1494 -0.1838
16938W        W36472  14.214  10.885   1.120 -0.0809  0.0610 -0.0784
16939W        W36473   9.599  10.986   1.925  0.1309  0.2358 -0.0647
16940W        W36474  14.730  15.227  10.906  0.0670  0.0824 -0.0420
16941W        W36475  12.168   9.828  11.730  0.3051 -0.0820 -0.1498
16942W        W36476   3.897  18.487   2.196 -0.1195 -0.1684  0.1023
16943W        W36477  15.048   5.171  13.728 -0.0371  0.1515 -0.0494
16944W        W36478  15.520  17.943  13.456 -0.4466  0.0695 -0.3830
16945W        W36479  11.050   0.532   0.896 -0.1288  0.1244  0.0017
16946W        W36480   8.848  11.939   4.292  0.3990  0.1720 -0.1211
16947W        W36481   7.889  18.473   0.480  0.0605  0.0514  0.3886
16948W        W36482  11.913  12.631  12.057  0.2843 -0.0001 -0.0693
16949W        W36483   9.354   6.376   2.681 -0.0927 -0.1755 -0.1822
16950W        W36484  16.921   1.944   0.786 -0.0788  0.1742  0.0191
16951W        W36485  15.275   7.074  11.689 -0.3911  0.1750 -0.1034
16952W        W36486   0.275   8.610  12.283  0.3226  0.0239 -0.1998
16953W        W36487   9.659   2.166   0.657  0.2248 -0.1996  0.0441
16954W        W36488   2.809  12.135   0.871 -0.1634  0.3719  0.0013
16955W        W36489   1.790   9.392   0.478  0.0037  0.0850  0.0170
16956W        W36490   4.786  13.516  12.769 -0.0488  0.2014 -0.0776
16957W        W36491  14.100   7.553  12.583 -0.0624  0.0313  0.1959
16958W        W36492  17.664   1.754  10.721  0.2635 -0.2117 -0.0113
16959W        W36493   1.293   8.532   0.642  0.1719  0.0738 -0.1692
16960W        W36494  16.876   4.642   2.534 -0.0853  0.0535 -0.2636
16961W        W36495   7.353  18.648  10.279 -0.3656 -0.0410 -0.3263
16962W        W36496  18.405  14.465   2.000 -0.0615  0.2699 -0.0483
16963W        W36497   8.290  17.282   0.895  0.0549  0.3478 -0.1181
16964W        W36498   9.600  18.705   0.794 -0.0030 -0.1345 -0.0776
16965W        W36499   6.969   3.873   2.524  0.1152  0.3549  0.0069
16966W        W36500   6.617   6.723  11.988 -0.1105  0.0032 -0.0674
16967W        W36501   3.646   3.080  14.773  0.3158 -0.1398 -0.0159
16968W        W36502  17.302  10.811  13.608 -0.2509  0.1591 -0.1452
16969W        W36503  17.983   8.058  10.855  0.0201 -0.0791 -0.4651
16970W        W36504   3.761   4.497  12.322  0.0252 -0.0713 -0.1155
16971W        W36505   9.910  10.392   0.772  0.2475 -0.1589 -0.1745
16972W        W36506   5.032   8.657  13.776 -0.1826  0.0658  0.0537
16973W        W36507   3.336  13.452  14.258  0.0194 -0.1273  0.0219
16974W        W36508  19.062   2.712  14.066 -0.0079  0.2425 -0.0287
16975W        W36509  15.994  15.240   0.199  0.0299  0.2662 -0.2734
16976W        W36510  15.442  15.158  14.315  0.2998 -0.1193  0.0910
16977W        W36511  13.659  15.433  11.944 -0.1755 -0.0091 -0.4925
16978W        W36512   2.096   3.009   1.057  0.0452 -0.1403 -0.0915
16979W        W36513  13.354  17.769  13.324 -0.4194  0.0351 -0.1676
16980W        W36514  16.633   1.725  11.865  0.0996 -0.4045 -0.1620
16981W        W36515  18.443   4.173  10.842  0.1485 -0.2952 -0.1319
16982W        W36516   0.589  18.237  13.197  0.1359  0.0877  0.0941
16983W        W36517   7.555   6.486  11.821 -0.0310  0.0863 -0.1489
16984W        W36518  14.768  11.424  11.154 -0.0075  0.0600  0.1704
16985W        W36519   6.400   3.801   0.222 -0.1412 -0.2587 -0.0518
16986W        W36520  11.198  16.741   2.737  0.0255  0.0346 -0.1263
16987W        W36521  10.758  18.221  11.275 -0.1635 -0.1213 -0.1086
16988W        W36522  12.516  12.696  13.671 -0.0037 -0.0997 -0.1786
16989W        W36523  14.455   1.420  14.690 -0.4129  0.0514 -0.1170
16990W        W36524   4.653   5.076  14.565 -0.0076 -0.1083 -0.1747
16991W        W36525   5.131  10.632   4.211  0.0352 -0.1468  0.1924
16992W        W36526  15.175  16.565   2.576  0.2011  0.1368  0.0776
16993W        W36527  16.921  11.057  13.432 -0.0773 -0.2493  0.1112
16994W        W36528  19.116  16.757   0.713  0.2190 -0.2879  0.0991
16995W        W36529  18.742  14.000  13.253  0.0284 -0.2182 -0.0227
16996W        W36530  17.913   3.223   0.433 -0.1186 -0.0244  0.1099
16997W        W36531   2.981   8.747   1.152  0.1978  0.3367 -0.1742
16998W        W36532   7.157  16.981  12.641  0.0509  0.0904 -0.1378
16999W        W36533   6.068   6.101  13.269  0.0861  0.0842 -0.0277
17000W        W36534   0.448   9.204  13.487 -0.0940 -0.1676 -0.0407
17001W        W36535   1.478  17.526   1.929 -0.0540  0.2176  0.0099
17002W        W36536   0.285   9.342  11.703  0.0588 -0.1572 -0.1857
17003W        W36537   8.886   2.255  11.734 -0.1639  0.1349  0.1779
17004W        W36538   5.329   2.334   0.023 -0.0506  0.0415  0.2197
17005W        W36539   8.659   3.702   2.181 -0.0544 -0.1698  0.1433
17006W        W36540   5.657   7.500   3.136 -0.1293 -0.0059  0.4868
17007W        W36541  12.559  10.499  11.384  0.4334  0.0282  0.1023
17008W        W36542  16.005   2.893   1.049 -0.2833  0.0845  0.1288
17009W        W36543  16.097  17.573   3.546  0.0481 -0.1208 -0.1439
17010W        W36544   4.997   6.526   2.137 -0.0165 -0.0528 -0.0912
17011W        W36545   4.751   6.315   0.206  0.0178  0.1555  0.3737
17012W        W36546  13.117  13.670   2.345 -0.3223  0.0243  0.1843
17013W        W36547  16.229   7.283   0.019 -0.0074  0.3340 -0.2951
17014W        W36548  17.453  14.515   2.517 -0.1726  0.0594 -0.0522
17015W        W36549  10.835   0.980  14.255 -0.1981  0.2805  0.0633
17016W        W36550   6.415  18.564   0.524 -0.1859  0.0077 -0.1991
17017W        W36551   0.697   7.054  10.483  0.1719  0.2775 -0.4686
17018W        W36552   2.439   8.424   2.550 -0.0776  0.0786  0.2217
17019W        W36553   7.178  17.885  13.229 -0.1711 -0.0018 -0.2614
17020W        W36554   6.084  12.102   0.669 -0.0052 -0.0624  0.0950
17021W        W36555  10.174  14.197   3.612  0.2449  0.0227 -0.2959
17022W        W36556  10.452   1.472  11.117 -0.2857  0.0726 -0.1006
17023W        W36557   6.294  17.566  14.478  0.1958 -0.0543 -0.0535
17024W        W36558  18.876   5.814   2.732 -0.2130 -0.1207  0.0057
17025W        W36559   5.912  13.641  14.338 -0.2029  0.2570  0.0760
17026W        W36560   5.798   8.694  14.400  0.0074 -0.0237 -0.0184
17027W        W36561  11.422  17.846  11.015  0.1441 -0.1603 -0.0049
17028W        W36562  19.095  13.314   1.035 -0.1084 -0.1750 -0.3758
17029W        W36563  12.960  13.407  14.067 -0.2754  0.2756 -0.2817
17030W        W36564  15.307   7.508  13.331 -0.0318 -0.1831 -0.1556
17031W        W36565   7.685   6.192   9.824 -0.0298  0.1413  0.3113
17032W        W36566  10.974   3.279   4.136  0.1895 -0.0718  0.0052
17033W        W36567  16.028   4.559   2.969  0.0363  0.0496 -0.0105
17034W        W36568  18.024  12.637  10.989  0.0387  0.0495 -0.1318
17035W        W36569   3.281   9.932  11.694 -0.2273 -0.1720  0.0338
17036W        W36570   6.903  13.852  12.516 -0.0104 -0.1092  0.3701
17037W        W36571  14.791  15.411   0.272 -0.0009  0.0106 -0.1187
17038W        W36572  13.545   9.645   3.239 -0.0398  0.0374  0.2973
17039W        W36573  14.018  12.694  14.253 -0.3724 -0.2086  0.1486
17040W        W36574   6.402   7.674   3.830  0.1320  0.0091  0.3581
17041W        W36575  19.115  17.610  13.138  0.0167 -0.0524 -0.3562
17042W        W36576  10.945   8.201  10.802 -0.0450 -0.3506 -0.0364
17043W        W36577   9.609   2.224   0.135 -0.2104 -0.0523 -0.1524
17044W        W36578  11.538   2.334  11.397  0.2105  0.0311 -0.1161
17045W        W36579  18.001  17.626   2.566 -0.0186 -0.0354  0.2956
17046W        W36580   7.625   1.051   1.215  0.1742 -0.0795  0.1811
17047W        W36581  11.706   2.317  14.057 -0.0292  0.0517  0.0037
17048W        W36582   1.426   8.234  11.029 -0.1016 -0.1065 -0.1597
17049W        W36583  13.676   2.762  12.100 -0.0006 -0.2565 -0.0941
17050W        W36584  11.970  18.884  13.002 -0.1234  0.1392  0.1195
17051W        W36585  16.351  10.524  14.295  0.0717 -0.2945  0.0770
17052W        W36586   3.208  11.083   3.189 -0.0317 -0.0049 -0.3065
17053W        W36587   2.105  16.337  12.082 -0.1506 -0.0853 -0.2824
17054W        W36588   8.398   9.017   1.043 -0.0649  0.1235  0.2112
17055W        W36589   1.796   2.697  13.403 -0.3606  0.0554 -0.1175
17056W        W36590  10.735  10.067   1.889 -0.1098 -0.1218  0.0110
17057W        W36591  12.421  18.512   0.433 -0.2058 -0.0413 -0.0256
17058W        W36592   5.497  15.373  11.721 -0.0994  0.2142  0.0064
17059W        W36593  14.701  12.411   2.935 -0.2903  0.0320 -0.1892
17060W        W36594  14.775   2.454  10.770 -0.4377  0.0432 -0.2333
17061W        W36595  16.895   3.138   3.063 -0.2747 -0.0788  0.0390
17062W        W36596  13.520   5.389   2.069 -0.2746  0.0690  0.1252
17063W        W36597   6.503  15.885  13.505  0.5058 -0.2296 -0.3027
17064W        W36598   6.011  16.996  13.632  0.1216  0.3082 -0.0610
17065W        W36599  15.735   2.227   0.370 -0.0095  0.1627  0.0283
17066W        W36600   0.228  14.845   4.743 -0.0251  0.0876  0.0607
17067W        W36601   9.311  10.986   1.228 -0.0493  0.2400 -0.0833
17068W        W36602   2.261  11.911  12.134  0.0773 -0.0020 -0.2969
17069W        W36603   2.041   4.074  12.901 -0.0562  0.2341  0.2004
17070W        W36604  16.890  15.694   0.671  0.1679 -0.0520  0.2328
17071W        W36605   8.052   0.011   4.254 -0.1633  0.0092  0.2158
17072W        W36606  11.771   2.227   4.429  0.1887  0.2269  0.1819
17073W        W36607  16.883  16.842  14.313 -0.1426  0.2018  0.2082
17074W        W36608  11.258  13.689   1.344 -0.0496  0.2053  0.1502
17075W        W36609  13.014  13.545  13.614  0.0752 -0.1410 -0.0407
17076W        W36610   1.211   9.579  12.312 -0.0593  0.0032 -0.0274
17077W        W36611   4.312  14.566  12.022  0.2058  0.0194 -0.2908
17078W        W36612  16.144   0.996   1.089  0.1592 -0.0408  0.0169
17079W        W36613  15.126   3.596   1.640  0.0170  0.2413  0.2003
17080W        W36614   7.346  15.295   0.401 -0.1867 -0.0892  0.0611
17081W        W36615   2.651  15.573  11.044 -0.1709  0.1070  0.1581
17082W        W36616   1.512   2.989  13.111 -0.1296 -0.1203  0.0676
17083W        W36617   0.099   8.398   0.847 -0.1612 -0.1282  0.1032
17084W        W36618   6.609   4.099   1.464  0.4527  0.0066 -0.0246
17085W        W36619  17.819  16.510   3.283  0.0771  0.0382 -0.0977
17086W        W36620  13.903   4.796   3.279  0.0923  0.0997  0.1869
17087W        W36621  18.224   6.798   1.812 -0.0404  0.1248 -0.0061
17088W        W36622  17.106  14.162  13.011 -0.4202 -0.2599  0.0550
17089W        W36623   8.098  16.686   4.492  0.1267  0.1198  0.1458
17090W        W36624  10.811  11.519  10.964 -0.5114 -0.1819  0.0626
17091W        W36625  11.242   9.019  11.403 -0.2796 -0.1173  0.1321
17092W        W36626   0.528   2.782   4.166  0.0719  0.3119  0.0378
17093W        W36627   3.661   4.797   0.964  0.3464  0.3534 -0.1069
17094W        W36628  10.202   9.381   2.105  0.0404 -0.1994  0.4317
17095W        W36629  13.787   4.409   4.140 -0.2231  0.3838 -0.0335
17096W        W36630   3.272   4.855   3.078  0.1593  0.1059 -0.1779
17097W        W36631  10.770   9.407   2.425 -0.0795  0.0964  0.0973
17098W        W36632   5.112   5.190  13.058 -0.1478 -0.0623 -0.2191
17099W        W36633   8.091   4.962   0.997 -0.0590 -0.3441  0.1308
17100W        W36634   4.602   1.905   2.630 -0.3923  0.1317 -0.6383
17101W        W36635  15.600   2.117  12.448  0.1674 -0.2436 -0.0087
17102W        W36636   4.013   1.331   4.529 -0.0808  0.0501  0.0132
17103W        W36637  18.812   1.351   0.997 -0.2259  0.3301  0.0104
17104W        W36638  11.129   5.530   1.766  0.1261  0.1514  0.2048
17105W        W36639  13.046   7.544  11.689  0.1043  0.2809 -0.0208
17106W        W36640   8.230   9.034   4.215 -0.0003  0.2363  0.1217
17107W        W36641  14.367   7.377  11.684 -0.2914 -0.1064  0.2269
17108W        W36642  13.697   0.599   3.349  0.0294 -0.2103 -0.0523
17109W        W36643  13.010  13.949   4.062  0.0725 -0.1566  0.2384
17110W        W36644  18.616   6.262  13.973 -0.0526  0.0006  0.1754
17111W        W36645  11.119   5.323  12.660 -0.0927  0.0482 -0.0991
17112W        W36646   2.609   7.549  10.656  0.0203  0.2228 -0.2340
17113W        W36647   5.828  17.390  14.806 -0.1730  0.0767  0.1965
17114W        W36648   4.389  17.747  11.084 -0.0339 -0.1626 -0.1266
17115W        W36649   6.642   7.281  12.706 -0.0553 -0.0492 -0.2738
17116W        W36650   0.938   2.354  10.617 -0.1655 -0.1821 -0.2022
17117W        W36651  12.947   3.593   1.860 -0.2366  0.0288 -0.0913
17118W        W36652   4.957  13.234  13.409  0.0031 -0.0175  0.1303
17119W        W36653  17.065  18.397  13.803 -0.1927  0.2497 -0.1258
17120W        W36654   9.884  10.582   1.740 -0.1433 -0.1247  0.1171
17121W        W36655  13.927  12.777   3.184 -0.2305  0.0205  0.1391
17122W        W36656  12.394  10.111  14.345  0.3249 -0.0227 -0.0856
17123W        W36657  16.066  15.542  13.876  0.5830  0.1040  0.0513
17124W        W36658  18.522   5.351  11.684  0.0897  0.1127 -0.1294
17125W        W36659   9.333  16.634   1.206 -0.0408  0.0170 -0.1236
17126W        W36660   9.090   8.789  10.718 -0.0517  0.0981 -0.2504
17127W        W36661   6.564   1.943  13.141  0.1904 -0.0031 -0.0399
17128W        W36662  13.460  14.115   3.979 -0.0499 -0.0562  0.2441
17129W        W36663  13.652   9.908   1.008 -0.4413  0.1619  0.3155
17130W        W36664  11.754  12.489  11.587 -0.1086  0.3343 -0.0276
17131W        W36665   4.513  10.898  11.116 -0.1227  0.1286  0.1877
17132W        W36666   8.063   0.848  14.633 -0.1172 -0.0352 -0.0551
17133W        W36667   8.349   4.445  14.062  0.0400  0.1287  0.1997
17134W        W36668  18.762   2.438   2.392 -0.3068 -0.4216 -0.2026
17135W        W36669  15.079  14.196   3.910 -0.0365 -0.2826 -0.0264
17136W        W36670   0.552   7.865   0.419  0.0595  0.0783  0.2266
17137W        W36671   2.993   5.825  11.243 -0.2828  0.1006  0.0350
17138W        W36672  11.377   0.850  14.109 -0.4247 -0.2742  0.2563
17139W        W36673   9.021   8.355   0.518  0.0080 -0.3365 -0.2385
17140W        W36674   5.317  18.427   3.842  0.0853 -0.0526  0.2703
17141W        W36675  14.511   4.994   0.664  0.0780 -0.3214 -0.0169
17142W        W36676   6.338  11.305  10.526  0.0355 -0.0723  0.0956
17143W        W36677   6.349   1.970   0.820 -0.1849  0.0256 -0.0541
17144W        W36678  11.794   0.343   1.348  0.1190  0.1795  0.0704
17145W        W36679  10.912   5.162   1.400 -0.0056  0.0615  0.1764
17146W        W36680   0.355   3.601   1.805  0.0955 -0.1410  0.0792
17147W        W36681  15.646   3.955   3.326  0.2188  0.1946  0.0002
17148W        W36682   0.956  17.336   2.919 -0.0931 -0.0638  0.0147
17149W        W36683  14.484  14.848   3.995  0.1655  0.1657 -0.1200
17150W        W36684  16.213  16.051   2.032  0.2190 -0.0554 -0.2751
17151W        W36685  18.564  17.712  14.838 -0.3609 -0.0602 -0.1263
17152W        W36686  15.759   0.301   2.881 -0.0573 -0.0445 -0.0495
17153W        W36687   4.793  18.985  14.056 -0.3467 -0.3068  0.1505
17154W        W36688  15.928   5.862  13.327 -0.4597  0.1256  0.1785
17155W        W36689  12.211   8.570  11.776  0.1970 -0.6543 -0.1219
17156W        W36690  18.948  18.534   3.234 -0.3092  0.1248 -0.2493
17157W        W36691   8.785   6.576   3.474  0.1148 -0.1560  0.0223
17158W        W36692   9.956  16.952  13.966 -0.1460  0.0357 -0.1152
17159W        W36693   4.071  18.318  11.870  0.0217  0.4079  0.0490
17160W        W36694   9.365  16.555   4.032 -0.0425  0.0327  0.3234
17161W        W36695  17.570  16.089   2.067  0.0896 -0.0663 -0.1390
17162W        W36696   2.140   1.603   0.612  0.0250 -0.0619  0.1175
17163W        W36697   0.350   4.176   1.101  0.1763  0.1237  0.1881
17164W        W36698   4.355   1.373  11.250 -0.1644  0.2407  0.0625
17165W        W36699  13.915  13.588  13.126  0.5328 -0.0482 -0.1085
17166W        W36700   2.102   8.161  12.321 -0.2382 -0.0784 -0.3515
17167W        W36701  16.864   0.135  11.329 -0.1783 -0.1395  0.1703
17168W        W36702   9.504  17.438   2.404  0.0432 -0.2124  0.0358
17169W        W36703   2.678   5.139  13.270  0.0422  0.0154 -0.1934
17170W        W36704   7.878   5.508   3.354  0.1106  0.2546 -0.0307
17171W        W36705  15.077   2.612  14.112 -0.1874 -0.1120 -0.1045
17172W        W36706   0.502  14.743   3.044 -0.0130 -0.2284 -0.0030
17173W        W36707  14.734  17.873  14.064 -0.0013 -0.1610  0.1044
17174W        W36708   6.400  14.636   1.215 -0.1142  0.0418  0.0452
17175W        W36709  15.480  10.295  13.903 -0.0978 -0.3340  0.0177
17176W        W36710   8.118   5.796   0.335  0.0157 -0.1514  0.1499
17177W        W36711  14.204   5.932  14.453  0.1542 -0.0324  0.1175
17178W        W36712   5.131   2.030  13.104  0.0656 -0.0860 -0.2545
17179W        W36713  13.469   6.460   3.331  0.1359 -0.3650  0.3566
17180W        W36714  12.744  16.608   0.981 -0.1142 -0.0018 -0.0089
17181W        W36715   5.943  18.130  11.254  0.3022 -0.2232  0.0555
17182W        W36716  13.907  11.369  11.123 -0.1788 -0.2018  0.0965
17183W        W36717   6.791   0.100  13.569 -0.1317 -0.1035 -0.0630
17184W        W36718  18.125  11.183  14.614  0.2254  0.2148  0.2848
17185W        W36719  18.712   9.066   1.940 -0.0384 -0.1590 -0.0854
17186W        W36720  13.617   1.437  14.453  0.0753 -0.1689 -0.1426
17187W        W36721  18.911  16.901   2.926  0.0962  0.2108 -0.0621
17188W        W36722  14.906   8.516  13.917 -0.0475  0.0414  0.0754
17189W        W36723  14.062  16.291   4.413  0.0864 -0.1836 -0.1818
17190W        W36724  15.240   2.239  13.838 -0.0704  0.1665 -0.1223
17191W        W36725  13.784  16.806  14.166 -0.0948  0.0086 -0.1326
17192W        W36726   9.127  16.196  13.391 -0.0509 -0.0256  0.2743
17193W        W36727   4.508   3.004  12.104 -0.1471 -0.1524  0.2210
17194W        W36728  11.528   0.338   4.377  0.0945  0.0831  0.0287
17195W        W36729  18.522   3.117   3.117  0.2215 -0.1336  0.0186
17196W        W36730  16.471  17.267  12.613 -0.0100 -0.1851  0.0317
17197W        W36731   3.909   4.114   3.624  0.1645  0.0452 -0.2166
17198W        W36732  15.720   9.235  13.544  0.0615  0.1699 -0.1607
17199W        W36733   8.532   1.769   4.392  0.3236  0.1411 -0.0282
17200W        W36734   9.760   3.693  14.350  0.1299 -0.1416  0.0465
17201W        W36735  11.040  15.253  12.084  0.0555 -0.0335  0.0488
17202W        W36736   9.487   5.306   2.813 -0.2889  0.1265  0.0194
17203W        W36737   3.149   5.347   9.738 -0.1126 -0.1871 -0.2538
17204W        W36738   9.356  13.634   2.761 -0.0093 -0.1770 -0.0212
17205W        W36739  10.853  14.976   1.978  0.0074 -0.0162  0.3585
17206W        W36740  10.854  17.828  12.045  0.2434  0.0753 -0.1823
17207W        W36741  12.559  15.627   1.336  0.1420 -0.1244 -0.1000
17208W        W36742   5.838   0.368   0.759 -0.0163 -0.0172 -0.0310
17209W        W36743   3.181   2.348   2.110 -0.1506  0.0241 -0.0280
17210W        W36744  11.637  17.441  10.894  0.1775 -0.1158  0.3789
17211W        W36745   0.424  18.095  11.660  0.2893 -0.1972 -0.2206
17212W        W36746   9.059   5.336   5.274 -0.0586  0.1112 -0.5119
17213W        W36747  12.772  15.913  12.085  0.1800 -0.0240  0.1529
17214W        W36748   9.791   9.023   2.108  0.0177 -0.2331 -0.3340
17215W        W36749  17.291   1.685   3.045 -0.1599 -0.0728 -0.1565
17216W        W36750   5.582   3.785  14.109  0.1166  0.1276 -0.1173
17217W        W36751  14.726  11.884   2.625 -0.0531 -0.1775  0.4883
17218W        W36752   7.955   6.450  11.366 -0.0562  0.3331 -0.2829
17219W        W36753  10.007   4.509   1.401  0.2938  0.1921 -0.2230
17220W        W36754   2.172  16.082   0.132 -0.0186 -0.0620 -0.1417
17221W        W36755   4.246   5.067   3.746  0.1017  0.1695 -0.0176
17222W        W36756  13.432   2.895  13.251  0.2907 -0.1644  0.2274
17223W        W36757  11.727   0.073  14.632 -0.0660  0.0284 -0.0063
17224W        W36758   2.431  18.841  11.422 -0.1189 -0.0055  0.0677
17225W        W36759   4.083  13.059   3.100 -0.0065 -0.1032  0.0555
17226W        W36760  11.686  17.587   2.472  0.2338  0.1254 -0.3132
17227W        W36761  10.011   7.424  13.946  0.0979 -0.2561  0.0325
17228W        W36762  12.549  13.868  10.877  0.2692 -0.1561 -0.1331
17229W        W36763  10.522   8.128   0.823  0.0555 -0.2295 -0.2120
17230W        W36764  11.991  12.613  12.776 -0.0954  0.1540  0.0275
17231W        W36765  11.045   9.178  13.258 -0.2894  0.0834 -0.2272
17232W        W36766   4.973  17.145   0.934  0.0396  0.5362  0.0908
17233W        W36767   3.061   5.668  14.668  0.2862  0.0997 -0.1955
17234W        W36768   2.263   9.012   3.294 -0.2808  0.0255 -0.0696
17235W        W36769   5.223   2.977  12.889 -0.2433 -0.0308  0.1738
17236W        W36770  12.939  15.023  14.156  0.1151 -0.0180  0.0271
17237W        W36771  18.347   2.116   0.541 -0.1282 -0.1655 -0.0952
17238W        W36772   8.910  13.901   1.539 -0.3018  0.0064  0.0268
17239W        W36773  14.674   3.233  11.002 -0.1427  0.2167  0.2051
17240W        W36774  12.827   3.138  14.297 -0.4792 -0.1641 -0.3999
17241W        W36775  17.332  14.889   2.849 -0.1493  0.0298 -0.1655
17242W        W36776  14.982   2.840  12.806 -0.2579  0.2187 -0.1219
17243W        W36777  10.327  15.344   2.506  0.1686 -0.0888  0.0793
17244W        W36778  14.579   4.580   2.281 -0.1368 -0.0074 -0.1120
17245W        W36779  15.825  15.414   1.535  0.0389  0.0952 -0.0587
17246W        W36780  18.224  11.561  14.206  0.0374  0.0555 -0.2254
17247W        W36781  12.722  17.909   3.664  0.1269 -0.0449 -0.1118
17248W        W36782   3.801   0.989  12.427  0.1630  0.2079 -0.0676
17249W        W36783  15.544  13.237  14.307  0.1724  0.2167 -0.2647
17250W        W36784   7.182  13.768  12.965 -0.1721  0.1812  0.3789
17251W        W36785   7.976  17.294   1.387 -0.0821 -0.2101 -0.0801
17252W        W36786  12.494   6.959  11.348 -0.2293 -0.1300 -0.1820
17253W        W36787   2.947   3.002   0.544  0.0061 -0.0888 -0.3153
17254W        W36788   4.368   5.545   1.075  0.0658  0.3326 -0.1329
17255W        W36789  14.382   1.860   1.487 -0.0012 -0.0780 -0.3110
17256W        W36790  11.170   7.934   0.313 -0.1928  0.0524  0.0639
17257W        W36791   7.959  12.831   3.886  0.2959  0.1274 -0.1326
17258W        W36792  17.880   3.373  11.189  0.1591 -0.2389 -0.0487
17259W        W36793  16.570  18.110  13.133 -0.1741  0.0244 -0.0115
17260W        W36794  14.137  17.499   2.232  0.2831 -0.0814 -0.0165
17261W        W36795  17.480   0.806   3.347  0.0086  0.0379  0.0885
17262W        W36796   9.103   3.553  11.203  0.1101 -0.0722  0.1294
17263W        W36797   3.389   1.479  12.744  0.0857  0.0690  0.0578
17264W        W36798  13.082   3.473  11.227 -0.1204 -0.1062  0.1908
17265W        W36799   0.784   4.844  14.380 -0.1709  0.0926  0.1620
17266W        W36800  12.704   3.827  11.414  0.2422  0.1963 -0.1397
17267W        W36801  13.594   2.714   0.391 -0.2909  0.0700 -0.0875
17268W        W36802  17.812  16.675   2.785  0.1318  0.2085 -0.0877
17269W        W36803   8.757   5.395   0.501  0.0786 -0.0211 -0.2487
17270W        W36804   6.342   5.720   3.337  0.1684 -0.2092  0.0415
17271W        W36805   0.704  17.918   2.015 -0.0257  0.1880  0.0215
17272W        W36806  12.412   0.074  13.882 -0.5427  0.1685 -0.0370
17273W        W36807  16.912   3.728  10.419 -0.2486  0.3036  0.2542
17274W        W36808   7.090  15.912  11.868  0.1313 -0.2790  0.0286
17275W        W36809   0.671   1.435  12.845  0.0735 -0.3869  0.1223
17276W        W36810  15.992  11.186   0.939  0.1050 -0.1218  0.1269
17277W        W36811   4.307  15.073  14.673  0.1855  0.0720  0.0641
17278W        W36812  16.021   8.034   2.269  0.1410  0.2927 -0.2537
17279W        W36813   0.504  16.525   0.600 -0.2893 -0.2037  0.0805
17280W        W36814   9.006  18.623  13.434  0.2777 -0.1386  0.0515
17281W        W36815  15.558   3.408  12.080 -0.2166 -0.0846 -0.2502
17282W        W36816  16.873   7.963  13.081  0.0864  0.0085 -0.0105
17283W        W36817   6.111   7.297   2.996  0.0617  0.3250  0.0865
17284W        W36818   7.181  18.808   3.929  0.3499  0.0392 -0.0341
17285W        W36819  15.473   7.803   0.039 -0.1893  0.0279  0.0809
17286W        W36820  11.386   2.465   3.118  0.1786 -0.1362 -0.2272
17287W        W36821  12.835  15.934   0.780  0.1909  0.2394 -0.0785
17288W        W36822  18.628   7.676   2.901  0.0058 -0.1729  0.3227
17289W        W36823  14.400   9.152  11.669  0.2179  0.1823  0.1936
17290W        W36824   4.235   3.673   2.611  0.0551  0.1207 -0.1020
17291W        W36825   2.294   8.878  10.528 -0.1993  0.2002  0.0992
17292W        W36826   9.837  16.049   3.113  0.0798  0.1241  0.0818
17293W        W36827   2.381   4.155  13.913  0.3684 -0.0771  0.2117
17294W        W36828   1.915   9.141  11.425 -0.0452 -0.0501 -0.3092
17295W        W36829  14.276  13.358   3.121 -0.1766 -0.1475  0.1683
17296W        W36830  17.553   9.383  12.113 -0.2073 -0.1039 -0.2691
17297W        W36831   1.166   2.682   1.979 -0.1378 -0.3774 -0.1682
17298W        W36832   5.382   3.664  13.661  0.0415 -0.0761  0.0746
17299W        W36833  15.708  13.641  12.857 -0.3137 -0.0110 -0.1283
17300W        W36834   6.888   3.520   3.387  0.0161  0.2214 -0.0246
17301W        W36835  14.680   7.958  12.015 -0.1354 -0.0904  0.0181
17302W        W36836   4.914   5.150  13.583 -0.3586 -0.2189 -0.4960
17303W        W36837  10.179  16.919  11.831  0.0699  0.2683 -0.2008
17304W        W36838   1.675   0.607  10.922  0.2061 -0.1843  0.1187
17305W        W36839  18.552   2.430  14.161  0.4432 -0.0465 -0.0302
17306W        W36840   0.460  13.482  12.062 -0.2918  0.0362  0.0087
17307W        W36841  12.163  18.220  13.828  0.0424  0.0898  0.2914
17308W        W36842   8.492   4.594   9.577 -0.0853  0.1312 -0.1754
17309W        W36843  18.957   3.907  10.851  0.0647 -0.1057  0.2088
17310W        W36844   3.765   8.662   1.919 -0.0800  0.3509  0.0468
17311W        W36845  18.857   0.556   2.929 -0.1438 -0.1852 -0.0240
17312W        W36846  14.675  14.045   1.254 -0.0873  0.2611 -0.0111
17313W        W36847  18.303   6.400   3.084 -0.2665  0.2905 -0.2434
17314W        W36848  18.547   6.181   2.014  0.0741  0.2141  0.0291
17315W        W36849   2.352  17.447   3.019 -0.1120  0.2206  0.1828
17316W        W36850  12.164   8.362   2.245 -0.2940 -0.1707 -0.3116
17317W        W36851   1.594  12.921   2.111  0.0981  0.0465  0.2435
17318W        W36852  12.515   7.650  10.649 -0.1109 -0.2055 -0.0734
17319W        W36853   2.176   0.593  11.684  0.2434  0.1506 -0.0247
17320W        W36854  16.376   9.609  13.913 -0.3837 -0.1346  0.2162
17321W        W36855  10.551   4.227  13.424  0.0275  0.1545  0.3957
17322W        W36856  11.653  13.143   3.183  0.0858 -0.0818  0.4498
17323W        W36857   5.840  14.362   3.773  0.0637  0.1232 -0.1916
17324W        W36858   4.505   9.664   3.102  0.1530  0.0984 -0.2534
17325W        W36859  16.957  11.183   1.226  0.3233 -0.1287 -0.2219
17326W        W36860   3.966   7.476   0.918  0.4489 -0.3259  0.2371
17327W        W36861  16.077  14.184  12.035  0.1011  0.0696  0.0174
17328W        W36862  10.359  11.734  12.526 -0.2747  0.3477 -0.1695
17329W        W36863  17.924  12.873  11.610 -0.1157  0.2416  0.0496
17330W        W36864   3.381   9.014  10.596 -0.2585 -0.1035  0.1095
17331W        W36865   5.575   3.680  14.629 -0.0402 -0.1092 -0.1205
17332W        W36866  11.639   3.213  11.212 -0.1595  0.3128  0.1237
17333W        W36867   0.062   9.178   4.772  0.1532  0.2160 -0.3423
17334W        W36868   8.587   5.917   0.627 -0.1722  0.0332 -0.1608
17335W        W36869   6.251  16.547  12.966 -0.0197  0.1833  0.0194
17336W        W36870  14.777  15.179   2.440 -0.0867  0.3276 -0.0988
17337W        W36871   5.038  15.351   3.446  0.2310 -0.1033  0.0613
17338W        W36872   8.500   4.774  13.727  0.2596 -0.1309  0.2725
17339W        W36873  12.432   2.893  12.080 -0.0326 -0.2261 -0.0739
17340W        W36874  11.773  16.546  11.199 -0.0417  0.0363  0.1058
17341W        W36875  18.770   1.257  10.803 -0.3170 -0.2278 -0.1038
17342W        W36876   7.242   1.020   0.338  0.2586  0.0545 -0.2430
17343W        W36877  12.945   4.258   0.244 -0.0632  0.2190 -0.3172
17344W        W36878  11.143  11.599   0.304  0.0150  0.1491 -0.4181
17345W        W36879  13.795   8.962  12.082 -0.2635  0.0769  0.0980
17346W        W36880  12.124   0.036   1.548  0.0661  0.1148  0.1142
17347W        W36881   4.932  18.028   2.994  0.0434  0.1405  0.3928
17348W        W36882   8.111  12.226   0.122  0.0108  0.1686 -0.2366
17349W        W36883  14.869  12.830   3.228  0.1247 -0.0497  0.0444
17350W        W36884  15.614  17.686  14.321 -0.2132  0.3478  0.0799
17351W        W36885   2.690   3.164  10.433  0.1918 -0.4269  0.1123
17352W        W36886  17.977  11.937   1.079  0.3673  0.0838  0.0013
17353W        W36887   8.816   1.686   3.470 -0.0631  0.2813  0.1174
17354W        W36888   6.638   1.273   0.574  0.0265  0.0101 -0.1167
17355W        W36889   6.874  17.612  10.921 -0.0129 -0.0531  0.1167
17356W        W36890  18.948  13.364   3.079 -0.1214 -0.1309  0.2202
17357W        W36891  14.905  15.748   4.174 -0.1880 -0.1039  0.0418
17358W        W36892   0.422  12.367   1.861 -0.1775  0.3773 -0.2454
17359W        W36893  15.002   0.683  11.025 -0.1599  0.1051  0.0214
17360W        W36894   1.806  13.313  11.726  0.0038  0.0415  0.2517
17361W        W36895   3.799  19.111  11.100 -0.0237  0.3327  0.0805
17362W        W36896   7.206  15.336   0.925 -0.4730 -0.1632 -0.0653
17363W        W36897   6.419  12.822  12.148 -0.1940  0.1146  0.1245
17364W        W36898  16.544   4.427  10.714  0.3371  0.0692 -0.2236
17365W        W36899  17.977  18.365   3.330 -0.0470 -0.2807 -0.1983
17366W        W36900  12.773   9.047  10.767 -0.3250 -0.1878  0.0136
17367W        W36901   4.081   0.684   3.868  0.1988 -0.3975 -0.3095
17368W        W36902  16.285  17.307   0.539 -0.0760  0.0476 -0.0024
17369W        W36903   8.439  10.833  14.004  0.2862 -0.1357  0.2695
17370W        W36904   7.706   2.210  12.307  0.0954 -0.1482 -0.1395
17371W        W36905  15.219   2.803   2.650 -0.2661 -0.2226  0.1605
17372W        W36906   5.873   2.151  10.575  0.1475  0.1465 -0.3012
17373W        W36907   7.192   7.328   4.854 -0.0350 -0.1575  0.3325
17374W        W36908   4.030   7.372  12.379 -0.0739  0.3000  0.3756
17375W        W36909   3.328  18.197   0.683 -0.0014 -0.1641 -0.3273
17376W        W36910   2.886   3.583  12.778  0.3896 -0.4242  0.1461
17377W        W36911  11.242   4.594  13.887 -0.0078  0.0209  0.0926
17378W        W36912   2.315  15.070   2.021  0.2107 -0.2819 -0.1788
17379W        W36913  15.539   9.020  12.382  0.1298 -0.1245 -0.1067
17380W        W36914   7.532  17.928   0.173  0.1222  0.2163 -0.1686
17381W        W36915   2.610   1.257   1.559 -0.4019 -0.1397 -0.0476
17382W        W36916  16.215  10.734   0.895  0.4059  0.1210 -0.1589
17383W        W36917   8.382   1.980  13.747  0.1546 -0.1132 -0.2022
17384W        W36918   7.762   3.594   2.569 -0.2365 -0.0661 -0.0135
17385W        W36919  10.682  12.090  12.565 -0.1369  0.1548 -0.2512
17386W        W36920  18.014   1.812   3.933 -0.1814 -0.2877  0.0695
17387W        W36921   3.736   6.611  13.873 -0.0836 -0.0562  0.2205
17388W        W36922  18.160   0.846  11.673  0.1098 -0.0951 -0.3000
17389W        W36923  11.473  10.911  11.102 -0.0244 -0.1137 -0.1798
17390W        W36924  13.739  16.268   4.822 -0.2887  0.1492 -0.2035
17391W        W36925  16.625  11.351  12.972 -0.2870 -0.3185  0.1125
17392W        W36926   1.223   3.083  14.156 -0.0002  0.0694 -0.2021
17393W        W36927   6.280   4.923  11.793  0.2720  0.0231  0.2865
17394W        W36928  10.082  12.578   4.907  0.1044  0.1334  0.0225
17395W        W36929   8.490   5.093  10.522 -0.4262  0.0455 -0.0743
17396W        W36930   9.234   7.628  12.837 -0.0482  0.0381 -0.0627
17397W        W36931  17.396  14.992  10.586  0.0261  0.3516  0.3528
17398W        W36932   8.432   7.190   3.612  0.1199  0.1128  0.2230
17399W        W36933   1.729   0.409  12.912  0.1073  0.0482  0.0406
17400W        W36934  13.479  13.203   3.187 -0.1983 -0.1628  0.0513
17401W        W36935  17.703  14.176  10.621 -0.2090 -0.1601  0.0668
17402W        W36936   8.422   3.777  11.717 -0.1440  0.2708  0.1068
17403W        W36937   1.701   4.941  11.480  0.0899 -0.1017  0.0686
17404W        W36938  17.949   8.162   3.252  0.1460 -0.0713 -0.0052
17405W        W36939   4.196   5.502  12.294  0.2421  0.0747 -0.1123
17406W        W36940  15.371   7.253   0.793 -0.1157  0.1828  0.1739
17407W        W36941   2.113  14.764   3.240  0.1871  0.0403 -0.0371
17408W        W36942  13.297   1.229   1.366  0.2722  0.1729 -0.0252
17409W        W36943   1.861  11.693  11.451  0.2325  0.2220  0.0265
17410W        W36944   1.544   0.977   2.991  0.0347  0.0301  0.0338
17411W        W36945   8.348  11.331   2.289  0.1192 -0.1785  0.1090
17412W        W36946   5.750   6.235  12.855 -0.3207  0.0493 -0.3599
17413W        W36947   4.540   1.525   2.297  0.1726 -0.2127  0.0256
17414W        W36948   4.648   0.727  10.072  0.0101 -0.2731  0.1808
17415W        W36949   8.478  16.985   4.472  0.0124  0.1562 -0.1676
17416W        W36950   4.759  10.708  14.552  0.1759 -0.1318 -0.0123
17417W        W36951   8.270  13.790  11.209 -0.0811  0.0105 -0.0358
17418W        W36952   1.786  10.604  14.425  0.0108 -0.0857  0.0378
17419W        W36953   6.541   5.701  12.585 -0.1952  0.2940  0.2576
17420W        W36954   7.389   5.537   1.255  0.0987 -0.0999  0.3970
17421W        W36955  13.334  18.443   3.448 -0.0073  0.3778 -0.0021
17422W        W36956  16.232   1.424   1.342  0.0134  0.1445  0.2301
17423W        W36957  11.185  15.241   4.012  0.0848 -0.1032  0.0792
17424W        W36958   2.043   1.349   3.672 -0.0150  0.1317 -0.0466
17425W        W36959   3.493   8.251  11.012 -0.0883  0.2501  0.1105
17426W        W36960  18.718   7.473  11.758  0.1582  0.2910 -0.1835
17427W        W36961  15.842   9.212   3.855 -0.0933 -0.1962 -0.0189
17428W        W36962   4.922  10.551   0.540  0.1323 -0.3107 -0.0969
17429W        W36963   4.914  11.339   2.702  0.0989 -0.0806 -0.0469
17430W        W36964  12.043  11.591   3.699 -0.5362  0.1410 -0.3006
17431W        W36965   6.065  11.376  13.480 -0.3712  0.0638 -0.0654
17432W        W36966   6.301   1.242   1.956  0.0746  0.1975  0.2949
17433W        W36967   6.612  13.155   0.790 -0.0341 -0.2739 -0.3306
17434W        W36968   4.857   7.479  14.607 -0.5354 -0.0095  0.1312
17435W        W36969   9.048   0.029  13.210 -0.2060 -0.1996  0.1457
17436W        W36970  18.574  14.750  13.573  0.3878 -0.2609  0.0665
17437W        W36971  17.366  13.574   1.447 -0.1682  0.0240 -0.4193
17438W        W36972  17.379  12.297   0.494 -0.1092  0.2072  0.2224
17439W        W36973   6.708   7.164  14.737 -0.2467 -0.0447  0.0097
17440W        W36974  16.462   9.445  11.736 -0.0153 -0.0408 -0.1831
17441W        W36975  16.098  13.897   1.947  0.0483 -0.1755  0.0712
17442W        W36976  14.814  11.491   2.356  0.1190 -0.1114 -0.0964
17443W        W36977  18.279  13.716   0.644 -0.4315  0.0141 -0.0961
17444W        W36978  18.389  18.430   4.008 -0.4014  0.1234  0.0555
17445W        W36979  12.507   5.697  13.603 -0.0320 -0.0082  0.0917
17446W        W36980   4.910  18.474   3.306  0.0204  0.1299  0.0812
17447W        W36981   8.544  17.675  13.716 -0.2776 -0.1918  0.0923
17448W        W36982  13.675   0.760  12.148 -0.0163  0.0732 -0.3197
17449W        W36983   4.541   1.969   3.148 -0.0923  0.1697  0.1736
17450W        W36984  16.111  18.151  13.481  0.0685  0.1445 -0.1447
17451W        W36985   4.207   9.509  13.165  0.1794  0.0640  0.0814
17452W        W36986   7.787   0.400  14.673 -0.0516  0.0538 -0.4047
17453W        W36987  17.055   8.969  14.164  0.0864 -0.0596 -0.2734
17454W        W36988  15.051  14.401  11.864  0.1221 -0.2840  0.0572
17455W        W36989   0.901  10.521  10.952 -0.1038  0.2085  0.2360
17456W        W36990  13.320  18.347  12.448  0.0403  0.0054 -0.1212
17457W        W36991  17.779   8.673   0.552  0.0990 -0.4937  0.0938
17458W        W36992   9.624   3.735   2.338  0.2529 -0.0374 -0.2243
17459W        W36993  11.676  13.578   2.849  0.0527 -0.1278 -0.2894
17460W        W36994  11.815   4.319   2.836  0.4877  0.0191 -0.2708
17461W        W36995  14.652  13.541  12.499  0.2129 -0.0997 -0.2488
17462W        W36996  13.082  16.507   2.288 -0.0632 -0.3051  0.1095
17463W        W36997   2.703   0.405  14.788 -0.2652 -0.2412 -0.0837
17464W        W36998   0.444  17.538  11.590 -0.1869  0.0705 -0.1486
17465W        W36999   2.013   0.259   2.044  0.2913  0.0557  0.2697
17466W        W37000  14.573  14.118  13.125  0.0283  0.1269  0.0429
17467W        W37001  16.994   0.591  11.160  0.0810 -0.0595 -0.1891
17468W        W37002  18.515  16.931  13.151 -0.0314  0.0610 -0.0325
17469W        W37003  16.955  12.704  13.377 -0.0864  0.0722 -0.0287
17470W        W37004   9.364   2.844   3.060 -0.3832  0.1310  0.0627
17471W        W37005  16.983  13.115   1.539  0.1434 -0.3578 -0.0108
17472W        W37006  14.591  17.254   2.596  0.0668  0.1137  0.3663
17473W        W37007   4.058   7.735   2.001  0.4712 -0.1269 -0.0947
17474W        W37008  11.147   4.154  13.555 -0.0610  0.0508 -0.1102
17475W        W37009   5.287  18.565  11.986 -0.1875  0.3964 -0.1608
17476W        W37010   1.887   2.014  10.655  0.0122  0.1325 -0.0392
17477W        W37011  13.277  17.268  12.438  0.2828  0.0138  0.3182
17478W        W37012   5.817   0.370  10.890 -0.0438 -0.0211  0.2847
17479W        W37013   6.738  18.557   3.741 -0.2238 -0.1863 -0.1775
17480W        W37014   0.167   3.019   2.382  0.2421 -0.1144  0.1136
17481W        W37015   2.908   1.314  14.331  0.1392 -0.2352 -0.0818
17482W        W37016   4.487  14.633   0.034 -0.1111 -0.0589 -0.1479
17483W        W37017   9.329  14.086   4.066 -0.0887  0.1768  0.1261
17484W        W37018   5.285   6.477   2.584 -0.1509 -0.1737 -0.1315
17485W        W37019  14.472  14.804  11.098 -0.2938 -0.3373  0.0967
17486W        W37020  15.567   9.964   0.818 -0.0234 -0.0726  0.1379
17487W        W37021  13.341  13.122  13.660  0.0037  0.2308 -0.0552
17488W        W37022   8.548   0.503  11.238  0.0224 -0.2321  0.2804
17489W        W37023  18.409   7.801  10.782 -0.2080 -0.2118  0.1306
17490W        W37024  12.772   9.195  12.876  0.0095  0.3871  0.1773
17491W        W37025  14.033  11.365  14.593 -0.2740  0.0566  0.1098
17492W        W37026  13.728   2.230  12.555  0.1987 -0.1567  0.2078
17493W        W37027  12.990   1.628  14.343 -0.2868  0.3174 -0.2028
17494W        W37028   2.078  12.664   2.101 -0.2377 -0.0557 -0.1239
17495W        W37029   8.174  15.083   0.834  0.0963  0.0445  0.3343
17496W        W37030  17.239   5.727   3.393 -0.1393 -0.0439  0.2267
17497W        W37031   2.853  13.624  14.539 -0.0902  0.0376 -0.1432
17498W        W37032  10.136   7.062   0.755  0.0709  0.0498  0.4089
17499W        W37033  16.293   6.112   2.285  0.2095  0.1769  0.2192
17500W        W37034  14.479  12.543  14.493 -0.0245 -0.1875  0.1692
17501W        W37035  13.497  10.272  11.738 -0.1044 -0.3045 -0.1085
17502W        W37036   0.215   4.306  10.627  0.2496  0.0116  0.0702
17503W        W37037   2.579   4.208   3.962  0.0687  0.0297  0.2278
17504W        W37038  19.075  17.003   1.585 -0.1256 -0.2242  0.1934
17505W        W37039  16.990  17.919   9.565 -0.1553 -0.0533 -0.1231
17506W        W37040  16.546  13.361   4.079  0.0940 -0.0621  0.2318
17507W        W37041  15.606  12.517  12.321 -0.0281  0.1143 -0.2638
17508W        W37042  15.885  17.159   1.173  0.0112 -0.0894  0.1271
17509W        W37043  18.607  17.244  11.530  0.0703 -0.1183  0.0155
17510W        W37044   6.119   2.851   0.930  0.0664 -0.1165  0.1451
17511W        W37045   4.459   1.743  14.238 -0.0331  0.2511  0.1326
17512W        W37046   0.622   7.193  11.468  0.1108 -0.0291  0.1845
17513W        W37047  17.587  15.926   4.144  0.1585 -0.0679 -0.1764
17514W        W37048  10.702  17.428  11.644  0.0939 -0.1851 -0.1698
17515W        W37049   4.953   2.289   2.519 -0.1312 -0.1000  0.0622
17516W        W37050  14.317  13.472   3.679 -0.3827  0.2542  0.0794
17517W        W37051   0.765  16.890  10.413  0.0483 -0.0436 -0.0956
17518W        W37052  18.666  15.277   5.251  0.1206 -0.1652  0.0244
17519W        W37053  17.827  16.984  14.744 -0.1624  0.0963 -0.2266
17520W        W37054   8.251  13.505   2.243  0.1394 -0.0186 -0.1386
17521W        W37055  11.696   9.306   2.144  0.0703 -0.0769 -0.0986
17522W        W37056  10.345   4.693  13.984 -0.0117 -0.1091  0.1170
17523W        W37057  18.157  18.083  11.905 -0.0493  0.0911 -0.2068
17524W        W37058  17.544   1.024   0.816  0.0533 -0.3118 -0.2606
17525W        W37059   6.314   9.418   0.009  0.0474 -0.1971 -0.0847
17526W        W37060   2.827   5.004  10.544 -0.0985  0.2021  0.3159
17527W        W37061   6.078   4.069   0.524  0.0962 -0.1481  0.3190
17528W        W37062   5.222   2.771  13.454  0.1129 -0.0758 -0.0029
17529W        W37063   0.113   5.528   2.832  0.1623 -0.4573  0.1688
17530W        W37064   7.932   2.684  12.461  0.0065  0.2256 -0.1441
17531W        W37065   4.101   1.518   1.176  0.1641 -0.2025  0.1917
17532W        W37066   6.332  16.649  12.499 -0.3687 -0.0644  0.1284
17533W        W37067   7.548   3.242   0.860  0.0717  0.0956 -0.1947
17534W        W37068   4.806  15.234   2.991 -0.0288 -0.0052  0.2299
17535W        W37069  10.701   5.802  12.518  0.1419  0.3656  0.0731
17536W        W37070  15.222  11.665  12.985 -0.0458  0.1395 -0.3118
17537W        W37071  13.674  17.387  10.758 -0.0865  0.3808  0.0343
17538W        W37072   9.920   7.395   0.430  0.2084  0.1348  0.1102
17539W        W37073   1.844   9.771  13.556  0.0021  0.1450 -0.2404
17540W        W37074  15.297   8.355  11.258 -0.1833 -0.2500 -0.1630
17541W        W37075   0.886  15.783  12.203 -0.3863  0.0112  0.0614
17542W        W37076  13.315  13.183   4.187 -0.1248  0.1784 -0.1088
17543W        W37077  14.804   2.393   0.746  0.1754 -0.1171 -0.0259
17544W        W37078   5.129   3.288  13.467  0.0144 -0.1669 -0.0621
17545W        W37079   6.595  10.202   0.283  0.3249 -0.0513  0.1845
17546W        W37080  19.111   4.350   0.155  0.1854  0.1406  0.1184
17547W        W37081  13.356  15.154   1.549 -0.0547  0.1524 -0.0075
17548W        W37082   8.346   3.694   3.761 -0.1867 -0.1961 -0.2004
17549W        W37083  11.454  13.959   2.577 -0.4270 -0.0236  0.0152
17550W        W37084  10.183   4.554  13.220 -0.0440 -0.0946  0.1144
17551W        W37085  18.248   2.867   0.513  0.1957 -0.1540  0.2241
17552W        W37086  10.843   6.935  14.132 -0.0576 -0.2492 -0.0676
17553W        W37087   3.938  13.285   1.135  0.2067  0.2389  0.1265
17554W        W37088  18.365  15.410  11.042 -0.2491 -0.1343 -0.0006
17555W        W37089  19.107   7.201   3.723  0.0996  0.1053 -0.4862
17556W        W37090   0.034  14.854   3.128  0.0018  0.2930  0.2254
17557W        W37091  13.635   2.856  13.874 -0.0511 -0.0437  0.0655
17558W        W37092   0.594   6.244  10.873 -0.0255  0.2237  0.2782
17559W        W37093  12.578   3.871   0.408 -0.0545 -0.3649 -0.0838
17560W        W37094   7.432   0.907  14.724 -0.1137 -0.0458  0.3031
17561W        W37095  17.574   3.601   2.921 -0.4884 -0.3058  0.0234
17562W        W37096  11.695   9.354  12.314 -0.1159  0.1535  0.1922
17563W        W37097   8.304   0.845  12.963 -0.0756  0.0446  0.0511
17564W        W37098   5.440   1.380   3.274  0.1556 -0.0069  0.0121
17565W        W37099   1.848   6.801   2.579  0.0483 -0.7606  0.1005
17566W        W37100  11.322   3.485   2.531 -0.2556  0.1366 -0.2172
17567W        W37101   1.142   7.133   2.152 -0.1153 -0.1443 -0.2522
17568W        W37102   0.527  11.591  10.766 -0.2289 -0.2615 -0.4849
17569W        W37103  17.978   5.699   0.048 -0.2728  0.1249  0.3813
17570W        W37104   4.762   7.002  12.960 -0.3382  0.1990 -0.1589
17571W        W37105   1.853  12.047  11.888  0.2300 -0.0938  0.0382
17572W        W37106  16.991   3.407   1.113  0.0652 -0.3106 -0.0411
17573W        W37107   7.773  13.502  14.781 -0.2043  0.0188 -0.2621
17574W        W37108   8.729   8.755   2.091  0.0532 -0.3201 -0.2198
17575W        W37109   9.945   3.926  11.335  0.1092 -0.3842 -0.1698
17576W        W37110   4.696  14.073  12.701 -0.0020  0.3450  0.1360
17577W        W37111   1.538  17.380  12.581 -0.1625 -0.2984  0.2864
17578W        W37112   5.290  14.587  14.251  0.1093  0.2512  0.2205
17579W        W37113   1.441   5.442   1.385 -0.0602 -0.0787 -0.1866
17580W        W37114   8.229  15.564   4.201 -0.0097  0.0429 -0.2830
17581W        W37115  13.470   5.631  13.354 -0.1198 -0.0295 -0.0148
17582W        W37116  18.447   0.500  11.519  0.0590 -0.0020 -0.0594
17583W        W37117   2.898  11.693   1.108 -0.0894 -0.3410 -0.0407
17584W        W37118   9.927   1.719   4.395  0.5555  0.1331 -0.2048
17585W        W37119   7.874   8.505   3.365 -0.0920 -0.0758 -0.3024
17586W        W37120   3.412  18.320  13.718 -0.4133 -0.2440 -0.0745
17587W        W37121   9.477  15.516   1.891  0.0191  0.0200 -0.1621
17588W        W37122  16.836   9.867  14.422 -0.2618 -0.3018 -0.0348
17589W        W37123  17.409   5.169   1.957 -0.3616 -0.1001  0.1359
17590W        W37124  12.962   9.591  11.527 -0.2329  0.1537  0.0409
17591W        W37125   7.417   7.499  14.421  0.2552 -0.0502 -0.0058
17592W        W37126   7.978   3.998  14.456  0.5621  0.1943 -0.2303
17593W        W37127   1.021  18.884  10.119 -0.2869 -0.0488  0.0159
17594W        W37128  12.026  15.192   4.889 -0.1304  0.1563 -0.0724
17595W        W37129  14.508   7.396   2.990 -0.0161  0.2371  0.1870
17596W        W37130  10.593  10.089  13.623  0.4741 -0.3152 -0.1002
17597W        W37131  17.065  18.647   3.397  0.0231 -0.0939 -0.2542
17598W        W37132  19.063   5.139  12.952 -0.3138  0.0071 -0.0838
17599W        W37133   3.746  10.194  14.834 -0.1338 -0.2215  0.0059
17600W        W37134   2.496   0.661  11.267  0.0677 -0.2126  0.0815
17601W        W37135  13.386   7.067   2.300  0.1715  0.0201  0.1629
17602W        W37136  12.065   2.765  12.855  0.0032  0.2057  0.3157
17603W        W37137   4.655   5.080   1.830  0.3600 -0.0575 -0.0772
17604W        W37138   9.947  16.607  13.529  0.0236  0.1323  0.2064
17605W        W37139   9.401   5.938   5.263  0.1259  0.0651 -0.0603
17606W        W37140  18.117   0.983   4.021 -0.1025 -0.0213  0.1231
17607W        W37141   4.573   7.445   3.486  0.2952  0.0812 -0.0593
17608W        W37142  13.587  17.412   2.641 -0.0985  0.1370 -0.0851
17609W        W37143  13.342  14.994   5.055  0.0287  0.1308  0.1322
17610W        W37144   6.724  18.383   1.199 -0.3774 -0.0956  0.1772
17611W        W37145  12.782  17.815   1.804  0.2302  0.0674  0.1369
17612W        W37146  15.325   9.774   1.222 -0.2389  0.0430  0.1099
17613W        W37147  10.992  14.482   1.762 -0.1582 -0.2027  0.2024
17614W        W37148   6.873   7.211  11.972 -0.1669 -0.1356 -0.2488
17615W        W37149  15.085  18.871  11.508 -0.0097  0.0884 -0.1477
17616W        W37150  12.227  17.988  13.223  0.1543  0.0647 -0.0685
17617W        W37151  12.635   3.659   1.409 -0.0572  0.0676 -0.2279
17618W        W37152   7.314   2.308   4.216 -0.0823 -0.1903  0.1541
17619W        W37153  11.282   5.982   1.525  0.1547  0.0558  0.3114
17620W        W37154   1.394  16.656  12.137 -0.2050  0.1144  0.0518
17621W        W37155  17.842  14.431  14.597 -0.0051 -0.2933 -0.1009
17622W        W37156  10.044   6.052   3.085  0.0165 -0.1621  0.0190
17623W        W37157  13.863   5.149  12.410  0.3666  0.0876 -0.3573
17624W        W37158   2.499  12.526  11.552  0.0696 -0.1320  0.0488
17625W        W37159   8.543   3.953  13.482  0.3025  0.2131 -0.1607
17626W        W37160  12.833   8.757  12.489  0.0993  0.1583 -0.4416
17627W        W37161   8.173   1.838  14.777 -0.0827 -0.4484  0.3042
17628W        W37162   3.229  13.737   1.550 -0.4445  0.0710  0.0946
17629W        W37163   6.513   8.772  14.082  0.1947 -0.3554 -0.2458
17630W        W37164  16.942  12.899   0.005  0.0767  0.1188  0.2057
17631W        W37165   3.103   9.756  12.169  0.2158 -0.2708  0.1021
17632W        W37166   4.402  18.241  12.499  0.0101  0.3197 -0.0888
17633W        W37167  13.044   9.282  11.090 -0.1104  0.1453  0.3091
17634W        W37168   1.513   3.853  13.868  0.2633 -0.0841 -0.1585
17635W        W37169   9.583  18.930  10.803 -0.2108 -0.1135  0.0580
17636W        W37170  15.757  11.036   0.152 -0.2006  0.0870  0.0933
17637W        W37171   7.165   2.780   3.719  0.2045  0.0521  0.0914
17638W        W37172  16.878  17.239   4.016  0.0952 -0.2810  0.0838
17639W        W37173   6.908   1.138  14.236  0.0628 -0.1533  0.1869
17640W        W37174   2.371  14.155  12.143  0.0292  0.0544  0.3846
17641W        W37175  10.543   0.625  14.075 -0.2565  0.0955 -0.0198
17642W        W37176  14.115   8.465   4.165 -0.1367 -0.0032 -0.0575
17643W        W37177  11.209   1.396   2.806  0.0541  0.3920 -0.1311
17644W        W37178  12.872   7.504  12.870  0.2738  0.0674 -0.1586
17645W        W37179  11.797   0.717  10.001  0.3480 -0.0166  0.0432
17646W        W37180  16.261  14.735  11.943 -0.0093  0.0301  0.2764
17647W        W37181  17.645  15.045  11.672  0.0177 -0.0081 -0.0723
17648W        W37182  15.734  14.677  10.337 -0.1814 -0.0655 -0.5713
17649W        W37183   5.155  14.468   2.774  0.3769  0.0968 -0.0575
17650W        W37184   2.843   5.459  13.725 -0.1295  0.0467 -0.0985
17651W        W37185  18.540   9.166   1.053 -0.1291 -0.2639 -0.1611
17652W        W37186  17.857  15.220  10.912  0.0565  0.0362 -0.5595
17653W        W37187   4.750   0.248   1.086  0.1968 -0.3550  0.1234
17654W        W37188  18.882   4.528  10.828 -0.0829 -0.0908 -0.1168
17655W        W37189   8.198  18.049  11.593 -0.3182  0.1206 -0.2652
17656W        W37190   2.793   2.927   0.002  0.0805  0.0176  0.0979
17657W        W37191  17.630   6.753  11.082  0.1210 -0.1648 -0.2085
17658W        W37192  18.668  16.192   3.445  0.1579 -0.3190 -0.0867
17659W        W37193   9.403  14.343   1.421  0.0856 -0.0867  0.1055
17660W        W37194   4.780   2.443   3.982  0.1345  0.3298  0.0041
17661W        W37195   6.537  12.394   4.388 -0.0006 -0.0490 -0.3635
17662W        W37196  10.819  12.446  11.825 -0.0127 -0.0477  0.1996
17663W        W37197   5.062   2.223   3.398  0.1687 -0.2372  0.0600
17664W        W37198   3.589  10.584   4.112 -0.0942  0.0384  0.0286
17665W        W37199  10.135   5.908  10.865 -0.0952  0.1216 -0.1231
17666W        W37200   8.067   1.041  13.675 -0.0473  0.0775  0.0445
17667W        W37201  13.541  16.496  11.313 -0.1180  0.0292  0.0425
17668W        W37202   2.330   1.582  14.380 -0.0922  0.1349 -0.3565
17669W        W37203   8.368  12.202   2.297  0.0233 -0.0844  0.1825
17670W        W37204  18.341  12.191   0.786 -0.1186  0.2980 -0.0496
17671W        W37205  16.357  12.548   1.766 -0.1271  0.2465  0.1469
17672W        W37206   9.797   9.785   0.591 -0.0381 -0.2264  0.1637
17673W        W37207  12.566  10.348   1.781 -0.1077  0.3198 -0.0125
17674W        W37208   4.095   8.152  14.541  0.1696 -0.0591 -0.2987
17675W        W37209  18.056  13.326   3.367  0.1351  0.0759  0.0752
17676W        W37210  12.693  10.834   5.197 -0.0938  0.1859 -0.3064
17677W        W37211  15.578  15.760   2.776 -0.0309 -0.1748  0.4568
17678W        W37212   7.351  17.604  10.919  0.2818  0.0610 -0.2388
17679W        W37213  16.656   3.448   2.763 -0.0057  0.2803  0.1687
17680W        W37214   3.295  12.341  13.330 -0.1840  0.0031  0.0798
17681W        W37215  17.881   9.186   2.627 -0.1958  0.1182  0.2160
17682W        W37216  13.720  15.730   2.233  0.0784  0.1745 -0.1204
17683W        W37217   3.916   4.664  12.920 -0.0385  0.1705 -0.0142
17684W        W37218  15.837  14.123  12.565  0.0952 -0.1362  0.0868
17685W        W37219  12.691   2.748   5.307 -0.3173  0.0247  0.1714
17686W        W37220  16.219   7.753  12.168  0.1782  0.2309 -0.3444
17687W        W37221  14.415   8.522   2.015 -0.0079  0.1418 -0.0611
17688W        W37222  16.271   4.877  11.732 -0.4467 -0.2728 -0.1767
17689W        W37223   6.043  12.552   2.670 -0.2814  0.0291  0.4807
17690W        W37224   7.793   3.536  11.070 -0.2907  0.3298  0.0969
17691W        W37225  18.524   5.113   1.129  0.0357  0.1900  0.1471
17692W        W37226   7.025   2.184  13.086  0.0781  0.0349 -0.6307
17693W        W37227  14.851  16.630  13.968  0.2205  0.0129  0.1789
17694W        W37228   5.136  13.709   3.845  0.1010 -0.3721  0.2819
17695W        W37229  17.116   3.916  11.996  0.1382 -0.0894 -0.0931
17696W        W37230  10.107   9.353  13.633 -0.0146  0.0105 -0.0393
17697W        W37231   7.334   8.057  11.574  0.4233  0.1051  0.3517
17698W        W37232  10.630   5.033  11.590 -0.2761  0.2356  0.0935
17699W        W37233   6.888  14.575   5.294 -0.1257  0.0298 -0.2082
17700W        W37234  18.663  12.340  11.673  0.0950 -0.0894 -0.0249
17701W        W37235   0.488  11.441   2.635 -0.1081  0.1761 -0.1736
17702W        W37236   0.923   5.536  10.833 -0.2429  0.0611 -0.0172
17703W        W37237   3.610   1.736   0.078  0.0828 -0.2095  0.0735
17704W        W37238   3.613   3.579   4.339 -0.2562  0.1787 -0.2055
17705W        W37239  12.213   0.665  13.100 -0.3594  0.0331 -0.0704
17706W        W37240   3.571   9.673   4.178  0.0150 -0.0434  0.2079
17707W        W37241   0.014  13.099   3.917  0.1190 -0.1806  0.2381
17708W        W37242   9.946   1.801  12.047  0.1724 -0.0025  0.1397
17709W        W37243   4.745   2.063   0.706 -0.1547 -0.0928 -0.0001
17710W        W37244   8.160   3.439  11.476  0.0589  0.2625 -0.2080
17711W        W37245   1.945  18.659   2.544  0.0979 -0.0199  0.0027
17712W        W37246   4.114  18.144  13.234 -0.0605  0.0780  0.0281
17713W        W37247  13.747  12.791  12.871  0.1218 -0.0282 -0.1371
17714W        W37248  11.272  10.833   0.608 -0.0482 -0.2806  0.1111
17715W        W37249  11.777  18.004  14.621  0.1173 -0.3217  0.1055
17716W        W37250   2.031  16.883   3.329 -0.1930 -0.0728  0.2729
17717W        W37251   5.567   3.007  14.390 -0.0385 -0.2157 -0.0170
17718W        W37252   8.380   8.340  13.610 -0.0864 -0.0062 -0.0044
17719W        W37253  11.925   9.977   1.255  0.4693 -0.1471 -0.0792
17720W        W37254   6.112  14.572   0.859  0.2252 -0.1121 -0.0142
17721W        W37255   3.142   9.143   1.997 -0.1263 -0.0260 -0.4151
17722W        W37256   3.947   7.179  11.417  0.0459 -0.1832 -0.0850
17723W        W37257  16.017   3.718   3.584 -0.2668 -0.0525 -0.0437
17724W        W37258   9.309  15.487   3.670 -0.4773  0.1625  0.1017
17725W        W37259   1.740   7.395  12.825  0.2076 -0.1902 -0.0153
17726W        W37260  18.273   5.833  12.018 -0.1036 -0.2557 -0.1360
17727W        W37261  14.644   1.369   2.230  0.1648  0.1472 -0.4832
17728W        W37262   7.092  16.434   1.092  0.0442  0.1686 -0.1636
17729W        W37263  10.064   5.728  12.315  0.1203 -0.2755  0.1430
17730W        W37264  13.352  14.344  14.177 -0.1687  0.2798  0.0622
17731W        W37265  11.293  18.855   2.550 -0.0909 -0.1564 -0.1122
17732W        W37266  17.782   6.062  11.992  0.1366 -0.0189  0.0109
17733W        W37267  11.410  12.768  12.200 -0.2998  0.2046  0.0135
17734W        W37268  17.088   9.678   0.945  0.0314 -0.0559 -0.0705
17735W        W37269  17.998   9.254   0.089 -0.2735 -0.1021  0.0982
17736W        W37270  15.819   0.304  14.649  0.2238  0.0350 -0.2843
17737W        W37271  12.482  13.344  14.426 -0.0929  0.6733 -0.3473
17738W        W37272  10.933   7.058  14.825 -0.1426 -0.0551  0.1123
17739W        W37273   1.303  16.390   0.143  0.1220  0.0636 -0.2165
17740W        W37274  18.287   3.672   3.094  0.1834  0.3118 -0.0807
17741W        W37275  18.566  14.072   0.846 -0.0681 -0.2437  0.0598
17742W        W37276   9.962  11.315  12.387 -0.2978  0.1146 -0.0379
17743W        W37277   3.299  15.651   3.952  0.1187 -0.1378  0.3058
17744W        W37278   5.279   1.480  13.234  0.3434 -0.1914  0.1962
17745W        W37279   5.426   5.583   2.535  0.0017 -0.2117  0.1314
17746W        W37280  14.849  12.583  10.247  0.0064 -0.0314 -0.0347
17747W        W37281  18.581   8.221  13.282  0.3278  0.0726 -0.1591
17748W        W37282   2.607   1.381  14.797  0.0485 -0.1952 -0.1670
17749W        W37283  15.484   4.925  13.794 -0.0977  0.2064 -0.2048
17750W        W37284   5.704  12.577  12.023  0.0014  0.1888 -0.1958
17751W        W37285   8.177   0.634  12.231  0.3725  0.2764 -0.4722
17752W        W37286   7.891  12.739   1.679  0.0170  0.0099 -0.2261
17753W        W37287   0.976  16.527  10.694  0.0018  0.4145  0.0297
17754W        W37288  16.084   8.974  12.617  0.2683 -0.1204  0.0635
17755W        W37289   3.754   0.094   3.369  0.3803  0.1535 -0.0405
17756W        W37290   5.528   4.667  14.529  0.2111  0.2370  0.0127
17757W        W37291  18.044  17.571  11.751  0.0163  0.1169 -0.4000
17758W        W37292  15.858  16.272  13.883 -0.1347 -0.1996  0.1441
17759W        W37293  15.059   2.949   3.207  0.0665 -0.1437 -0.0206
17760W        W37294  16.474  10.280   2.422 -0.0367 -0.2091 -0.0571
17761W        W37295  17.839   6.558  14.583  0.2301  0.1931  0.0419
17762W        W37296   4.886  18.314   2.495 -0.1850 -0.1397 -0.3006
17763W        W37297   0.655   8.386   4.172  0.1405  0.3435  0.0933
17764W        W37298  17.813   7.132   1.923 -0.0458 -0.1014 -0.2739
17765W        W37299  16.485   9.781   0.418  0.0939  0.1081  0.0852
17766W        W37300  14.779   8.275  10.552 -0.0261  0.3559  0.3137
17767W        W37301   3.533   1.012  13.777 -0.4018 -0.1099 -0.4443
17768W        W37302   0.715   1.498  14.341 -0.3143 -0.1170  0.0291
17769W        W37303  18.164  16.988  10.797 -0.2868  0.0708 -0.0132
17770W        W37304  17.146   5.553  10.614  0.0614  0.0753 -0.2398
17771W        W37305  14.432  10.616   9.480 -0.2250 -0.0062 -0.0698
17772W        W37306  16.452  14.722   2.238  0.1465 -0.0580 -0.3464
17773W        W37307  11.446  12.965   2.196 -0.1148  0.1178  0.0802
17774W        W37308  11.217   3.171  14.491 -0.0200  0.2074  0.1264
17775W        W37309   9.182   5.995  10.929 -0.1975 -0.3166  0.0509
17776W        W37310   2.663   1.035  12.188  0.1274  0.0040  0.1912
17777W        W37311   0.551  12.961  11.188 -0.1563 -0.1002  0.3477
17778W        W37312  17.820  13.621   0.509  0.3439 -0.1529  0.0824
17779W        W37313   1.721   6.165   0.704  0.1486 -0.1187 -0.1571
17780W        W37314  15.164  12.220  12.148 -0.2577 -0.4719  0.1119
17781W        W37315   2.239  10.383   3.862 -0.2621 -0.1615 -0.2895
17782W        W37316  10.097  13.966   0.013 -0.1298 -0.0301 -0.1142
17783W        W37317   8.349  17.757   0.708 -0.1719 -0.1066  0.1462
17784W        W37318  17.776   1.043   3.088  0.2892  0.1190 -0.3856
17785W        W37319  11.569   4.904  11.251  0.2341  0.2203  0.2126
17786W        W37320   1.008   5.580  13.825 -0.0360 -0.2344 -0.0272
17787W        W37321  14.309  13.183   0.966  0.1078  0.1192 -0.2632
17788W        W37322  16.516   2.910   3.034  0.3716  0.0274  0.0400
17789W        W37323   2.609  10.166   4.153 -0.0390  0.2107  0.4405
17790W        W37324  16.165  15.471   1.180 -0.3124  0.0924 -0.1105
17791W        W37325   1.902  17.886  13.323 -0.1559  0.2155 -0.2935
17792W        W37326  13.763  10.599   2.510 -0.1125  0.1256  0.0591
17793W        W37327   6.477  11.449   1.828 -0.2428 -0.1036 -0.1473
17794W        W37328   8.525   5.906   2.902 -0.0008 -0.1510  0.0138
17795W        W37329  15.418  14.315  10.239 -0.0286  0.3071 -0.2100
17796W        W37330   7.975   2.679   3.286  0.0374 -0.1888  0.0913
17797W        W37331   0.393   0.586   2.861  0.2697  0.0760 -0.1778
17798W        W37332   1.562  18.047  11.365 -0.1633 -0.0609  0.0694
17799W        W37333  14.085  11.242   0.746  0.1903 -0.3016 -0.0413
17800W        W37334   9.468   5.499  11.402  0.2499 -0.1256 -0.0309
17801W        W37335  16.693  16.841   0.867  0.0656 -0.1099  0.0398
17802W        W37336  15.022  15.525  13.582  0.0242 -0.2349 -0.1689
17803W        W37337   1.399   2.122  12.469  0.0856  0.2682  0.3221
17804W        W37338  13.868   9.103   1.862  0.0799 -0.0819 -0.0220
17805W        W37339   7.297   3.923  13.127 -0.1347  0.0616 -0.0196
17806W        W37340  13.042  18.757   3.039 -0.3152 -0.2009 -0.1283
17807W        W37341  12.089  15.857  13.092 -0.0743 -0.3091 -0.2015
17808W        W37342   9.359  17.647   0.556 -0.0327 -0.0797 -0.1125
17809W        W37343  12.562   2.594   2.740 -0.1298 -0.3668  0.1479
17810W        W37344  12.734   8.399  10.245 -0.2537 -0.1930 -0.0450
17811W        W37345   2.710   4.448  11.728 -0.1838 -0.1882 -0.1834
17812W        W37346  11.322  10.635   1.515 -0.0041 -0.1110 -0.0822
17813W        W37347  18.185  12.484  12.003 -0.0341 -0.2938  0.2385
17814W        W37348   6.030   5.838   1.937 -0.1852  0.1187  0.3533
17815W        W37349  10.706   5.333   0.763 -0.0951  0.1655 -0.3266
17816W        W37350  17.365  19.107   1.551  0.0112 -0.0507 -0.0960
17817W        W37351   3.763  10.523  13.887 -0.3609  0.1094  0.1403
17818W        W37352   4.021   9.363   0.410 -0.2109  0.2955 -0.0903
17819W        W37353   3.722  12.029   0.644  0.3348 -0.0325  0.1701
17820W        W37354   1.168  13.963   4.945  0.2482  0.0147 -0.0762
17821W        W37355  17.178   5.503  14.601  0.0583  0.0205 -0.0823
17822W        W37356   9.620   3.209   2.228 -0.0385  0.0600 -0.1670
17823W        W37357   9.210  12.094  11.134  0.3760 -0.1168 -0.1747
17824W        W37358   8.087  14.585  14.598 -0.0359  0.1169  0.0216
17825W        W37359   5.310   1.377  11.003  0.0690 -0.0650  0.3112
17826W        W37360  15.542   2.458   2.710  0.1789 -0.2827  0.0212
17827W        W37361   8.075  18.717  14.074 -0.1816  0.0211 -0.0019
17828W        W37362  16.319  17.536  12.223  0.0546  0.2135  0.0186
17829W        W37363  14.248   0.398   1.634 -0.0132  0.0155  0.3487
17830W        W37364  19.013   1.603  13.224  0.1019 -0.0271  0.1466
17831W        W37365   1.228  10.946  12.742  0.1275 -0.3768 -0.1944
17832W        W37366  15.769   1.080  12.990  0.5269  0.2312 -0.0230
17833W        W37367   4.959  14.179  11.461 -0.2720  0.2929  0.2406
17834W        W37368  16.312   6.903  11.064 -0.3002  0.0070  0.0414
17835W        W37369  14.637   6.771   0.961  0.0102 -0.1924 -0.1675
17836W        W37370  10.052   2.666   1.621 -0.0717 -0.0701 -0.2517
17837W        W37371  11.816  12.914  13.658  0.2563  0.0987 -0.1474
17838W        W37372   6.231   4.341   2.615  0.0848 -0.1005 -0.0272
17839W        W37373  12.535  15.012   1.255 -0.0768 -0.0318 -0.3035
17840W        W37374  15.310   4.536   4.402  0.2563 -0.1635  0.0942
17841W        W37375  15.436   1.095  14.559 -0.0748 -0.0315 -0.2354
17842W        W37376   2.973   9.556  14.515 -0.0792 -0.2924  0.5035
17843W        W37377  17.645  14.946  14.521  0.0524  0.2860  0.2729
17844W        W37378   8.798   7.435   2.576  0.0916  0.1817 -0.1483
17845W        W37379  10.735   7.895  14.378 -0.3598 -0.0705 -0.1651
17846W        W37380  17.684  15.614  11.306 -0.0142 -0.1473 -0.1081
17847W        W37381   4.547  12.862   2.836  0.1628 -0.1635  0.1630
17848W        W37382   6.866   9.281   1.707 -0.2166  0.2857  0.1323
17849W        W37383  12.972   2.313   3.694  0.0341  0.0060  0.1053
17850W        W37384   1.025  16.230   3.444  0.3069 -0.1695 -0.2160
17851W        W37385   2.653  13.103  13.284 -0.2510 -0.0382  0.0859
17852W        W37386  11.687   2.454  13.016 -0.0189 -0.0618  0.1120
17853W        W37387   8.944  11.686  10.941  0.0139 -0.2091  0.1042
17854W        W37388  13.407   7.486  14.249 -0.1122  0.2139  0.2120
17855W        W37389  18.266  10.258  11.472  0.2807  0.4462 -0.4924
17856W        W37390  11.170  11.097   0.171 -0.0289 -0.2997  0.0166
17857W        W37391  17.106  11.233   2.612 -0.0624 -0.2963 -0.0487
17858W        W37392  18.865   3.468  11.576  0.1419  0.0898  0.1308
17859W        W37393  18.673   0.413   0.861  0.1172  0.1791 -0.1763
17860W        W37394   0.396   9.527   0.193 -0.0318  0.0549  0.1329
17861W        W37395   9.036  12.307   3.502 -0.2608 -0.1013 -0.1453
17862W        W37396   1.309  17.063  12.879 -0.1161  0.0556 -0.1018
17863W        W37397  13.180  12.743   3.359 -0.1491 -0.3841  0.3159
17864W        W37398   8.172   2.174  11.027 -0.0911 -0.1764 -0.1357
17865W        W37399   7.676   8.603   9.597 -0.2531 -0.1879 -0.2715
17866W        W37400   8.974  15.512  12.807  0.0148 -0.1329 -0.0234
17867W        W37401   1.782   8.001  10.618  0.1665  0.0403 -0.0428
17868W        W37402  18.932  12.040   2.348 -0.1170  0.4400  0.0315
17869W        W37403  17.371  18.097   4.099  0.0772 -0.0043  0.1123
17870W        W37404   2.199   9.410   0.154  0.0031 -0.0831  0.0189
17871W        W37405   5.584   5.530   0.719 -0.0104 -0.3093  0.1750
17872W        W37406  16.430  10.169  12.355  0.1665 -0.1791 -0.0038
17873W        W37407   9.820  13.590   2.350 -0.0005 -0.1803  0.3180
17874W        W37408   8.666  16.377   3.337 -0.3530 -0.4240 -0.1142
17875W        W37409   4.168  12.848   0.762  0.0251 -0.3167 -0.1549
17876W        W37410  11.473   6.466   3.241 -0.0652  0.0175 -0.1034
17877W        W37411   9.172  13.494  14.554 -0.1353  0.1713 -0.1018
17878W        W37412  16.789   9.685   0.029  0.0112  0.0352  0.4297
17879W        W37413   7.764   0.891  10.621 -0.1388  0.0327 -0.0332
17880W        W37414  16.474  15.529  10.882 -0.2475 -0.3799 -0.1080
17881W        W37415   1.326   8.842  10.603  0.2759  0.0244 -0.2265
17882W        W37416  14.027  12.888   1.526  0.0283  0.2504 -0.1708
17883W        W37417   9.549  18.541  14.693  0.2272 -0.0314  0.0924
17884W        W37418   5.901   1.038   4.027 -0.2429  0.1252  0.0994
17885W        W37419   0.504   3.527   3.666 -0.1016  0.2875 -0.1744
17886W        W37420  15.928   6.442   2.248  0.0627  0.0365  0.0759
17887W        W37421   8.088  15.421   1.276 -0.0752  0.1000 -0.1178
17888W        W37422   8.360   6.936   1.714  0.0692  0.1187  0.0890
17889W        W37423  14.089  12.057   1.890  0.3086  0.3019  0.1766
17890W        W37424   5.558   3.899  13.255 -0.1984  0.0000 -0.2629
17891W        W37425   4.000  18.106   1.970  0.2814  0.0025  0.0855
17892W        W37426  13.492  10.091   4.418  0.0259  0.0975 -0.0193
17893W        W37427  14.336   6.591   2.437  0.2935  0.5432  0.0551
17894W        W37428  15.043   6.831  12.205 -0.0882 -0.3168  0.1385
17895W        W37429   4.106   3.325  11.126 -0.1390  0.1282  0.1925
17896W        W37430   9.614   9.541   3.142  0.0787 -0.4237 -0.2130
17897W        W37431  12.955   7.072  11.475  0.0461  0.0902  0.0845
17898W        W37432   2.844   4.569  12.209 -0.2522  0.2518 -0.2196
17899W        W37433  17.328   9.036   3.404  0.0558  0.0794  0.0984
17900W        W37434  13.150  18.784  13.238 -0.0334 -0.3043 -0.0134
17901W        W37435  12.168  15.238   0.252  0.2002 -0.1705  0.2097
17902W        W37436  17.375   5.671   0.568  0.1427 -0.0874 -0.1537
17903W        W37437  12.883  10.488   3.257 -0.0781 -0.1943 -0.0983
17904W        W37438   6.278  12.254  14.169  0.1450 -0.1597 -0.2828
17905W        W37439   8.206  15.233  14.143 -0.1593 -0.1444  0.1576
17906W        W37440  18.582  11.808  13.942  0.1644 -0.2574  0.3287
17907W        W37441  16.506   0.812  11.735  0.1773 -0.2245 -0.0954
17908W        W37442   6.179  10.805   4.091  0.3134 -0.0749 -0.0639
17909W        W37443   3.459   6.727   3.195  0.0849 -0.3029  0.1782
17910W        W37444  13.775   7.011  11.150  0.3961 -0.0999 -0.1762
17911W        W37445   1.718  10.752  12.422  0.2048 -0.1837  0.2894
17912W        W37446   6.428   0.139   2.631 -0.0470 -0.3994 -0.0764
17913W        W37447  15.079   6.614   3.947  0.5305 -0.3368 -0.0355
17914W        W37448  12.378   0.299  12.074  0.0800 -0.0990 -0.1151
17915W        W37449  16.943   6.598  10.507  0.0274 -0.2364  0.1319
17916W        W37450  13.186  11.324  11.985 -0.0355 -0.1709 -0.2287
17917W        W37451   0.151   2.036  12.433  0.1071 -0.5143 -0.0285
17918W        W37452  16.806   1.350   1.328  0.0149 -0.0542  0.0625
17919W        W37453   4.536   1.046  13.069  0.3938 -0.2105  0.0488
17920W        W37454   3.440  10.331  12.803 -0.2709  0.0134  0.0375
17921W        W37455  18.760  14.907   2.727  0.4110 -0.0600  0.1778
17922W        W37456   0.809  13.659  13.303 -0.2814 -0.1327  0.1849
17923W        W37457   4.235   4.840  11.109  0.5346 -0.0301 -0.0394
17924W        W37458  11.541   9.085   1.086  0.1488  0.0765  0.0012
17925W        W37459  16.603  15.239   9.420 -0.0444  0.0729 -0.2250
17926W        W37460   1.555  18.270  14.174 -0.0290  0.1266  0.2602
17927W        W37461  14.402   7.447  12.978  0.1352  0.0080 -0.1942
17928W        W37462   5.364   0.861   3.104  0.0651  0.2503  0.0337
17929W        W37463   1.020   3.132  13.469 -0.0906  0.2627  0.1336
17930W        W37464   2.907  11.209  14.375  0.0293 -0.1658 -0.0257
17931W        W37465  14.529  14.305  12.020  0.1754  0.2469  0.1360
17932W        W37466  15.531  18.947   2.794 -0.0992  0.4760 -0.2578
17933W        W37467   3.238  17.565   3.037  0.1495 -0.1855 -0.0157
17934W        W37468   9.638   5.802  11.041  0.3016  0.1202  0.0891
17935W        W37469   5.100  10.793   3.686  0.0432  0.1280 -0.0419
17936W        W37470   5.830  16.127   2.494  0.2160 -0.1630 -0.0649
17937W        W37471   2.573   5.521  14.509  0.0628  0.2956  0.0293
17938W        W37472  18.664   3.420  14.625 -0.4153 -0.0370 -0.3062
17939W        W37473   5.369  17.149   2.402 -0.0756  0.0274  0.2590
17940W        W37474   1.164   9.814   4.046 -0.1860  0.1327  0.2604
17941W        W37475   6.868   6.094  12.461 -0.1957  0.0954 -0.2872
17942W        W37476  15.990   1.697  10.189 -0.0564 -0.2611 -0.3043
17943W        W37477  17.446  18.471  12.002  0.1441  0.0509  0.0265
17944W        W37478  14.751  14.511   0.506  0.1256  0.1425  0.1767
17945W        W37479   8.440   7.136  11.617 -0.2479  0.0219 -0.1015
17946W        W37480  13.766  15.181  11.224 -0.1733  0.1792 -0.0452
17947W        W37481   5.623  14.409   2.992 -0.0005 -0.5088  0.0204
17948W        W37482   2.601   8.086   0.806 -0.0966 -0.2348 -0.0325
17949W        W37483   7.929   2.148   3.391  0.3130  0.0455 -0.1107
17950W        W37484   5.896  15.844   2.039  0.0012  0.0553 -0.3148
17951W        W37485   4.480   9.372   0.651 -0.1800 -0.2476  0.0283
17952W        W37486   6.753   9.818  14.740 -0.0759 -0.0625  0.1989
17953W        W37487  16.900   7.446  13.928 -0.1435  0.0961  0.1105
17954W        W37488  11.112   0.601   3.660 -0.0169 -0.0554  0.0081
17955W        W37489   3.631  16.771  14.136  0.1163  0.1781 -0.1644
17956W        W37490   4.160   1.916   2.216 -0.0514  0.3365 -0.1769
17957W        W37491   3.167  18.758   0.025 -0.1227  0.1365  0.2266
17958W        W37492  13.215   2.234  13.420  0.1516  0.0836  0.2614
17959W        W37493   7.035  18.311   1.581  0.1039 -0.3794  0.0302
17960W        W37494  14.985   3.406   4.528  0.2235 -0.0877 -0.1014
17961W        W37495   5.238   7.214  12.033  0.1270  0.0060 -0.3861
17962W        W37496   4.064   4.001   1.189 -0.0861  0.1481  0.0761
17963W        W37497  15.487  11.060   0.918  0.0843  0.0492 -0.1832
17964W        W37498  18.061   2.382  11.801 -0.1536 -0.1586  0.6198
17965W        W37499  12.134  17.815  11.575 -0.1541 -0.0200  0.2597
17966W        W37500   0.384   8.782   2.162 -0.1384 -0.0978 -0.1518
17967W        W37501   1.604   4.764  13.733 -0.1857  0.0039  0.1435
17968W        W37502   1.592   1.546   3.728  0.1995 -0.1901 -0.2593
17969W        W37503   3.464   6.137   3.468 -0.1625  0.0505 -0.1694
17970W        W37504   1.309   4.152  14.563 -0.2190 -0.0846  0.2793
17971W        W37505  13.330  10.426   3.463  0.0403 -0.1405  0.1516
17972W        W37506   9.834   9.127   2.559  0.0057  0.1607  0.0493
17973W        W37507   3.928   5.896  10.223  0.0566  0.0070  0.3383
17974W        W37508   3.799   1.165  11.985  0.0545  0.0518  0.3141
17975W        W37509  13.674  11.051   1.039  0.0199  0.3494  0.2911
17976W        W37510   7.086  15.763   1.095  0.0809 -0.3814 -0.1600
17977W        W37511   3.061   0.887   4.374 -0.2855 -0.1829 -0.3784
17978W        W37512   5.582   6.034  14.267 -0.0284 -0.0745 -0.0363
17979W        W37513   2.899   3.391  14.541  0.2887  0.2964  0.2628
17980W        W37514  11.224   2.810  13.400  0.1767  0.1125 -0.1286
17981W        W37515  18.721   5.068  10.677  0.0332  0.1369 -0.1558
17982W        W37516  11.345   4.138   1.715  0.0954  0.1906 -0.0864
17983W        W37517  13.187   5.831   2.100 -0.1001 -0.2256  0.2609
17984W        W37518   9.928  14.565  11.215 -0.0432 -0.2763 -0.0400
17985W        W37519  14.228  15.843   2.413  0.0604 -0.0000  0.0495
17986W        W37520   7.178   0.121   1.275 -0.0753 -0.0318 -0.1321
17987W        W37521   1.682   6.013   9.440  0.0266 -0.0919  0.0604
17988W        W37522  17.658  18.907  12.152  0.0552 -0.0121  0.0193
17989W        W37523   3.342   6.958   3.751 -0.0086  0.1089  0.2206
17990W        W37524  11.653   5.176  12.909  0.0451  0.2172 -0.0439
17991W        W37525   0.914   9.361   1.000 -0.5391  0.0659  0.2066
17992W        W37526   4.484   4.131  11.302  0.3035 -0.3833  0.1397
17993W        W37527  14.432  13.029   3.489  0.0891 -0.2818 -0.2656
17994W        W37528  12.362   9.221  13.805 -0.0426 -0.3568 -0.2317
17995W        W37529   7.848   8.281   1.496  0.1380 -0.0092 -0.4563
17996W        W37530  18.276  12.756   4.192 -0.0539  0.0926 -0.3688
17997W        W37531  12.923   4.787  12.488 -0.1226  0.0520  0.2201
17998W        W37532  18.617   5.115   2.220 -0.4478 -0.0732 -0.1306
17999W        W37533  15.703   9.674  11.617  0.1322 -0.0933 -0.0086
18000W        W37534   8.463   7.853  13.750 -0.0851  0.1518  0.0693
18001W        W37535   7.364   8.974  12.468  0.2299 -0.1812  0.2031
18002W        W37536  14.270   0.730   3.539 -0.0279 -0.0557 -0.1657
18003W        W37537  18.449   8.309  10.674 -0.1368 -0.1112  0.0541
18004W        W37538  16.320  12.360   2.652 -0.0377  0.2424  0.0128
18005W        W37539  12.858   2.766  12.459 -0.0963 -0.0780  0.1082
18006W        W37540   5.951  17.051   1.098 -0.0350 -0.1823  0.1101
18007W        W37541  17.787   9.759  13.855  0.0387 -0.2245  0.2117
18008W        W37542  14.220  15.210  13.474  0.2138 -0.0498 -0.2336
18009W        W37543   3.851   9.740   0.099 -0.0758  0.1876 -0.2633
18010W        W37544   9.278   6.779  12.590  0.4484 -0.0035  0.1549
18011W        W37545   3.727  11.152   1.438  0.0038 -0.1588 -0.2415
18012W        W37546  12.084   5.721   9.958  0.1260  0.3152  0.2165
18013W        W37547   7.698   3.000   3.586  0.1516  0.2720 -0.2429
18014W        W37548   9.985  10.749  13.799 -0.0733  0.2254  0.1078
18015W        W37549  14.629  15.074   2.939 -0.2360 -0.0914  0.1078
18016W        W37550  18.064   2.997  12.350 -0.0786 -0.2923  0.0634
18017W        W37551   1.779  17.416   0.541 -0.1189 -0.0104 -0.0111
18018W        W37552  15.451   6.393   3.655  0.1200 -0.0018  0.2351
18019W        W37553   7.599   9.303   3.009  0.2244  0.0191 -0.0801
18020W        W37554   8.474  13.056  11.603 -0.0432 -0.1712 -0.1077
18021W        W37555   5.763   9.489   0.558  0.1822  0.0169 -0.2177
18022W        W37556  12.833   8.089  13.716  0.4462  0.3323  0.2114
18023W        W37557  16.670   2.815  11.097  0.0049 -0.1627  0.0261
18024W        W37558   8.578  10.945   2.372 -0.1416 -0.3097 -0.2312
18025W        W37559   5.364   6.459  14.460  0.0097  0.0480  0.1821
18026W        W37560  10.123   1.457   2.382 -0.2074 -0.1057 -0.2948
18027W        W37561   3.315   4.275  12.469  0.1004  0.0038 -0.3972
18028W        W37562   7.344   3.492   0.493  0.0609 -0.2418 -0.1886
18029W        W37563  13.611  16.756   1.615  0.0162  0.0725 -0.1537
18030W        W37564   5.524  17.653   2.519  0.2400  0.0065  0.0797
18031W        W37565   8.117  13.787  12.127  0.2144  0.2603  0.4153
18032W        W37566  16.530  10.973   3.338 -0.0138  0.5170  0.1320
18033W        W37567  12.502  10.607   0.975  0.1262 -0.2821 -0.1348
18034W        W37568  13.164   5.939   1.209 -0.5639  0.3176 -0.0030
18035W        W37569  17.142   5.995  14.426  0.0924 -0.2632 -0.2260
18036W        W37570   5.363  15.837   1.728  0.0332  0.1511 -0.0914
18037W        W37571  18.750   4.318  12.661  0.0429 -0.1178 -0.2034
18038W        W37572  13.653  12.543   1.288 -0.0679 -0.0011 -0.3931
18039W        W37573  14.290   2.171   3.071 -0.0078 -0.1214  0.1126
18040W        W37574  17.491   8.549   3.120  0.1360 -0.2329 -0.0260
18041W        W37575  13.006   9.629   0.209 -0.3505  0.0725 -0.0513
18042W        W37576   7.090   7.507   9.416 -0.0081  0.2297 -0.3474
18043W        W37577   4.870  14.764  14.558 -0.3001 -0.0527 -0.0586
18044W        W37578  12.937   2.549  14.434 -0.4785  0.2618  0.1078
18045W        W37579  17.664   2.112  11.774  0.0038  0.0228  0.0313
18046W        W37580  15.066  13.488   1.151  0.0612 -0.0361  0.0656
18047W        W37581   4.626   5.612   2.179 -0.2848 -0.0611  0.0948
18048W        W37582   9.042  15.680   2.147  0.0716  0.2599 -0.1736
18049W        W37583   1.135   4.212   0.609 -0.0002  0.1773  0.0121
18050W        W37584  17.347   7.889  12.922 -0.1137  0.2904  0.0686
18051W        W37585   9.557   3.727  12.434  0.1706  0.2674 -0.3234
18052W        W37586  17.030  11.839  13.673  0.0258  0.0446 -0.0662
18053W        W37587  15.263   5.517  13.015  0.2164  0.1322  0.0418
18054W        W37588  17.885   5.903   2.773  0.2709 -0.2771  0.2944
18055W        W37589   8.594  12.559   3.142  0.1437 -0.1419 -0.0323
18056W        W37590   7.997  17.602   3.731 -0.2093  0.1908 -0.2658
18057W        W37591  17.824   7.399   0.726 -0.1527  0.0803 -0.1860
18058W        W37592  10.093  10.894   0.105  0.4209 -0.2140  0.0802
18059W        W37593  12.374  11.605   4.077 -0.0565 -0.2483 -0.2313
18060W        W37594   0.721   7.104   0.760  0.1738 -0.2161 -0.1405
18061W        W37595  15.391   4.314  13.932 -0.0962 -0.2725  0.1052
18062W        W37596  14.898   9.063   0.770  0.2512  0.1267  0.0633
18063W        W37597   4.237  12.476  12.094  0.0541  0.1799 -0.2386
18064W        W37598   2.992   1.167  11.736 -0.2512 -0.2644  0.0348
18065W        W37599  16.814  14.766   3.138  0.0967  0.0089  0.0899
18066W        W37600   6.695  16.029   1.368 -0.0657  0.3092  0.1658
18067W        W37601  10.895  11.860   1.780 -0.2945  0.2633 -0.0270
18068W        W37602  12.478  17.444   1.602  0.1892  0.0293  0.0202
18069W        W37603  18.611   5.225  12.810  0.0990  0.0566  0.1927
18070W        W37604  17.252  12.721   1.205 -0.0432  0.0056 -0.0854
18071W        W37605   9.259   4.415  14.753 -0.0146  0.2172  0.0035
18072W        W37606   0.522   8.051  14.365  0.2374  0.1730  0.1126
18073W        W37607  12.935  15.499   0.382  0.3941 -0.2202 -0.3346
18074W        W37608  18.369  10.653  12.642 -0.0486 -0.2681  0.0322
18075W        W37609  15.590  17.493   3.254  0.2394  0.0261  0.1902
18076W        W37610   1.789   7.649  12.364  0.1971 -0.0170  0.2547
18077W        W37611   4.091  15.840   0.561 -0.0064 -0.0931 -0.2149
18078W        W37612  11.267   2.024  13.900  0.0988 -0.3785 -0.0182
18079W        W37613  13.135   0.250  12.565 -0.0039  0.0272 -0.3646
18080W        W37614  18.593   6.410   0.859 -0.1001 -0.0633 -0.1426
18081W        W37615  16.784  17.355  11.288  0.1042 -0.0556 -0.1612
18082W        W37616  16.659   4.938  13.977 -0.2618 -0.3958  0.2319
18083W        W37617   3.057   7.537   4.014  0.0085  0.1896 -0.0395
18084W        W37618   6.805  18.345  11.193  0.0605  0.2751 -0.1116
18085W        W37619  12.596   0.813  10.062  0.0974 -0.0536  0.0357
18086W        W37620   1.726  16.046  13.471  0.0339 -0.2110  0.1121
18087W        W37621  14.652   9.442   2.408  0.0950  0.0016 -0.1048
18088W        W37622   0.760   5.060  10.852 -0.0759  0.0444  0.0246
18089W        W37623   8.660   7.908   1.696  0.0991  0.1712  0.1983
18090W        W37624   8.185  10.805   2.123  0.1980 -0.1047  0.2254
18091W        W37625   8.578  18.992  13.280 -0.0255  0.1234  0.0561
18092W        W37626   2.156   1.487  11.855 -0.1860 -0.2855 -0.1366
18093W        W37627   8.444   8.774   3.154  0.1699 -0.0158  0.3043
18094W        W37628   3.846  13.220  14.563  0.0465 -0.0888  0.0008
18095W        W37629   2.251   1.901   2.791 -0.0646  0.0097 -0.0220
18096W        W37630  15.428   0.308   1.106 -0.1293  0.0488  0.5333
18097W        W37631   8.560   5.621  13.121  0.0996 -0.0626  0.1491
18098W        W37632   3.536   3.808  11.841  0.0573 -0.2780 -0.2998
18099W        W37633   0.486  16.440  11.221  0.2301 -0.0295  0.2363
18100W        W37634  11.949   5.539  10.983  0.0526 -0.1550 -0.1134
18101W        W37635  16.822   7.910  10.581  0.1666  0.2698 -0.0053
18102W        W37636  19.039   5.767   3.564 -0.2765 -0.0787  0.3203
18103W        W37637  13.684   3.251  12.293 -0.0094  0.0537  0.2914
18104W        W37638  14.195  11.819   1.221  0.0854  0.3277  0.0023
18105W        W37639   4.788   2.142   1.626  0.1206 -0.0329  0.1295
18106W        W37640  18.691   1.537  14.256  0.0508 -0.2498 -0.1600
18107W        W37641   4.099   5.699  14.005 -0.1532  0.2187 -0.0931
18108W        W37642   4.580   8.401  14.760  0.0426 -0.0536  0.1476
18109W        W37643  11.493   5.985  14.587 -0.4799 -0.2327  0.0790
18110W        W37644   6.101  16.015  13.833 -0.2922 -0.1087  0.1441
18111W        W37645   5.084  14.982   2.606  0.1077  0.0453 -0.2339
18112W        W37646  14.259   7.137   2.423  0.1111 -0.1820  0.2764
18113W        W37647   7.327   1.281  13.896 -0.0357  0.3160 -0.0723
18114W        W37648  17.158   1.869  11.549 -0.2559  0.0098  0.1725
18115W        W37649  12.774   3.255   1.075  0.2649  0.3160 -0.1994
18116W        W37650  14.492   9.350   0.913 -0.1045  0.0451 -0.0187
18117W        W37651  14.976   6.284   0.809  0.0188 -0.0173  0.1036
18118W        W37652  15.552  18.489   5.045  0.0599  0.0822 -0.0693
18119W        W37653  11.239  11.292   2.455  0.1723  0.0541 -0.1781
18120W        W37654   1.592  15.404   3.255 -0.2091 -0.0898  0.0957
18121W        W37655   3.220  17.650   1.003  0.2280  0.0927 -0.2854
18122W        W37656   0.930  16.231  13.962  0.0939 -0.2853  0.1477
18123W        W37657  13.121  16.985  12.849 -0.1494  0.1221  0.2442
18124W        W37658  10.465  15.606   0.990 -0.1360  0.1197  0.1291
18125W        W37659   4.897  16.792  12.272  0.2107 -0.1546  0.0698
18126W        W37660   5.197   7.875   1.609 -0.2978  0.0185 -0.1573
18127W        W37661  12.755  14.202  12.481 -0.0763 -0.2022 -0.1958
18128W        W37662   5.006   6.191  10.464  0.0735 -0.1899  0.0977
18129W        W37663   4.748   5.396   1.414  0.1904 -0.1334  0.0849
18130W        W37664  11.202   9.146   3.071  0.3109  0.1377  0.2067
18131W        W37665  14.226   1.291   2.771 -0.0998 -0.0651 -0.2331
18132W        W37666   1.526   4.606   3.836 -0.2786 -0.0694 -0.0527
18133W        W37667  14.426   1.674   3.945  0.0679 -0.0247  0.0356
18134W        W37668   1.533   8.260  12.731 -0.1911 -0.0738 -0.1269
18135W        W37669   8.279  12.450   2.759  0.0774  0.0071 -0.3080
18136W        W37670  17.687   1.114  14.625 -0.0953  0.0503 -0.0580
18137W        W37671   6.764   0.424  11.516  0.0580 -0.1242 -0.1581
18138W        W37672   6.157   6.089   1.061 -0.1026  0.0456  0.0670
18139W        W37673  15.346  11.827  11.955  0.1964  0.2702 -0.0947
18140W        W37674  15.824  11.462  13.466 -0.2599  0.1734 -0.1612
18141W        W37675   5.030   8.575  12.644  0.0813  0.1380  0.4039
18142W        W37676  13.889  13.069   2.800 -0.3819 -0.0019  0.1170
18143W        W37677  10.573   7.320  12.895  0.1699 -0.0333  0.2051
18144W        W37678   7.940  13.694   1.260 -0.5017  0.3632  0.1720
18145W        W37679  16.151  18.979  13.964 -0.1045 -0.2059 -0.0453
18146W        W37680   4.553  14.360  14.505  0.1079 -0.1377 -0.4180
18147W        W37681  10.011  18.927  11.061  0.3002  0.1062  0.1788
18148W        W37682   1.090  15.187   0.449  0.1996  0.1560  0.0954
18149W        W37683   7.042   4.524  10.643 -0.0991  0.1481 -0.2025
18150W        W37684  13.623   8.236  13.904  0.0850 -0.5060  0.0645
18151W        W37685   5.318  14.396   1.359 -0.0626 -0.0011 -0.1126
18152W        W37686   8.126   7.959  12.061  0.3858 -0.1703  0.3004
18153W        W37687  10.123  11.916   3.125 -0.3370  0.3331 -0.2786
18154W        W37688   3.362   8.992  11.552  0.1371  0.3453  0.0737
18155W        W37689   1.271  11.537   5.359 -0.2196 -0.0009  0.3070
18156W        W37690  13.836   4.256   1.757 -0.0863  0.0012 -0.0697
18157W        W37691  14.507   5.313  10.801  0.2366  0.1939 -0.1030
18158W        W37692  13.717  12.211   4.054  0.0341 -0.0100  0.1169
18159W        W37693  14.396  17.086  13.317  0.1945 -0.2607  0.3151
18160W        W37694  11.636   5.028   1.080  0.1713 -0.1311 -0.1533
18161W        W37695   1.084   4.232   3.260  0.1728 -0.0442 -0.3616
18162W        W37696  10.061  16.827  14.416 -0.1455  0.0174  0.0595
18163W        W37697  17.636   6.122  14.623  0.1946 -0.1253 -0.0569
18164W        W37698   1.296  13.254   2.896 -0.4168 -0.0155 -0.0450
18165W        W37699  14.047   1.806  14.693 -0.2812  0.0402 -0.1027
18166W        W37700  14.677   9.200  13.352 -0.1620 -0.0657 -0.2912
18167W        W37701   9.730   9.108  13.438 -0.2401 -0.0151  0.3534
18168W        W37702  17.945  10.540   0.240 -0.2399  0.1085  0.0361
18169W        W37703   1.040  13.363   2.517  0.3048  0.1124 -0.0097
18170W        W37704   4.992   7.561  12.935 -0.0416 -0.0996 -0.1318
18171W        W37705   6.599   4.162  12.137 -0.2357 -0.0080  0.2193
18172W        W37706   2.914   7.838  10.888 -0.1129 -0.2352 -0.1710
18173W        W37707   5.616   6.728   0.131 -0.0455  0.1378  0.4178
18174W        W37708   2.223   1.863   2.224  0.0983  0.2487 -0.0278
18175W        W37709  15.634  10.367   2.819 -0.2596  0.0563  0.0123
18176W        W37710  12.789   0.015  13.279  0.1356 -0.0713 -0.0923
18177W        W37711   3.969   6.819   4.150  0.2956 -0.1396  0.1546
18178W        W37712   8.276   3.345   4.224  0.1201 -0.0920 -0.0166
18179W        W37713   7.096   6.248   3.013  0.1011  0.0784 -0.0147
18180W        W37714   3.306   0.079  14.093  0.0595  0.1835 -0.3335
18181W        W37715   5.411  13.812  14.753  0.0108  0.0169  0.0236
18182W        W37716   9.368   4.683   1.781 -0.4001 -0.2089 -0.1728
18183W        W37717   2.891  18.124  11.096  0.1415  0.0588 -0.1457
18184W        W37718  14.625   1.620  14.126 -0.1636  0.0832  0.1351
18185W        W37719  10.923  18.083   2.073 -0.3414 -0.3784  0.2062
18186W        W37720  14.693  12.937  11.631  0.4313  0.2865 -0.0765
18187W        W37721  16.154  12.365  11.011  0.1154 -0.0034  0.0036
18188W        W37722   9.872  17.400   2.696  0.0286 -0.2035  0.0594
18189W        W37723  13.025  16.205  12.981  0.0089  0.1026  0.1898
18190W        W37724   5.005  15.885   3.612 -0.0312 -0.0533  0.1022
18191W        W37725  15.723   4.788   9.482  0.1623  0.2325 -0.0487
18192W        W37726   2.324  16.833   1.742  0.0824  0.2105 -0.0235
18193W        W37727  15.979  14.187   0.113 -0.0109  0.0005  0.0267
18194W        W37728  14.267   7.792   2.246 -0.3957  0.2416  0.4098
18195W        W37729   2.077   8.911   0.342 -0.3386 -0.3774 -0.2286
18196W        W37730  12.393   6.766  10.870  0.0784 -0.3104  0.0496
18197W        W37731   5.099   8.495   1.548  0.0641 -0.3546 -0.1649
18198W        W37732   1.802  11.672   3.444 -0.0285 -0.0353  0.1151
18199W        W37733  16.520   0.757   3.715  0.2469  0.0302 -0.2683
18200W        W37734   3.490  13.258  12.035  0.2126  0.2750  0.0725
18201W        W37735  17.832   4.333   1.104 -0.1478  0.1417 -0.1382
18202W        W37736  11.870  17.383  11.310  0.1620  0.1426  0.2218
18203W        W37737  12.359  15.038  13.548 -0.0381  0.0019 -0.0117
18204W        W37738   7.109  17.954   1.987 -0.2448  0.1797 -0.0450
18205W        W37739  10.565  16.120   3.787 -0.1175  0.0694  0.0623
18206W        W37740  14.917  12.293   0.235  0.1686 -0.0977 -0.0924
18207W        W37741  13.904   0.634  14.795  0.4114 -0.0888  0.1844
18208W        W37742   1.247   7.761   3.208  0.1724  0.0742 -0.2180
18209W        W37743   3.409  11.400   1.754 -0.2375  0.5323  0.3444
18210W        W37744   4.694  18.636  12.595 -0.0308  0.2270  0.0838
18211W        W37745   2.096  16.299   1.400 -0.0701 -0.1106  0.0174
18212W        W37746   4.695   3.945  13.754 -0.1620 -0.1534  0.1220
18213W        W37747  16.507  11.486  13.450 -0.0918 -0.2547  0.0598
18214W        W37748  12.729   4.255  11.168 -0.2243 -0.0525 -0.3638
18215W        W37749   6.060  15.733   3.365  0.0791  0.0992  0.0121
18216W        W37750  12.061   9.241   1.048 -0.1519  0.2511 -0.1158
18217W        W37751   8.108   9.658  11.771 -0.2498 -0.2078  0.0560
18218W        W37752  15.323  12.742  14.366 -0.1981  0.0256  0.0913
18219W        W37753  15.887  15.954   2.355 -0.1627  0.0300 -0.1942
18220W        W37754  15.776  11.585  14.380 -0.0025  0.0689  0.1193
18221W        W37755  17.994   4.335  10.595  0.0138 -0.1884 -0.0262
18222W        W37756  17.411   4.975  13.502 -0.1363  0.1401 -0.2618
18223W        W37757  11.309  10.607  11.888 -0.0340 -0.1061  0.0520
18224W        W37758  14.924  14.659  13.097 -0.0393 -0.5198 -0.1189
18225W        W37759   6.503  15.252  12.360  0.3866 -0.0054 -0.0429
18226W        W37760   0.286  16.225  10.604  0.3125  0.1116 -0.1852
18227W        W37761   7.780   3.293   4.052 -0.2671  0.1605 -0.0134
18228W        W37762  18.102   2.686   1.557 -0.0071 -0.1213 -0.0680
18229W        W37763   7.750   7.907   0.141  0.2434  0.1509 -0.4556
18230W        W37764  10.782   4.315  12.613  0.1594  0.0140  0.5854
18231W        W37765   9.273  14.257  12.483  0.1368 -0.0557  0.1769
18232W        W37766   3.141  16.122   1.223 -0.3522 -0.1228  0.0134
18233W        W37767  10.996   9.654  13.448  0.1316  0.2425 -0.1088
18234W        W37768  18.384   5.463  12.401 -0.0836  0.0893  0.2258
18235W        W37769   9.487   8.019  14.400  0.1892 -0.2644 -0.4186
18236W        W37770  16.306   3.170  11.335 -0.0931  0.0200 -0.0744
18237W        W37771   7.899   3.576   2.092 -0.0765 -0.1029  0.2395
18238W        W37772   5.869  13.006   1.175  0.2308 -0.4269 -0.5213
18239W        W37773   8.593  12.583  11.784 -0.0038 -0.0357  0.0467
18240W        W37774  18.614  10.027   2.826  0.0413  0.1193 -0.3348
18241W        W37775   3.077  18.019   3.788 -0.1541 -0.0588  0.2843
18242W        W37776   5.935  10.837   3.635 -0.4312 -0.0802 -0.2517
18243W        W37777  18.163   7.279  12.209  0.0018  0.0374 -0.3518
18244W        W37778   6.836  13.446  13.869  0.1895  0.0572 -0.0697
18245W        W37779   0.244  14.441  11.275  0.1869 -0.0852  0.1314
18246W        W37780   8.471  17.521   4.469  0.1641  0.1718  0.0943
18247W        W37781  12.536  12.737   1.697 -0.0997 -0.1612 -0.1282
18248W        W37782   5.840  10.864   3.117  0.5731 -0.1228 -0.0926
18249W        W37783  11.580  12.404  13.564  0.2064  0.3557 -0.0113
18250W        W37784  15.535   2.139   3.185 -0.0490  0.0596  0.1237
18251W        W37785  13.782   4.505  13.950 -0.0445  0.0621  0.1220
18252W        W37786   9.201   3.174   4.547 -0.0310  0.0662  0.1594
18253W        W37787  16.885  12.264  12.100  0.1358  0.1565  0.0085
18254W        W37788  12.928  15.791  12.643  0.1812  0.3356  0.0418
18255W        W37789   7.207  16.579  12.945  0.0526  0.0031  0.1117
18256W        W37790  13.101   9.709  13.827  0.0004 -0.2561  0.0531
18257W        W37791  14.289  15.381   0.574  0.3136  0.0815  0.3445
18258W        W37792  11.505   7.385   3.651 -0.2221 -0.1203 -0.2747
18259W        W37793  11.164  12.256  10.845  0.0319 -0.1867 -0.1973
18260W        W37794   9.546   2.393   4.291 -0.0877  0.1683  0.0864
18261W        W37795  13.375   7.049  10.545 -0.0443  0.2397  0.1148
18262W        W37796   7.510  12.251  13.070  0.0771 -0.2992  0.1619
18263W        W37797  16.366   9.913  10.559  0.1620 -0.1000 -0.0284
18264W        W37798   6.794  13.880   2.853 -0.1548  0.3360  0.3588
18265W        W37799   7.065  10.626   3.941  0.0839 -0.1116  0.3122
18266W        W37800  17.037   8.222   1.945 -0.1412  0.3105 -0.0898
18267W        W37801  12.722   7.018   3.486 -0.1986  0.1444 -0.0048
18268W        W37802   7.164  16.934   2.928  0.0117  0.1541  0.3764
18269W        W37803  17.820   8.702   9.427  0.3609 -0.0781 -0.1246
18270W        W37804  16.130  17.227   3.996  0.2823 -0.2175 -0.2934
18271W        W37805   9.947  13.167  11.304  0.1131 -0.0820 -0.0709
18272W        W37806   3.547   1.278   0.335  0.0329 -0.0357  0.0339
18273W        W37807  10.248   6.528   1.661  0.0813 -0.2676  0.0018
18274W        W37808   8.869   3.117  11.478 -0.0594 -0.0718  0.1674
18275W        W37809   4.686  15.053   0.738  0.0725  0.0272 -0.0726
18276W        W37810  12.809  11.693  13.916 -0.1244 -0.0136 -0.1739
18277W        W37811  13.496   6.232   2.390  0.0814 -0.0305 -0.0954
18278W        W37812  10.840   8.288  11.351  0.0989  0.1401  0.2198
18279W        W37813  14.110   8.314  11.128 -0.2642  0.0563  0.0250
18280W        W37814  17.473   8.145  13.863 -0.0196  0.0929  0.1880
18281W        W37815  12.344   0.884  12.232 -0.0150 -0.0023  0.2155
18282W        W37816  11.345   8.294  14.844 -0.1755 -0.1629  0.3798
18283W        W37817   9.905   5.749   2.147  0.2195  0.2337  0.1296
18284W        W37818  14.311   3.528   0.070  0.2019  0.3599  0.0240
18285W        W37819  16.145   5.007   1.425  0.0558  0.1021 -0.0068
18286W        W37820  12.640  16.122  10.150  0.0410  0.2084 -0.1226
18287W        W37821  16.871   5.671   0.536  0.2177  0.0415  0.0807
18288W        W37822  10.204   2.338  12.203 -0.1693 -0.2983 -0.1872
18289W        W37823   7.365  18.651  11.945 -0.1873 -0.0935  0.0117
18290W        W37824  18.216  14.730   0.293 -0.2151 -0.2733  0.1888
18291W        W37825   0.397  17.248   2.879  0.2800 -0.1323 -0.0811
18292W        W37826   9.534   5.196  12.896  0.1540  0.1712 -0.0719
18293W        W37827  17.981   4.638  12.080 -0.1480 -0.0453 -0.0105
18294W        W37828  12.003  12.195  12.399 -0.2284 -0.1133 -0.2342
18295W        W37829  10.453  16.824   1.296 -0.1664  0.0554 -0.1155
18296W        W37830   0.499   5.815   3.419  0.1843 -0.0526  0.1638
18297W        W37831   4.118   0.100  11.534 -0.1542  0.0082 -0.3580
18298W        W37832  15.213   0.228  12.868  0.0061  0.1399 -0.0290
18299W        W37833  13.907   4.814   3.773  0.0617 -0.3510 -0.1140
18300W        W37834  14.188  14.430  10.886  0.1304 -0.1552  0.0148
18301W        W37835   6.894  13.253   4.039 -0.1810 -0.0286 -0.1411
18302W        W37836   5.674  11.685   2.278  0.0310  0.0348 -0.0330
18303W        W37837  12.932  17.644   4.001 -0.0893 -0.0631  0.0439
18304W        W37838  15.331   8.540  12.265 -0.1492 -0.0352  0.1237
18305W        W37839   3.804   3.760  14.108 -0.0698 -0.1545 -0.2204
18306W        W37840  13.393  14.967   2.028  0.1759  0.2242 -0.1564
18307W        W37841  10.005   8.002   0.966 -0.0504  0.2643  0.1383
18308W        W37842  15.996   2.401   2.483 -0.0094  0.0956  0.2521
18309W        W37843  12.803  11.277   3.324  0.0676 -0.0885 -0.1906
18310W        W37844  13.168  17.311  10.946 -0.0038 -0.2094 -0.1481
18311W        W37845   8.492  16.912  11.190 -0.2539  0.1204  0.2367
18312W        W37846   3.388  16.326   3.228  0.0593  0.0449  0.0124
18313W        W37847   4.393  10.254   3.111 -0.0188 -0.0619  0.1609
18314W        W37848   5.524  11.174   1.953  0.1523 -0.1335 -0.0853
18315W        W37849   7.691   8.146   9.838  0.0968  0.2075  0.1590
18316W        W37850   0.162   4.926   2.044 -0.0624 -0.0578 -0.1790
18317W        W37851   0.524  15.880   1.790  0.1191  0.0940  0.1703
18318W        W37852   3.443   1.477  11.702  0.0614  0.0205  0.0770
18319W        W37853   7.460  10.930   1.012 -0.4235 -0.1100  0.0964
18320W        W37854  16.542  10.274  14.731 -0.1478  0.3526 -0.0134
18321W        W37855  13.831   8.895  11.542 -0.0995  0.2075  0.0679
18322W        W37856   0.689  13.026  14.709  0.0772 -0.1748 -0.1231
18323W        W37857   9.073   4.306   0.360 -0.0338  0.2476  0.1860
18324W        W37858   7.919  17.523  12.343  0.1075  0.4245 -0.2029
18325W        W37859   1.528  13.866   1.575 -0.0516  0.1926 -0.2737
18326W        W37860  10.837  11.178   1.630 -0.2169  0.0350 -0.1940
18327W        W37861   9.292   2.024  14.074  0.1841  0.0173  0.1990
18328W        W37862   2.609  11.404   2.410 -0.0039 -0.0015 -0.1738
18329W        W37863   8.560   0.550   2.498  0.3127  0.2117 -0.0849
18330W        W37864  13.267   4.448  10.991 -0.0387 -0.0702 -0.0228
18331W        W37865  13.338   4.000   2.567  0.1564  0.4576 -0.1608
18332W        W37866  17.843  13.336  11.410  0.1573 -0.2510  0.2080
18333W        W37867   4.804   2.820   1.151  0.0272  0.0703  0.1950
18334W        W37868  14.633   1.601  11.989 -0.2262 -0.2915  0.2333
18335W        W37869   8.716  11.543   1.115  0.5346  0.3376  0.0596
18336W        W37870  11.264  14.387   4.166  0.0179  0.2187  0.2744
18337W        W37871   9.849  17.608   3.521  0.1701  0.2177  0.3967
18338W        W37872  11.997   2.272  12.144  0.0201  0.1366 -0.0133
18339W        W37873   2.888   2.481  11.266 -0.1838 -0.3008  0.3825
18340W        W37874  11.544   5.800   0.209  0.1295 -0.0030  0.0238
18341W        W37875   5.367   9.919   1.122  0.2686 -0.0513 -0.0508
18342W        W37876  15.813   3.602   3.082  0.0142  0.0973  0.2174
18343W        W37877  11.941   8.309  14.079  0.0276  0.0644  0.1568
18344W        W37878   2.038  18.843   2.079 -0.0261  0.0351 -0.0044
18345W        W37879   6.817   6.298  11.609  0.1350 -0.2531  0.3390
18346W        W37880  17.451   7.373  13.024  0.2069 -0.0311  0.2358
18347W        W37881   4.349   3.580  14.839 -0.1331  0.0384 -0.0238
18348W        W37882   6.172  11.508   2.397 -0.0678 -0.0498  0.1833
18349W        W37883   1.992   8.446   3.597  0.0939  0.1263  0.1881
18350W        W37884   2.471  12.528   4.301  0.2732 -0.4491  0.0039
18351W        W37885   7.143  18.851  11.183  0.1289  0.2020  0.2384
18352W        W37886   7.600   3.310  13.604  0.1499 -0.2806  0.1968
18353W        W37887  14.488   7.409   1.952 -0.0757 -0.3754 -0.1438
18354W        W37888   1.315   9.146   2.228  0.1612 -0.0823 -0.0899
18355W        W37889   3.892   0.918   0.505 -0.0360 -0.3409  0.0208
18356W        W37890   9.329   0.247   3.588 -0.1483  0.0087 -0.2180
18357W        W37891  10.533   3.004   0.298 -0.0254 -0.3125  0.0405
18358W        W37892  11.873   6.733  12.253  0.0895 -0.0042 -0.2653
18359W        W37893  12.349   6.095   1.297 -0.2004 -0.0388 -0.1916
18360W        W37894   8.510   6.983  11.110  0.1834 -0.0364  0.0596
18361W        W37895  13.454  15.968   0.153  0.3063  0.1464  0.2313
18362W        W37896   6.408  10.542  13.955  0.0363  0.1524  0.0748
18363W        W37897  14.165   0.641   0.456 -0.1540 -0.0255  0.1869
18364W        W37898  16.815   7.425   0.622 -0.2799 -0.0986  0.1011
18365W        W37899  15.442   1.391   0.518 -0.0163 -0.0590 -0.2432
18366W        W37900   7.762  16.753  13.946  0.0402  0.2328 -0.2703
18367W        W37901  16.465  12.815  12.254  0.1267 -0.3639 -0.0104
18368W        W37902   1.237   9.985   0.766 -0.3908  0.1408 -0.0202
18369W        W37903  11.084  14.149  14.022  0.1118  0.0732  0.1715
18370W        W37904  15.203   9.822   0.055  0.1577 -0.0739 -0.3239
18371W        W37905   4.984   0.991  12.965  0.1905 -0.1110 -0.3250
18372W        W37906  11.468   0.230   3.152 -0.3085  0.0670 -0.2064
18373W        W37907   4.408   2.373   2.597 -0.0095  0.1906 -0.0843
18374W        W37908  11.703  12.957   1.521  0.2790 -0.1777 -0.2638
18375W        W37909   1.646  18.120   2.723 -0.3956 -0.0002  0.0017
18376W        W37910  15.602   0.426   4.162  0.2572  0.0129 -0.0856
18377W        W37911  10.426   3.758   0.365  0.4231 -0.0600  0.0520
18378W        W37912   0.218  19.016  12.052 -0.0624  0.2985 -0.1966
18379W        W37913   7.371  15.400   2.689 -0.0752  0.2827  0.1144
18380W        W37914  14.894  10.636  10.633 -0.2302 -0.1982  0.2599
18381W        W37915   0.084  16.471   0.211  0.2601 -0.3520 -0.1288
18382W        W37916   4.017   3.440   0.365 -0.1199 -0.2358 -0.0773
18383W        W37917  16.137   4.120  13.114  0.2162  0.1105  0.0917
18384W        W37918  15.275  14.112  11.540 -0.1196 -0.4180 -0.1017
18385W        W37919   3.453   4.215  10.017  0.2344 -0.0008  0.0995
18386W        W37920  13.981   4.046   4.435  0.0763  0.0840  0.0235
18387W        W37921  17.665  16.224  12.557  0.1526  0.0828  0.1386
18388W        W37922   2.483  14.041   0.680  0.3669  0.0701 -0.0572
18389W        W37923   1.172   9.983  14.021 -0.1042 -0.0539 -0.0851
18390W        W37924   8.370   2.702  14.248 -0.0091 -0.1083  0.3059
18391W        W37925   3.686  14.777  12.350  0.0114 -0.0513 -0.1528
18392W        W37926  18.921   4.268   1.043 -0.0086 -0.0688  0.3168
18393W        W37927   0.795   1.510   1.725  0.3374 -0.0526  0.0250
18394W        W37928  16.827   2.752  12.731 -0.1658  0.0227  0.2312
18395W        W37929   0.213  12.447   0.076 -0.3434  0.1541  0.0393
18396W        W37930   9.628   0.597   2.340 -0.0983 -0.0448  0.3940
18397W        W37931   8.940  12.308   0.539 -0.2110 -0.0876  0.3663
18398W        W37932   3.255   5.915   3.038  0.1980  0.1809 -0.0891
18399W        W37933   8.751  19.096  10.402 -0.2727 -0.0189  0.3393
18400W        W37934  17.663  12.270  13.170 -0.0566  0.0174  0.4859
18401W        W37935   5.004  16.965   3.675  0.0555  0.0180 -0.1038
18402W        W37936  10.399  18.856  13.035  0.0642  0.1310  0.0049
18403W        W37937   6.001  10.109   2.314  0.0064 -0.1352 -0.1733
18404W        W37938  14.061  14.258  13.962 -0.0032  0.0788 -0.0234
18405W        W37939  17.016  17.197  10.128 -0.2968 -0.1881  0.1622
18406W        W37940  15.610   6.439  13.734 -0.1719  0.2050 -0.1107
18407W        W37941  13.827   5.840  14.180  0.1318  0.0105 -0.0981
18408W        W37942   6.823   5.709   1.479 -0.1312 -0.0511  0.2933
18409W        W37943  11.687  12.079  10.751 -0.1564  0.2031  0.2063
18410W        W37944   2.406  11.205  13.376 -0.1418  0.1073 -0.1462
18411W        W37945   3.649   3.788   1.383  0.0675 -0.0334  0.0790
18412W        W37946  11.940   4.206   4.208 -0.2189 -0.0809  0.2868
18413W        W37947  11.598  11.906  12.469 -0.3850  0.2707  0.1777
18414W        W37948  10.346  16.346  14.488 -0.3116  0.0234  0.3601
18415W        W37949  10.978  15.364   2.531  0.0290 -0.0186 -0.1212
18416W        W37950  16.461   5.365  11.074 -0.1211 -0.0796  0.3937
18417W        W37951   3.023  17.922   2.153 -0.1604  0.1815 -0.1056
18418W        W37952  10.760  11.530  14.249 -0.5186 -0.1770  0.1267
18419W        W37953   6.094  14.537  13.940 -0.2001 -0.3843  0.0797
18420W        W37954   9.087  11.621   0.752 -0.1208 -0.1289 -0.1227
18421W        W37955  11.330   9.756   3.575 -0.1051  0.0713  0.0872
18422W        W37956  10.421   8.626   0.427 -0.2303  0.2215  0.1150
18423W        W37957  12.064   4.422  11.908 -0.0384 -0.2685 -0.2749
18424W        W37958   4.831  14.452  12.365  0.2339 -0.2937  0.0778
18425W        W37959   4.854  14.022  14.171  0.0732 -0.2522 -0.1920
18426W        W37960  16.735   6.330   2.093  0.0637 -0.3262  0.2390
18427W        W37961  10.697   3.921  13.895  0.1600 -0.2874 -0.0620
18428W        W37962  10.206  19.064   9.967 -0.0967 -0.1148  0.0432
18429W        W37963   1.504  11.365  13.560 -0.2566  0.3511  0.0111
18430W        W37964  11.992   6.348   3.356  0.2198  0.3454  0.3775
18431W        W37965   6.815   0.065  10.946 -0.1676 -0.0473 -0.1847
18432W        W37966   5.751  15.690  12.737 -0.3092  0.0922 -0.2853
18433W        W37967  16.273   7.487   0.650  0.1995  0.2510  0.1441
18434W        W37968  12.625   1.254   1.070  0.0913 -0.0456  0.0068
18435W        W37969  16.198   5.460   1.128 -0.1874  0.3713 -0.3504
18436W        W37970  10.038   4.001   3.536  0.1525  0.0095 -0.1281
18437W        W37971   7.609  13.784   0.780  0.0852 -0.0442  0.2993
18438W        W37972   7.486   5.014   1.151 -0.2236 -0.0016 -0.1292
18439W        W37973  18.910  13.278  11.083  0.0153 -0.2550 -0.0313
18440W        W37974  15.655  19.121  11.114 -0.0822 -0.3482 -0.2895
18441W        W37975   1.571   8.652   4.224  0.1041  0.0602  0.2366
18442W        W37976   8.084  10.805  12.251  0.2506  0.2042  0.0889
18443W        W37977  13.150   4.479  11.954 -0.0861  0.1439 -0.3428
18444W        W37978   6.531   7.434  10.941 -0.2636  0.4379  0.2442
18445W        W37979  10.413   0.824  13.564  0.2984 -0.0219 -0.3376
18446W        W37980  15.205  13.891   4.692 -0.0725  0.2681 -0.1879
18447W        W37981   2.787   2.979   1.019  0.0820  0.1733  0.1429
18448W        W37982   1.582  17.971  13.696 -0.1226  0.2037  0.0901
18449W        W37983  14.083   4.389  11.762  0.2486  0.2794 -0.2178
18450W        W37984   7.068   3.716  14.340  0.1697 -0.0741 -0.0882
18451W        W37985   0.952   0.410   0.136 -0.0750  0.0719  0.0555
18452W        W37986  12.295   3.634  14.834 -0.1414 -0.0116  0.1384
18453W        W37987  15.576  16.246   2.628  0.0572 -0.0629  0.0747
18454W        W37988  14.040  10.825  13.749  0.4165  0.4306 -0.1402
18455W        W37989  15.031   8.610  10.900 -0.0502 -0.0954  0.3294
18456W        W37990   8.517   4.179   3.804  0.2120 -0.1485  0.0180
18457W        W37991  10.957  13.203   0.418 -0.0145 -0.2297  0.0449
18458W        W37992  18.920   0.220   2.560 -0.2893 -0.0119 -0.0465
18459W        W37993  14.093  10.361   4.111  0.1400  0.0458  0.2541
18460W        W37994   8.099   3.922   0.935 -0.0654  0.2509 -0.1650
18461W        W37995  12.637   1.668   2.951 -0.0249  0.2441  0.1480
18462W        W37996   7.390  18.631   0.646  0.0391  0.1454  0.3452
18463W        W37997  16.766  10.487   3.298 -0.0429  0.0378 -0.0958
18464W        W37998   2.129  10.417  12.125 -0.0511  0.0835  0.2452
18465W        W37999   2.819  15.444  11.523  0.0935  0.0281 -0.2621
18466W        W38000   1.679   0.344  13.781  0.0604 -0.1702 -0.2607
18467W        W38001  14.444  11.620   2.040  0.1386 -0.0762 -0.0375
18468W        W38002  10.677   2.440   2.412 -0.0207 -0.0876 -0.0588
18469W        W38003   2.667  16.020   2.811  0.0618  0.1755  0.2121
18470W        W38004   6.214   2.126   0.309  0.0703 -0.2986  0.2812
18471W        W38005   9.638  14.914   0.793  0.0540  0.2749  0.0819
18472W        W38006   1.498  12.423   1.365  0.1633 -0.0080  0.0850
18473W        W38007  17.609   4.215  12.845 -0.2362  0.1946 -0.0263
18474W        W38008   0.092   6.345  11.004  0.1973  0.3097  0.0158
18475W        W38009  17.683   3.608  10.217 -0.0236  0.1406 -0.0798
18476W        W38010   9.934   8.136  12.750 -0.0180 -0.0670 -0.1873
18477W        W38011  18.432   5.118   1.678  0.2047 -0.1223  0.0195
18478W        W38012  16.406   3.293   1.569  0.0691  0.3229  0.1714
18479W        W38013  13.739   4.208  12.123 -0.0395 -0.0006  0.0829
18480W        W38014  14.227  12.204  14.173  0.0919 -0.0290 -0.3468
18481W        W38015   7.706  17.071  13.481  0.0754  0.1597  0.2403
18482W        W38016  12.157   4.462  13.167  0.1334 -0.2219 -0.1360
18483W        W38017   3.103   1.850  13.041  0.1381  0.1687 -0.3567
18484W        W38018   0.346  18.661   2.623 -0.2320 -0.2143  0.1215
18485W        W38019   6.568  12.529  11.833  0.0913 -0.0994  0.1203
18486W        W38020   3.089   8.913  11.993 -0.1558 -0.1914  0.0080
18487W        W38021   3.244  14.488  12.296 -0.1227  0.0323  0.1809
18488W        W38022  13.020  12.387  12.408  0.2410  0.2387 -0.0135
18489W        W38023  13.726   5.638  11.166  0.0757 -0.0920 -0.0581
18490W        W38024  10.551  13.537   2.012  0.0013  0.1985 -0.3025
18491W        W38025   7.573   2.164  14.397  0.1029 -0.3290 -0.0427
18492W        W38026  10.604  14.184   3.295  0.1321 -0.0568 -0.1467
18493W        W38027  17.340  18.495  14.301  0.1708 -0.0557 -0.2743
18494W        W38028   8.880  17.352  12.312  0.1484  0.0640 -0.0969
18495W        W38029  16.962  11.988  10.484  0.1359  0.0160 -0.0830
18496W        W38030  15.146  15.462  11.359  0.1012  0.0090  0.0392
18497W        W38031   1.365   5.525   2.645  0.2637  0.0678 -0.0427
18498W        W38032  18.853   3.495  12.090 -0.1103  0.2213 -0.0105
18499W        W38033  11.259  18.873  11.941  0.1508  0.2098 -0.2374
18500W        W38034  10.933   7.002  13.621  0.0260  0.0580  0.2843
18501W        W38035  10.454   3.519   1.776  0.1339  0.2022 -0.0462
18502W        W38036  12.711  16.439  10.879 -0.0256 -0.2599  0.0721
18503W        W38037  10.268  12.229  12.795  0.0795 -0.0253 -0.3010
18504W        W38038   5.366   5.807  13.888  0.0927 -0.0962 -0.1229
18505W        W38039   8.271  16.746  11.615 -0.0481 -0.2831  0.0525
18506W        W38040   3.634  18.343   1.157 -0.1160  0.1139  0.1409
18507W        W38041  18.861  16.365  11.778 -0.1039 -0.3248  0.0042
18508W        W38042   1.919  13.411  14.301 -0.0564  0.2163  0.0833
18509W        W38043  13.695  15.899   1.179 -0.0573  0.1881 -0.0586
18510W        W38044   7.974  10.443  14.599  0.0745 -0.4158 -0.1608
18511W        W38045  10.154   2.065   2.433  0.2130 -0.2322 -0.3563
18512W        W38046   7.962  13.768   2.542 -0.1234  0.1157 -0.0065
18513W        W38047   9.764  16.469   4.310 -0.2256 -0.1688  0.2793
18514W        W38048  16.881  16.283  11.173 -0.1421  0.4536  0.4643
18515W        W38049   9.898   8.262  13.752  0.0745 -0.3221 -0.0770
18516W        W38050   9.999   0.145  10.655 -0.2669  0.0453  0.0539
18517W        W38051   3.616   8.292  10.136 -0.2052 -0.1128 -0.0216
18518W        W38052   1.751   0.978   3.914 -0.2169  0.3109 -0.0146
18519W        W38053   6.014   4.518  14.606  0.0281  0.0384 -0.1587
18520W        W38054   8.032   5.505   3.851 -0.3439 -0.1035 -0.1433
18521W        W38055   5.866  12.478  12.963 -0.1113  0.3782  0.1195
18522W        W38056  11.846   9.811  14.836  0.3584  0.3269 -0.0067
18523W        W38057   8.066  17.330  11.898  0.1258  0.2190  0.1296
18524W        W38058   3.918  17.001  11.449  0.0310  0.1814  0.0874
18525W        W38059  13.829  17.270  12.555  0.1867  0.2255  0.1683
18526W        W38060  11.576  14.897   4.217 -0.1668  0.3558 -0.2805
18527W        W38061  18.824   3.154   2.536 -0.1807  0.0062 -0.0490
18528W        W38062  16.593   5.565   1.457 -0.0207  0.1044  0.0909
18529W        W38063   4.494   1.290   1.278  0.0789 -0.2052 -0.0967
18530W        W38064  12.985   9.542   1.914 -0.2617  0.0546 -0.1524
18531W        W38065   0.450  14.158  11.601 -0.1957 -0.0645  0.0559
18532W        W38066  16.435  10.583   3.710  0.3527  0.1791  0.1868
18533W        W38067   0.689   8.002   2.321 -0.2144 -0.1054 -0.1367
18534W        W38068   8.902   9.699   0.840 -0.2252  0.0612 -0.1851
18535W        W38069   2.398  14.435  10.703  0.0139  0.2485  0.1748
18536W        W38070  17.645   1.991   1.473  0.3627 -0.2170  0.2464
18537W        W38071  13.634  12.990   2.338 -0.0591 -0.1077 -0.0696
18538W        W38072  17.575   0.265  13.008 -0.1261  0.1418  0.1583
18539W        W38073  10.331   5.201   2.780 -0.3234 -0.4795  0.1220
18540W        W38074  12.630  10.320  11.823 -0.1661  0.1613  0.0765
18541W        W38075  18.882  16.888   1.118  0.0072 -0.1906 -0.0595
18542W        W38076   9.167   0.884   0.479 -0.0064 -0.1085  0.1881
18543W        W38077   5.067   7.662   2.017  0.1999  0.0350 -0.0625
18544W        W38078  14.281  12.427  11.691 -0.4542 -0.0638 -0.1020
18545W        W38079  18.303  18.089  12.963 -0.1269  0.3015 -0.0276
18546W        W38080  13.640   9.440   0.784 -0.5416  0.2164  0.4042
18547W        W38081   7.771   1.407  10.663  0.1577  0.0271  0.0218
18548W        W38082  17.913   1.738   0.412  0.1194 -0.1352  0.2248
18549W        W38083  16.780  13.346  11.961 -0.1004 -0.1336  0.2040
18550W        W38084   5.876  16.335   1.888 -0.0205  0.1069 -0.0170
18551W        W38085   8.570  14.614  11.710  0.1958  0.1456  0.0987
18552W        W38086   5.994  12.317  14.638 -0.2463  0.1933 -0.1381
18553W        W38087   1.416   4.658   0.563 -0.0414 -0.1903  0.2388
18554W        W38088   3.638  14.260  14.734  0.0065 -0.4917 -0.1583
18555W        W38089  17.766   6.828   2.462 -0.1603 -0.0383  0.1200
18556W        W38090   4.051   2.023  10.134 -0.1180 -0.1382 -0.2000
18557W        W38091  14.293   4.453   3.444  0.0371  0.1262 -0.1900
18558W        W38092   6.793   4.051   3.564  0.2917 -0.1881  0.3717
18559W        W38093   2.244  12.272  12.589 -0.0571 -0.1564  0.3482
18560W        W38094  18.195  14.885  10.730  0.1114  0.1307  0.0210
18561W        W38095   8.815  13.039   1.636  0.2826 -0.0323  0.0413
18562W        W38096  15.909   9.976  10.329  0.1267  0.2055 -0.3778
18563W        W38097   1.182  13.865  13.643 -0.1391  0.2210 -0.1277
18564W        W38098  12.164   7.016   0.167  0.3237 -0.2646 -0.0605
18565W        W38099   9.231   5.761   4.390 -0.1410 -0.2826  0.1300
18566W        W38100  17.882  17.428   2.150  0.0943 -0.1303  0.0627
18567W        W38101  12.363  18.543   1.553  0.1818  0.1073 -0.2066
18568W        W38102   0.378   6.418  13.835 -0.4824 -0.0122  0.3199
18569W        W38103  13.526   1.759   2.719  0.2592 -0.0794 -0.4826
18570W        W38104   8.113  18.435   3.810  0.2213  0.2315 -0.0035
18571W        W38105   5.139   6.923   0.634 -0.3113  0.2150  0.1174
18572W        W38106   8.658  15.754   0.486  0.2160  0.0654 -0.1328
18573W        W38107  18.558   1.939  13.947 -0.0479 -0.0595  0.2551
18574W        W38108   4.255   6.240  14.815 -0.2644  0.1228  0.1854
18575W        W38109   4.440  13.940  11.327  0.0159 -0.1924 -0.0233
18576W        W38110  10.850   8.148  14.749 -0.0915  0.2578  0.0795
18577W        W38111  11.022  11.899  14.742 -0.1884 -0.3817  0.0751
18578W        W38112  15.416  15.507  13.284  0.3362  0.0299  0.1168
18579W        W38113   2.093  12.069   2.471  0.2123  0.2057  0.1341
18580W        W38114  11.383   7.964  12.164 -0.1864 -0.1438  0.3510
18581W        W38115  16.142   9.062  11.087  0.0618  0.0990  0.1933
18582W        W38116  14.784   9.858  11.779 -0.2024 -0.1532 -0.0729
18583W        W38117   2.093  15.657   2.726  0.3072 -0.0935  0.1727
18584W        W38118  10.543  12.553  11.489  0.1579  0.0856  0.1509
18585W        W38119  11.081  14.111   0.040 -0.1386 -0.0020 -0.0142
18586W        W38120  11.496   7.483   1.097  0.3875 -0.0340  0.2142
18587W        W38121   7.624  12.564   4.250  0.1840 -0.0493  0.0097
18588W        W38122   1.213   2.564  12.222  0.4840 -0.2760  0.4481
18589W        W38123  16.026  17.766   3.061  0.0469  0.0332 -0.0964
18590W        W38124   0.634   6.868  13.803 -0.0445 -0.1121  0.3293
18591W        W38125  12.393   0.520  11.067  0.2224 -0.2363 -0.1057
18592W        W38126  17.048  18.094  14.386 -0.1063 -0.1176 -0.2805
18593W        W38127   1.161   2.020  14.206 -0.0442 -0.0783 -0.0868
18594W        W38128  13.794  12.164   2.306 -0.1768  0.1604  0.2004
18595W        W38129   5.244  14.050   3.445 -0.1078 -0.1522  0.4267
18596W        W38130   8.665   8.710  13.930 -0.0086  0.1639  0.3320
18597W        W38131   4.799   1.678  12.331 -0.2341 -0.4874 -0.0800
18598W        W38132   7.619   2.948  13.200 -0.1333 -0.4190 -0.1726
18599W        W38133   6.095  13.621  11.692 -0.0067  0.1284 -0.2419
18600W        W38134  18.144   4.749   0.985  0.5085  0.1439  0.0958
18601W        W38135  13.888  14.146  11.240  0.3058  0.2086  0.1290
18602W        W38136   8.831  13.859  14.061  0.2423  0.3038  0.1262
18603W        W38137   3.346   2.108   1.169  0.1893  0.0541 -0.0937
18604W        W38138  16.041   6.485   2.796  0.1936  0.0466 -0.1939
18605W        W38139   9.270  14.494  14.489 -0.0258  0.2665 -0.2099
18606W        W38140  18.168  18.509   1.031  0.2922  0.2685 -0.1414
18607W        W38141  10.300  14.449   2.484  0.2138  0.0004 -0.0581
18608W        W38142   9.736  19.078   1.132  0.0836 -0.2874  0.0515
18609W        W38143  16.024  15.891  11.506  0.1285  0.0136  0.0071
18610W        W38144   9.149   5.983  13.587  0.3240 -0.0353  0.1945
18611W        W38145  16.015   1.350  12.601 -0.1063  0.0796  0.1202
18612W        W38146   5.061  13.672  13.845 -0.1388  0.0005 -0.1435
18613W        W38147   2.979   6.194  13.963 -0.0274  0.2073 -0.1652
18614W        W38148   7.530  17.439   3.375 -0.0727 -0.1817 -0.2248
18615W        W38149   4.742  14.636   3.887  0.4358  0.1138  0.1747
18616W        W38150   0.113  13.225  11.538 -0.0898  0.0355  0.1744
18617W        W38151   0.947   8.797  11.448  0.0157 -0.0071  0.3375
18618W        W38152   9.281  11.775  13.066  0.2716 -0.0620 -0.0420
18619W        W38153   1.580   0.632   0.297  0.0606  0.1412 -0.2862
18620W        W38154  10.625   8.925   4.192 -0.0989  0.1591 -0.0251
18621W        W38155  19.017  17.311   0.884  0.2341 -0.0728 -0.2626
18622W        W38156  10.013  18.515  13.401 -0.0820 -0.0224  0.0756
18623W        W38157   4.593   4.090   0.082 -0.0751  0.1411  0.3074
18624W        W38158   3.736  18.983  14.692 -0.2130  0.1439  0.1347
18625W        W38159   7.297  16.554   0.292 -0.0264  0.1575  0.1018
18626W        W38160   1.887  14.454  14.163  0.0994 -0.1359 -0.0841
18627W        W38161  17.988   3.445   1.313  0.2334 -0.1657  0.1402
18628W        W38162  10.684   6.269  12.821 -0.1631  0.0241  0.0635
18629W        W38163  17.519   9.552  12.985  0.4426  0.2174 -0.0960
18630W        W38164  15.060  16.492  12.624 -0.2102 -0.0163 -0.0020
18631W        W38165  14.749   8.196   2.230 -0.3242  0.1145 -0.0854
18632W        W38166   9.708   4.663  14.798  0.0346  0.1567  0.0743
18633W        W38167   9.588   1.204   0.359 -0.0275 -0.0855 -0.1172
18634W        W38168  18.903  16.127  10.740 -0.0560 -0.0983 -0.1259
18635W        W38169  12.324  12.408   2.100  0.3167 -0.1402 -0.0004
18636W        W38170   0.024   7.902   2.358  0.1142 -0.1115 -0.2076
18637W        W38171   3.038  13.592   0.193  0.1026  0.2511  0.4023
18638W        W38172   7.679  12.860  11.229  0.4541  0.1620 -0.3284
18639W        W38173   3.507   8.664  11.983  0.1671  0.3661  0.1552
18640W        W38174   9.464   6.825   1.608  0.1458 -0.0365 -0.0585
18641W        W38175  18.587  15.073   0.388  0.1356 -0.2751 -0.1788
18642W        W38176   7.647  10.181  11.013  0.2765 -0.1222  0.0083
18643W        W38177  16.673  13.898  10.021  0.1210  0.2373  0.1006
18644W        W38178   0.741   2.579  12.139  0.1706 -0.1617  0.0897
18645W        W38179  18.927   5.188   3.524  0.3212 -0.1380  0.1172
18646W        W38180   1.929  10.132  11.732  0.2157  0.0522  0.4813
18647W        W38181  13.946  14.149   0.842 -0.0141  0.0953 -0.2064
18648W        W38182   6.638  15.312  12.909 -0.0147  0.2689 -0.3761
18649W        W38183  12.563  13.062  12.147 -0.0532 -0.0866  0.5087
18650W        W38184  12.781   9.724   2.449  0.0332 -0.1355  0.1041
18651W        W38185  10.593  13.216  13.169 -0.2920  0.0839 -0.0018
18652W        W38186   6.187   1.017  11.606  0.0454 -0.5767  0.1114
18653W        W38187  10.041   8.923  13.076  0.2746 -0.5409 -0.0998
18654W        W38188  13.653  13.436   4.960 -0.1667  0.2110 -0.2671
18655W        W38189   3.403  17.823  12.951  0.4588 -0.1315  0.1750
18656W        W38190   4.391  14.534  13.796  0.1071  0.0289 -0.3221
18657W        W38191   8.988   9.987  11.800 -0.1360  0.0184 -0.0813
18658W        W38192   1.392  16.594  13.587 -0.2472  0.0284 -0.1849
18659W        W38193   0.995  14.548  12.125 -0.0305 -0.1356 -0.0282
18660W        W38194  10.785  13.675   3.271  0.1760 -0.0780  0.1549
18661W        W38195   0.595  16.966  13.560 -0.1036 -0.1132 -0.0351
18662W        W38196   0.691   6.245  13.099 -0.1677 -0.0142  0.2093
18663W        W38197   1.910  12.198  14.497 -0.3470  0.2278 -0.4695
18664W        W38198   4.568   2.811  12.592 -0.0455  0.0145  0.0621
18665W        W38199   9.554   7.151   0.258 -0.4105 -0.2254 -0.1930
18666W        W38200   0.524  18.358  12.597 -0.0828 -0.1530 -0.1088
18667W        W38201   7.806  16.997  10.832  0.0430 -0.0999  0.0919
18668W        W38202  13.609   9.752   0.306 -0.1129  0.1470 -0.1830
18669W        W38203   3.390   4.344  12.986 -0.0537  0.0009 -0.0510
18670W        W38204   5.417  12.891   0.042  0.0555 -0.1089  0.0518
18671W        W38205   9.308  18.692   1.241 -0.3163  0.1063 -0.3187
18672W        W38206  18.117  18.995  10.751  0.2096  0.1244 -0.1360
18673W        W38207   5.317   1.874   0.138 -0.0266 -0.3513 -0.1381
18674W        W38208  17.135  17.260   1.627 -0.2469 -0.1374 -0.1220
18675W        W38209  12.526  13.546  11.905  0.0794 -0.2589  0.0862
18676W        W38210   5.412  13.857   2.118 -0.0877  0.1198  0.0734
18677W        W38211   7.284   8.538   3.116 -0.0207  0.0350 -0.0980
18678W        W38212   9.742  11.156   9.524  0.0818 -0.0983  0.1889
18679W        W38213   9.311   1.560   3.343 -0.1617  0.2563  0.4259
18680W        W38214  11.120  14.442  12.335  0.0019 -0.2324  0.0978
18681W        W38215  11.276   9.242   2.497 -0.0572  0.0068 -0.0983
18682W        W38216   5.005   4.707  12.769 -0.0669  0.0477 -0.5523
18683W        W38217  14.726   0.216  13.735  0.0653  0.3698  0.0029
18684W        W38218   5.157  12.587  14.110  0.1992  0.1719 -0.2212
18685W        W38219   9.247   7.064  14.150  0.0807  0.0920  0.6213
18686W        W38220  15.377  18.651   0.286  0.1868  0.3493 -0.0402
18687W        W38221   2.420   8.640   3.659 -0.0814  0.4525 -0.2168
18688W        W38222  16.869  12.295  12.945  0.0138 -0.2514 -0.0229
18689W        W38223   2.361   0.540   2.631 -0.2248  0.0023 -0.0329
18690W        W38224  10.887   6.327  11.452  0.3098 -0.0343 -0.0542
18691W        W38225  15.101  14.493   0.130 -0.2646  0.3223  0.0211
18692W        W38226   9.474  11.809   2.974  0.1453  0.2385 -0.2084
18693W        W38227  12.343   6.055  14.633 -0.0755 -0.0250 -0.2542
18694W        W38228  12.027   1.295   0.918 -0.0275 -0.1006 -0.1585
18695W        W38229  13.284   7.969  13.007 -0.0117 -0.3790  0.0078
18696W        W38230  10.678   8.767   2.321  0.2447 -0.1118  0.0558
18697W        W38231  16.802   7.857   5.026 -0.0934  0.1366  0.0833
18698W        W38232   4.362   8.571   2.090  0.0306  0.1431  0.2863
18699W        W38233  14.252  14.519   2.296  0.0885 -0.0381 -0.1878
18700W        W38234   4.077  13.306  12.019 -0.0751  0.0776 -0.0250
18701W        W38235   5.323  18.003  12.876  0.1403  0.0823 -0.0259
18702W        W38236  16.900  12.844   4.163  0.1052  0.0244 -0.0440
18703W        W38237  15.367  13.803   4.210 -0.1782 -0.3465  0.0474
18704W        W38238  12.159   6.623   1.910  0.0296 -0.3359  0.0144
18705W        W38239  13.433   1.050   2.133 -0.3489  0.3060  0.2699
18706W        W38240   5.273   2.638  11.853  0.3855  0.0615  0.3700
18707W        W38241   7.212  10.861  13.709 -0.2832  0.0374 -0.1037
18708W        W38242   3.596  13.871   2.770 -0.3314 -0.0622  0.0158
18709W        W38243   9.753  10.772  13.172  0.1750  0.0402  0.0157
18710W        W38244   6.547   3.982  10.812 -0.0716  0.0405 -0.0067
18711W        W38245  10.807   9.744   3.572 -0.0805 -0.1470  0.2503
18712W        W38246  18.241   9.599  11.523  0.0148  0.0896  0.3286
18713W        W38247  13.380   5.160   1.561  0.2014  0.1044 -0.0957
18714W        W38248   8.030  10.698  10.280 -0.4941  0.2559 -0.0172
18715W        W38249   3.223   5.794   1.250 -0.1384  0.0782 -0.1556
18716W        W38250  17.847   4.325   1.623  0.3359  0.0976  0.0918
18717W        W38251   2.823  18.224   3.343  0.1200  0.3479 -0.2088
18718W        W38252   7.623  16.113   1.628 -0.0426  0.3310 -0.2500
18719W        W38253   1.659  12.589  14.079  0.3249 -0.1857  0.1220
18720W        W38254   9.093   1.467   2.531  0.1709  0.0725  0.2126
18721W        W38255   4.696  12.218  12.427  0.0470  0.0968  0.0396
18722W        W38256   2.347   5.704  12.524 -0.1200  0.0349  0.1921
18723W        W38257   4.422   5.909   0.321 -0.1330 -0.5112 -0.2649
18724W        W38258  18.175   1.994   0.024 -0.0208 -0.3177 -0.1694
18725W        W38259   5.093   9.725  11.893  0.0142 -0.1112  0.0891
18726W        W38260  11.106   8.617  11.024 -0.0056 -0.0855 -0.0542
18727W        W38261  15.522   2.815   3.068 -0.0225  0.0065  0.1500
18728W        W38262  12.620   7.896  11.663 -0.2634  0.1899 -0.0044
18729W        W38263   2.972   5.202   3.382  0.0190  0.2835  0.3248
18730W        W38264  17.952  11.519   0.086 -0.0569 -0.0521  0.0606
18731W        W38265   9.122   6.148   3.464  0.0855 -0.3675 -0.3268
18732W        W38266   2.175  13.777  13.757  0.0402 -0.0775 -0.1022
18733W        W38267  17.616   1.525   3.409  0.3373  0.0337 -0.4501
18734W        W38268  13.991   1.651  13.305 -0.1070 -0.1364  0.2854
18735W        W38269   5.828  13.855  13.172  0.1708  0.1263 -0.0254
18736W        W38270  18.549  13.350   3.498  0.1485  0.0424  0.2856
18737W        W38271   6.105   7.279  14.373  0.1036  0.3143 -0.0156
18738W        W38272  17.610  12.636   0.885  0.1758 -0.0572  0.1277
18739W        W38273   1.034  10.744   0.949 -0.1516 -0.1752 -0.1063
18740W        W38274   2.355   0.872  12.608  0.2834 -0.1126 -0.3008
18741W        W38275   0.776   9.852  12.401  0.2140 -0.2388  0.0986
18742W        W38276   9.225  16.239   3.178 -0.0324  0.1735  0.1432
18743W        W38277  12.634   5.763   2.881  0.2853  0.0557  0.2602
18744W        W38278   4.571   9.940  11.833  0.0162  0.0627  0.0908
18745W        W38279   0.807   9.901   2.007  0.1091  0.2518  0.0166
18746W        W38280  12.078   7.256  11.530  0.3499  0.0006  0.1302
18747W        W38281   3.604  14.283  12.643  0.0138  0.1470 -0.0779
18748W        W38282   7.705  12.048   1.187  0.2678  0.0767  0.0223
18749W        W38283  15.076  19.070  10.193  0.1287 -0.1876  0.1387
18750W        W38284  18.050   6.549  13.306  0.0815  0.0131  0.1359
18751W        W38285  15.635  13.294  11.470  0.3329 -0.1062 -0.0584
18752W        W38286  18.140   1.788   1.426  0.3856  0.1243 -0.4573
18753W        W38287   6.129  13.652  12.291  0.1355 -0.2518 -0.0808
18754W        W38288  10.455   3.084  10.920 -0.2341 -0.0924 -0.1033
18755W        W38289  10.602   8.128  12.265 -0.1165 -0.3613 -0.0251
18756W        W38290  10.072  12.792   2.007  0.0050  0.3271 -0.0103
18757W        W38291   2.596   1.999  11.802 -0.0745 -0.0955 -0.1378
18758W        W38292   6.136  11.859  11.309  0.1308 -0.1065  0.1125
18759W        W38293  10.732  16.352   3.393 -0.0362  0.2297 -0.0978
18760W        W38294  16.632  16.074   4.175  0.0271 -0.0587  0.2710
18761W        W38295  17.415  11.475   4.060  0.0745 -0.0677 -0.1147
18762W        W38296   5.304  16.930  14.805  0.2369 -0.1255  0.1425
18763W        W38297  14.841  18.344  13.919 -0.0835 -0.2390  0.2129
18764W        W38298  18.901  18.835   2.341  0.3387 -0.1024  0.0469
18765W        W38299   6.534  17.078  12.619  0.0971 -0.1341  0.2034
18766W        W38300   4.033   9.029  11.893 -0.4463  0.1301 -0.3494
18767W        W38301  12.918  12.823   0.128  0.0290  0.1157  0.2180
18768W        W38302  14.484   9.504  11.197  0.1651  0.1921  0.0142
18769W        W38303  10.810   2.941   3.750  0.0701  0.0174  0.2183
18770W        W38304   9.664  16.402   2.309 -0.2663 -0.1735  0.0129
18771W        W38305  13.966  13.256  12.748 -0.0607 -0.0165  0.1479
18772W        W38306  17.378  18.589  10.319 -0.2743 -0.1505 -0.1572
18773W        W38307   9.653  14.151   3.606 -0.0126  0.0539 -0.4230
18774W        W38308  16.668  12.848   3.168  0.1053  0.1213 -0.0572
18775W        W38309  11.641   7.137   0.359 -0.1696 -0.0088  0.2781
18776W        W38310  11.604  16.017   3.409 -0.1544 -0.1921 -0.1061
18777W        W38311   2.620  11.615  11.904 -0.1658 -0.1702 -0.0121
18778W        W38312   9.509  10.286  12.089 -0.3785  0.1395 -0.1477
18779W        W38313  12.606   8.973   0.545 -0.0518 -0.1072  0.0547
18780W        W38314   8.274  19.015  10.699 -0.0755  0.0392  0.1491
18781W        W38315   8.989   5.733   3.874  0.1259  0.0479 -0.1285
18782W        W38316   7.123  16.153  12.572  0.0165  0.3299 -0.0755
18783W        W38317   9.828   4.113   1.137 -0.2997 -0.0936  0.0416
18784W        W38318   1.936  11.725  14.623  0.1706  0.2795  0.1992
18785W        W38319   6.901   8.317   3.909 -0.1856 -0.0977  0.3320
18786W        W38320  10.488   1.098   0.732  0.0131 -0.2102  0.2810
18787W        W38321   2.233   2.933  11.373 -0.2905 -0.1044 -0.2314
18788W        W38322  13.347   9.682   2.354 -0.1598 -0.2427  0.3021
18789W        W38323  12.577  14.092   0.198 -0.1055  0.1046  0.0485
18790W        W38324   0.934  18.116  12.341  0.0040  0.1609 -0.0730
18791W        W38325  17.211   4.825   0.341 -0.1193 -0.1219 -0.0819
18792W        W38326  18.051   2.415  14.611  0.1397 -0.0050  0.1387
18793W        W38327   8.366  14.661  11.005 -0.1889 -0.4458  0.0771
18794W        W38328   2.826   6.206   1.280  0.1405  0.1068  0.0917
18795W        W38329  10.420  11.073  14.567  0.0462 -0.0608 -0.0878
18796W        W38330  16.454   6.266   3.235 -0.0656 -0.1378 -0.1562
18797W        W38331   0.619  15.269   0.613 -0.1588  0.2130  0.0343
18798W        W38332  11.509   8.772   3.350 -0.1809  0.2232  0.0861
18799W        W38333   0.413  12.586  14.416 -0.2113  0.0610  0.0393
18800W        W38334  10.571  13.222   1.198  0.2090  0.0385 -0.1394
18801W        W38335  17.791   7.156  11.915 -0.1098 -0.0413 -0.2113
18802W        W38336  17.361   1.068  12.770 -0.0041  0.0991  0.2373
18803W        W38337   2.965   4.626   2.669 -0.1735  0.0818  0.0594
18804W        W38338  15.170   1.511  14.097  0.5404  0.1659 -0.2027
18805W        W38339  15.508  17.896  12.517  0.2531  0.1038  0.2574
18806W        W38340  16.268  18.446   1.939  0.1374 -0.0765 -0.0750
18807W        W38341  15.297  13.685  11.739 -0.0011 -0.1681  0.1697
18808W        W38342  12.542   4.145  13.138 -0.0166 -0.0962 -0.0112
18809W        W38343  16.663   7.586   2.066  0.0021  0.0471 -0.0260
18810W        W38344   5.990  14.815   0.457  0.0514 -0.0937  0.0351
18811W        W38345   6.443   3.631   9.134 -0.3329  0.1431 -0.1003
18812W        W38346  17.977  10.447   3.968  0.1465 -0.0652  0.1131
18813W        W38347   8.110   0.696   1.458  0.0382 -0.0322  0.2485
18814W        W38348  15.728   8.634   1.033  0.0011 -0.2972  0.0470
18815W        W38349  14.036  12.070   0.362  0.1021  0.1025 -0.0427
18816W        W38350   5.122  11.602  11.441 -0.0645 -0.0793  0.2664
18817W        W38351   6.957   4.902   0.969 -0.1773 -0.1807 -0.3076
18818W        W38352  11.749  13.567   3.478 -0.0248 -0.0002 -0.1048
18819W        W38353   4.390   0.518   4.196  0.3247  0.1019  0.1810
18820W        W38354   6.244  13.484  12.898  0.0285  0.1083 -0.3739
18821W        W38355  14.387  10.615  12.781  0.4658  0.1305  0.0641
18822W        W38356  16.253   4.391  11.825  0.0502 -0.1792  0.0254
18823W        W38357  18.967   7.982  14.394 -0.1711  0.0611  0.2081
18824W        W38358  15.020  18.932   3.000  0.0218  0.1737  0.1680
18825W        W38359  11.945  11.681   0.227 -0.0674 -0.1143  0.2598
18826W        W38360  12.744  11.727  11.923 -0.1070  0.2430  0.1370
18827W        W38361  16.672  10.572   0.353 -0.0888  0.2289 -0.0731
18828W        W38362  14.940   7.438   0.640  0.0709  0.0995  0.0281
18829W        W38363  10.538  12.671   2.069  0.0672  0.3389  0.0205
18830W        W38364   7.468   3.751  12.706 -0.1511 -0.2122 -0.0622
18831W        W38365  10.770  10.222  11.394  0.1368  0.0366 -0.1772
18832W        W38366   6.919  17.804  12.167 -0.2124 -0.1176 -0.0601
18833W        W38367   9.179   3.500   2.350  0.1025 -0.2265 -0.2676
18834W        W38368   5.252  15.941  13.421 -0.3561  0.2675 -0.0654
18835W        W38369  16.867   0.412   4.388 -0.0631  0.0254  0.1207
18836W        W38370   4.513  12.646   3.874  0.0528 -0.2487  0.3112
18837W        W38371  13.085   7.383  13.781 -0.4069  0.0886  0.2138
18838W        W38372  17.136   4.220  13.680 -0.0341  0.0374  0.2238
18839W        W38373   9.530   2.413   3.066 -0.0120 -0.3046  0.1418
18840W        W38374   3.214  18.765   4.108  0.1585 -0.1475 -0.4171
18841W        W38375  17.312  17.521   4.257  0.1752  0.2144  0.2419
18842W        W38376  18.759   3.341   1.082 -0.1667 -0.0797  0.0816
18843W        W38377  10.790  16.593   3.842 -0.0517 -0.2899 -0.1114
18844W        W38378  10.225  16.737  10.005 -0.2165 -0.0586 -0.0995
18845W        W38379   2.244  14.736  13.117  0.3729  0.0535  0.1286
18846W        W38380   4.213  12.112  13.961 -0.1899  0.1877  0.0323
18847W        W38381   1.895  13.771  11.555  0.2467 -0.2439  0.0800
18848W        W38382  15.737  11.365  13.938 -0.4206  0.0006  0.0836
18849W        W38383   4.668  17.889   0.517 -0.3371 -0.1040  0.1507
18850W        W38384   3.146  16.561   4.129 -0.2174  0.0386 -0.3461
18851W        W38385  18.531  16.576   2.990 -0.1118 -0.0141 -0.0143
18852W        W38386   8.787   0.920  11.026 -0.1030  0.1032 -0.4577
18853W        W38387   5.644  15.959   3.100 -0.3420  0.1178  0.3438
18854W        W38388  10.015  18.246  12.080 -0.1571 -0.0385  0.1172
18855W        W38389   8.721  13.714  11.582  0.0929 -0.2032 -0.1381
18856W        W38390  12.443  19.093  11.033  0.0002 -0.0853  0.2516
18857W        W38391   3.657  17.009  12.314 -0.0300 -0.0055 -0.1685
18858W        W38392  10.652   3.110   1.192 -0.1138  0.2146  0.3143
18859W        W38393  11.313   8.755   1.667  0.1295 -0.1009 -0.0921
18860W        W38394   2.733  15.742   1.475  0.0082 -0.1319  0.4550
18861W        W38395  14.518   0.664  11.186  0.0024 -0.1436  0.0013
18862W        W38396   2.741   3.544  12.265  0.0860 -0.1527  0.0601
18863W        W38397  12.022  18.737   1.284 -0.0568 -0.1463  0.1410
18864W        W38398  13.304   4.348  14.790  0.1148 -0.2431 -0.0207
18865W        W38399  16.945  14.626   2.622 -0.0315  0.0987 -0.0083
18866W        W38400   1.705   3.391  12.363  0.1354  0.0334  0.3513
18867W        W38401  13.891  13.364   3.967 -0.1180 -0.0383 -0.2969
18868W        W38402  18.391   7.298   0.696 -0.1427  0.1929 -0.1560
18869W        W38403  13.656   8.023  11.222 -0.0263 -0.1148 -0.0110
18870W        W38404   2.183   4.433   0.581  0.4589  0.1004 -0.2383
18871W        W38405   3.953  10.610  13.057 -0.0805  0.2631 -0.0995
18872W        W38406  11.914   9.521   1.555 -0.2747 -0.1168 -0.2286
18873W        W38407   6.453   2.072  11.722 -0.2556 -0.1624 -0.2146
18874W        W38408   9.233   3.168   2.722 -0.2118 -0.0359 -0.0089
18875W        W38409  14.436   8.820   1.087 -0.2091  0.1079  0.3038
18876W        W38410  11.370  18.825   3.061 -0.2665  0.2153 -0.0867
18877W        W38411   3.614   0.804  13.271 -0.1027  0.2664 -0.1854
18878W        W38412   4.010   4.441   4.071 -0.0338 -0.0629  0.1233
18879W        W38413  13.986   8.080   3.825 -0.0775 -0.1025 -0.4877
18880W        W38414  14.958   9.543   1.028  0.0531  0.0060  0.3497
18881W        W38415  14.087  11.907  13.771  0.3394 -0.0298  0.2365
18882W        W38416  11.967   6.342  14.506 -0.3229  0.1695  0.0567
18883W        W38417  15.132  12.958  13.357  0.3818 -0.1799 -0.1352
18884W        W38418   3.835  11.136   2.039  0.1428  0.2510 -0.1521
18885W        W38419   4.546  15.369  12.522  0.2660  0.1853  0.1853
18886W        W38420  18.249  10.686  10.508  0.1205  0.1843  0.3626
18887W        W38421   7.152   7.321   0.002  0.0985  0.1499  0.1709
18888W        W38422   3.220  18.451   2.858 -0.1695  0.1267 -0.0775
18889W        W38423   1.938  10.992   0.807 -0.5169  0.0705 -0.1784
18890W        W38424   9.440   8.265  12.648  0.0920  0.0992 -0.3350
18891W        W38425   8.574  15.262   1.509 -0.0419  0.2154 -0.1434
18892W        W38426  16.502  13.351  14.234 -0.1127 -0.0233 -0.1728
18893W        W38427   7.542   8.658  11.741 -0.4181  0.1370 -0.0905
18894W        W38428   0.464   5.173  11.706 -0.1362 -0.2017 -0.2552
18895W        W38429   5.423  13.227   5.000 -0.1637 -0.0430  0.0087
18896W        W38430  14.526   7.497  11.144  0.2990  0.2045 -0.0551
18897W        W38431  17.439   3.686  14.800  0.0987  0.0186 -0.3533
18898W        W38432   1.241   1.432   0.261 -0.1041  0.0817  0.2275
18899W        W38433   6.810   1.559  14.525 -0.3121  0.0248  0.0034
18900W        W38434   1.257  17.779  10.584  0.0503 -0.0619  0.0962
18901W        W38435   8.477   2.176   0.924  0.0643 -0.0285  0.2194
18902W        W38436   3.212  12.845  11.162  0.1105 -0.2357 -0.4116
18903W        W38437   2.901   8.809  10.648  0.0501 -0.0951 -0.1840
18904W        W38438  12.895  15.630  14.167  0.0425 -0.0495 -0.1204
18905W        W38439   9.964  16.207  11.744 -0.2274 -0.1501  0.0759
18906W        W38440  10.496  12.630   3.759  0.1583  0.2399  0.0020
18907W        W38441  15.150   7.660  14.496  0.1512 -0.0731 -0.2274
18908W        W38442   5.573  14.541   4.450 -0.2371  0.2346  0.1095
18909W        W38443   4.658  12.784   0.671  0.0912  0.3173 -0.1075
18910W        W38444   7.370   6.031   2.440  0.1015  0.2695  0.2009
18911W        W38445   7.206   2.097  12.428  0.1190  0.1609  0.0365
18912W        W38446  12.821   9.492  13.250 -0.0838  0.1567 -0.1181
18913W        W38447  15.986  15.098  12.052  0.0716 -0.2730  0.0110
18914W        W38448  10.003   4.641   4.418 -0.0579  0.2428  0.0795
18915W        W38449   5.676  11.780  11.480 -0.2128  0.0127 -0.1781
18916W        W38450   8.704   3.813   0.264 -0.2508  0.1795 -0.0886
18917W        W38451  13.408  18.744   2.666 -0.1406  0.0570 -0.1241
18918W        W38452   9.470   4.071  11.238  0.2519 -0.0334  0.2833
18919W        W38453   0.911  16.934  10.989  0.3134 -0.2351 -0.0127
18920W        W38454  13.236   8.428  13.186 -0.0763  0.2004 -0.3900
18921W        W38455   7.378   9.042  13.937  0.0362 -0.0272  0.2249
18922W        W38456   2.607   1.236   3.341 -0.0807  0.1381 -0.0383
18923W        W38457   1.651  19.013  13.715 -0.2168 -0.3404 -0.1872
18924W        W38458  15.623  13.259  13.297 -0.0347  0.0474 -0.1592
18925W        W38459  12.909   6.150  11.279  0.0701 -0.1408  0.2589
18926W        W38460   8.278  13.010  10.418  0.2116 -0.1826  0.2388
18927W        W38461  13.117  19.024   3.465  0.1006  0.1867  0.1710
18928W        W38462   7.911  15.949   3.981  0.2502  0.1393  0.1584
18929W        W38463   7.053  10.803  14.557 -0.3033  0.2292 -0.3353
18930W        W38464  14.626   2.919  10.613 -0.1240  0.2584 -0.0067
18931W        W38465  17.016   8.963  11.373  0.2078  0.0926  0.3535
18932W        W38466   4.148   6.734  14.492  0.1247 -0.0336  0.2832
18933W        W38467   6.340   6.449   2.398 -0.0246  0.0695 -0.1249
18934W        W38468  10.761   0.363   1.316 -0.3745  0.1313  0.0303
18935W        W38469   0.991   4.307  12.442  0.0283 -0.0497 -0.1126
18936W        W38470  13.765  12.197  12.050  0.0436  0.0545 -0.4058
18937W        W38471   1.960  16.015  11.219 -0.0593  0.0712  0.0564
18938W        W38472   9.704   2.470  13.121  0.2607  0.2086 -0.2888
18939W        W38473  18.254   3.258   3.475  0.1843 -0.0190  0.3854
18940W        W38474   4.582   7.133  14.259  0.0184  0.1575 -0.1555
18941W        W38475   4.282   9.351   1.582 -0.1636 -0.3360  0.0298
18942W        W38476   7.964   5.077   3.082 -0.0501 -0.3099  0.2395
18943W        W38477  17.821   9.472  11.154  0.1174  0.4033 -0.3008
18944W        W38478   3.192  15.882   0.331  0.1511  0.1080 -0.1212
18945W        W38479   4.373   5.553  12.998  0.2286 -0.2542  0.0911
18946W        W38480   4.958   6.312  12.236  0.1427  0.1401 -0.2166
18947W        W38481   7.875   0.246  10.789 -0.2346 -0.0063  0.1149
18948W        W38482  16.359  13.198   2.941  0.0276  0.0223 -0.0022
18949W        W38483  14.653  15.592   1.586  0.0895  0.0543 -0.0745
18950W        W38484   8.495   6.358   3.060 -0.0343 -0.0669 -0.2843
18951W        W38485   7.068   7.016   9.618  0.3439 -0.0846 -0.2688
18952W        W38486   8.842  10.978   4.093  0.3876 -0.1617 -0.0531
18953W        W38487  10.517  17.628  12.576  0.1198  0.0728  0.0611
18954W        W38488  11.286   5.703   4.133 -0.0185 -0.0719 -0.2085
18955W        W38489   0.644   1.131   0.878 -0.1061  0.2865 -0.0443
18956W        W38490   3.985  15.884  13.036  0.1167 -0.4203  0.1421
18957W        W38491   1.462  14.009   3.319  0.0819 -0.1326  0.0415
18958W        W38492   7.279  10.537   1.465 -0.2339 -0.1309 -0.1167
18959W        W38493   3.623   7.091   2.803 -0.2153 -0.2570  0.0084
18960W        W38494  10.855   9.496   0.071  0.4172  0.0829 -0.1854
18961W        W38495  15.334   2.498   4.048 -0.0438  0.1159 -0.0284
18962W        W38496   0.495  19.085   0.878  0.1941 -0.0287  0.0618
18963W        W38497  12.354   9.284   3.638 -0.2422  0.3179 -0.1809
18964W        W38498   3.437   0.627  11.201 -0.0301  0.1046  0.1886
18965W        W38499   1.898  16.724  12.354  0.1020 -0.0658 -0.0708
18966W        W38500   6.516  12.558  14.695  0.4016  0.0872 -0.0821
18967W        W38501  11.239  15.461  13.243  0.0355 -0.3160 -0.0955
18968W        W38502  12.775  11.443   1.473  0.0183 -0.3504  0.2064
18969W        W38503   7.622   1.379   3.814 -0.2790 -0.0593  0.2167
18970W        W38504   9.798   8.634  11.548  0.0733 -0.0201 -0.2634
18971W        W38505  12.432   0.265   1.985  0.1910 -0.2473  0.0959
18972W        W38506  15.566   5.514   4.365 -0.2194 -0.1295 -0.2704
18973W        W38507  14.641  16.021   5.089 -0.0014 -0.0500 -0.1797
18974W        W38508   4.576   5.493  13.851 -0.1181  0.3406  0.1502
18975W        W38509   9.696  13.778  14.541  0.0421 -0.0856  0.2170
18976W        W38510   9.632   7.658   0.063  0.0364  0.2186 -0.2045
18977W        W38511  10.430  18.566  12.161 -0.1354 -0.2790  0.2046
18978W        W38512   5.163  13.485  12.124 -0.0583  0.2005  0.3110
18979W        W38513   3.401  10.845  12.760  0.0755  0.0544 -0.0868
18980W        W38514   0.347   0.407   1.900 -0.0875 -0.0467 -0.0849
18981W        W38515  10.502  17.716  14.276 -0.0289 -0.0312  0.0042
18982W        W38516  16.948   4.945   9.500 -0.0957  0.2104  0.2138
18983W        W38517   1.984  14.855   1.603  0.1755  0.0079  0.3287
18984W        W38518   3.086   7.207  13.456 -0.1833  0.1667  0.2601
18985W        W38519   8.774   8.882  14.659  0.1097  0.2584  0.0787
18986W        W38520   2.290  13.017   0.348  0.1374 -0.0664 -0.1798
18987W        W38521  17.136  10.820   0.397 -0.3054 -0.0558  0.2164
18988W        W38522  18.466   2.222   9.376 -0.1106 -0.1972  0.0904
18989W        W38523  12.131   0.214   0.073  0.0832  0.0198 -0.0746
18990W        W38524   3.849  14.712   2.761  0.2209  0.2140 -0.3021
18991W        W38525   6.093   4.527  11.400  0.2489  0.1973 -0.0416
18992W        W38526  16.653   3.038   3.996  0.1390  0.3264  0.4654
18993W        W38527   0.557   3.111   1.275 -0.0384 -0.4808  0.0526
18994W        W38528   5.404   9.835  11.428 -0.0470 -0.2585  0.0679
18995W        W38529   5.838   6.282  11.969 -0.2236 -0.0404 -0.1488
18996W        W38530   6.045  13.157  10.967 -0.1276 -0.1293 -0.1689
18997W        W38531   2.336   5.407  12.133  0.1763  0.0869  0.2183
18998W        W38532   8.942   9.079  12.436 -0.3537  0.0952 -0.2451
18999W        W38533  11.150  17.314  14.721  0.0460  0.1006  0.3853
19000W        W38534  14.305   7.342  14.224 -0.1153 -0.0226  0.0300
19001W        W38535   6.588  14.323  12.236 -0.3745  0.2293 -0.0317
19002W        W38536   9.271   4.201  13.861 -0.3053  0.0049  0.1317
19003W        W38537   2.788  17.261   0.418 -0.5335 -0.1022 -0.0353
19004W        W38538  17.001   8.695  12.135 -0.3694  0.1430 -0.2374
19005W        W38539  18.587   7.693   0.976  0.0754 -0.3595  0.1345
19006W        W38540  15.626  18.459   2.766  0.0963  0.2482  0.0678
19007W        W38541  10.266  15.816  11.960 -0.2519  0.2070  0.1956
19008W        W38542  15.652   8.060   3.150 -0.0014  0.1581 -0.0102
19009W        W38543   9.561   4.380  11.647  0.0397  0.0509  0.0384
19010W        W38544   5.782  11.368  13.058 -0.3205 -0.3293 -0.4399
19011W        W38545  18.003   0.841   2.026  0.0730  0.0562 -0.2456
19012W        W38546  18.338   8.589  13.575  0.0712 -0.2559 -0.0274
19013W        W38547  13.033  10.568  12.615  0.1295  0.2086  0.0103
19014W        W38548  11.764  12.588  10.983 -0.2328  0.1150 -0.3351
19015W        W38549   4.791  15.798   1.428 -0.0471  0.3768 -0.1541
19016W        W38550   5.185   5.151  12.594  0.0895  0.0887 -0.0573
19017W        W38551   3.066   6.297   3.753 -0.0017 -0.0295  0.0371
19018W        W38552  17.260  11.069  11.137 -0.1435  0.1267 -0.5161
19019W        W38553  12.872   0.579   3.755  0.2664  0.0608  0.1766
19020W        W38554  16.199   9.697  11.474 -0.0766 -0.1943  0.4401
19021W        W38555   2.536  15.131  14.704  0.0955  0.3036  0.0459
19022W        W38556   3.442   6.108   0.681 -0.0656  0.1603 -0.3790
19023W        W38557   4.982  17.329  12.152 -0.1021 -0.0583 -0.2442
19024W        W38558   9.718   9.382  13.890  0.3003  0.1201 -0.0016
19025W        W38559  14.573   0.831  13.808 -0.3963 -0.2177  0.0343
19026W        W38560   3.695  13.493   1.530 -0.0045 -0.1004 -0.0859
19027W        W38561  13.007   1.629  12.632 -0.3235  0.0533  0.2576
19028W        W38562  13.918   3.828   2.891  0.5493 -0.0529 -0.1339
19029W        W38563   7.902  18.003  10.827  0.0725  0.0975  0.1076
19030W        W38564   4.411  18.138   0.148  0.1862  0.2289  0.0504
19031W        W38565   8.280   9.656  13.606  0.0514  0.1530  0.1113
19032W        W38566   4.534  18.704  12.098 -0.2102 -0.1446  0.0276
19033W        W38567   6.597  17.387  13.008  0.0862  0.3034 -0.1003
19034W        W38568   2.869   7.769   2.428 -0.0696  0.1117  0.0484
19035W        W38569   0.302  10.568  14.142 -0.1360 -0.0256 -0.1170
19036W        W38570   4.209   0.465  12.342 -0.1303  0.1454 -0.2501
19037W        W38571   3.399   3.256   3.955 -0.0366 -0.0345 -0.2012
19038W        W38572  10.969  10.968   4.666 -0.0980  0.1691 -0.2201
19039W        W38573   8.326   6.201   1.048 -0.2971 -0.3270 -0.2558
19040W        W38574  10.994  11.120  13.958  0.1782 -0.0807  0.5172
19041W        W38575  10.079  13.435  14.716 -0.1173  0.0560  0.4344
19042W        W38576   0.923   9.851   1.122 -0.0351 -0.1493  0.0257
19043W        W38577   7.907  11.534  10.514  0.1860  0.0163 -0.1017
19044W        W38578  11.013   1.734   1.391  0.1715 -0.2272  0.0351
19045W        W38579   7.888   0.726   5.082 -0.0038  0.0414  0.5131
19046W        W38580  11.427  18.630   1.713 -0.1467 -0.0163 -0.0907
19047W        W38581   3.163  10.728  11.219 -0.0392 -0.2674  0.3860
19048W        W38582  16.429  18.971   2.741  0.0154  0.1299 -0.3073
19049W        W38583   4.131   6.692   0.859  0.0003 -0.1809 -0.3384
19050W        W38584   0.216   1.131   1.182  0.0045  0.0850 -0.2311
19051W        W38585   1.350   6.104   0.286  0.4415  0.0479 -0.0367
19052W        W38586  18.649  15.393   2.902 -0.0197  0.1916  0.3124
19053W        W38587  17.104   3.833  14.257 -0.0527 -0.3131  0.0780
19054W        W38588   4.085   8.043   2.904  0.1395  0.0324 -0.2030
19055W        W38589   1.078  16.708   1.533 -0.3890  0.2329  0.0880
19056W        W38590   7.226  11.537  11.073  0.2218  0.0285 -0.0584
19057W        W38591   9.736  14.171  12.728  0.0337  0.1124 -0.1691
19058W        W38592   0.285   0.180   3.770 -0.1533 -0.2940 -0.1565
19059W        W38593   5.754   0.110   1.653 -0.2023  0.4096  0.2301
19060W        W38594  14.802   6.904  11.216 -0.1679 -0.4478 -0.0465
19061W        W38595   6.690   9.279  14.499  0.1553  0.0340 -0.1179
19062W        W38596   3.018   3.250  14.070 -0.0617  0.0767  0.3132
19063W        W38597   6.055   7.309  13.879 -0.2410  0.3885 -0.2885
19064W        W38598  12.582  14.657   2.972 -0.1503 -0.0844  0.0497
19065W        W38599   3.730   4.791   2.884  0.1943 -0.1816 -0.2698
19066W        W38600  17.141   0.468   2.528 -0.4609  0.0775  0.2509
19067W        W38601  17.297  12.478  12.855 -0.1980  0.2642  0.0828
19068W        W38602   4.229  18.142   2.919 -0.1336  0.0735  0.3833
19069W        W38603   6.283   3.122  10.295 -0.0254  0.1633  0.1702
19070W        W38604   8.761  15.644  13.272 -0.0361  0.0256  0.2927
19071W        W38605   2.254  17.542  11.445  0.3530 -0.0941 -0.0983
19072W        W38606  13.028   2.091  14.002 -0.3843  0.0702 -0.2478
19073W        W38607   6.688   0.151  10.339 -0.1070 -0.0503  0.1695
19074W        W38608   9.440  15.031   2.688 -0.2549  0.0161  0.0623
19075W        W38609  17.750   6.806   3.873 -0.2115  0.1493 -0.3770
19076W        W38610   1.250  15.974  14.350 -0.0734  0.0950  0.0810
19077W        W38611   7.251   5.320   3.402 -0.0286 -0.2906  0.0206
19078W        W38612   0.582   8.556  11.135  0.2968  0.1273 -0.1540
19079W        W38613   2.013   2.750   3.367  0.1494 -0.0205  0.1651
19080W        W38614  10.381  11.549   0.698 -0.3527  0.2400  0.0963
19081W        W38615  12.328  14.660  12.714 -0.3492 -0.2027 -0.1914
19082W        W38616  18.870  13.816  10.847 -0.1252  0.2477  0.1203
19083W        W38617   3.319   4.927   0.199  0.1668 -0.0998 -0.0721
19084W        W38618   1.647   8.592   0.305  0.0575 -0.2037 -0.1075
19085W        W38619  10.190  16.460  11.366 -0.0268  0.0634  0.0051
19086W        W38620  17.243  16.926  12.792  0.1031  0.0511  0.1610
19087W        W38621  13.854  14.480  11.646 -0.0174  0.0406 -0.0358
19088W        W38622  11.504  17.928   1.220  0.0872  0.1052  0.0474
19089W        W38623  16.312  15.436  14.554 -0.0815 -0.0709 -0.2235
19090W        W38624   9.301   1.511  11.650  0.0235 -0.0110 -0.1064
19091W        W38625   1.233  12.406   2.663  0.0089  0.1324 -0.2635
19092W        W38626  10.624  16.705  12.135 -0.0907 -0.1982 -0.1579
19093W        W38627   9.647  18.019  12.712 -0.1036 -0.0493 -0.2176
19094W        W38628  18.354   7.684   3.319 -0.2627  0.1890 -0.2422
19095W        W38629  16.389  13.894   1.327  0.0116 -0.1233  0.0344
19096W        W38630   2.799   2.822  11.850  0.0920  0.1764  0.2599
19097W        W38631   4.137   4.892   4.252  0.1519  0.0546  0.2575
19098W        W38632   0.136   3.745  12.913 -0.0833 -0.0352  0.0658
19099W        W38633  16.650  17.649   4.287 -0.1497 -0.0477  0.0076
19100W        W38634  10.410   9.227  13.252  0.0522  0.0839 -0.0620
19101W        W38635  16.522  12.093  11.234  0.0419  0.2487 -0.1102
19102W        W38636   2.367   5.662   4.680  0.1522 -0.1119 -0.0734
19103W        W38637  11.626  11.482  13.387 -0.0043  0.0027 -0.3216
19104W        W38638  16.124   7.754   1.850 -0.1388  0.4042  0.0463
19105W        W38639   9.989  19.021  13.240 -0.0250 -0.2207  0.0420
19106W        W38640   4.735  19.090   2.070 -0.2740 -0.3299  0.1062
19107W        W38641   8.545  12.811  12.442 -0.0213 -0.0311  0.1002
19108W        W38642   2.387   1.964  10.550 -0.0933  0.1444 -0.0093
19109W        W38643   9.937   3.184   0.901 -0.2644  0.0704 -0.1426
19110W        W38644   6.023  12.768  10.682 -0.1753  0.3068 -0.2362
19111W        W38645   9.510  10.915   3.734  0.2790  0.1203  0.2776
19112W        W38646  12.111   6.907  14.520 -0.1926  0.2099 -0.0298
19113W        W38647   1.495  10.170   3.046  0.1164  0.2258 -0.2008
19114W        W38648  16.617   1.890  10.933  0.1038 -0.0106  0.0353
19115W        W38649   5.524  11.262  13.504 -0.1722  0.2182  0.1022
19116W        W38650  18.290   5.801  10.893  0.0641 -0.0873 -0.2527
19117W        W38651   5.679  15.087   0.742  0.0165 -0.1574 -0.1517
19118W        W38652  11.766   0.132   0.379 -0.3206  0.3703  0.0748
19119W        W38653   4.293  18.775   5.538 -0.2498 -0.1054 -0.0764
19120W        W38654   2.077   4.981   3.049  0.1764 -0.0893 -0.2405
19121W        W38655   4.651   5.376   0.573  0.4349  0.0079 -0.1328
19122W        W38656  13.143  14.994  13.229  0.3027 -0.0535  0.2504
19123W        W38657   1.367  18.575  12.307  0.2483 -0.0348 -0.0771
19124W        W38658  14.223   4.241  11.227  0.3276  0.0117 -0.1193
19125W        W38659  18.292  16.868  11.339 -0.2315  0.1450  0.2348
19126W        W38660  18.925   2.999   1.633  0.0706 -0.3342 -0.0033
19127W        W38661  16.007   3.088  12.267 -0.0229 -0.0549 -0.0759
19128W        W38662   5.092   0.255   0.773  0.1871  0.4398  0.0019
19129W        W38663  10.280   1.469  12.092  0.2294  0.1453 -0.1214
19130W        W38664   6.074  13.259  13.323  0.1014  0.0015 -0.1402
19131W        W38665  17.910   1.767   2.453 -0.0560 -0.2451 -0.1415
19132W        W38666   8.069   2.435   1.351  0.2630  0.1733 -0.2018
19133W        W38667  13.986  12.356  13.702  0.0308  0.0578  0.1730
19134W        W38668   8.455  13.040  13.568 -0.0259 -0.0376 -0.1849
19135W        W38669   6.251  17.525   0.236  0.0779 -0.0062  0.0619
19136W        W38670  15.064   0.801  12.756 -0.0454  0.2471  0.2417
19137W        W38671   4.833   1.702  11.005  0.1085  0.1329 -0.1124
19138W        W38672  12.931  13.103  11.577  0.4273  0.3105 -0.4069
19139W        W38673  16.800   2.522   3.700  0.0137 -0.2611 -0.1099
19140W        W38674  16.771   7.635  14.496 -0.1379 -0.1115 -0.1501
19141W        W38675   3.842  16.409  12.927 -0.2308 -0.2551  0.1406
19142W        W38676   3.491  11.605   2.202 -0.1449  0.1161 -0.0701
19143W        W38677  18.363  19.092  12.850  0.0021  0.1033  0.3672
19144W        W38678   8.924  13.276  12.832 -0.2273 -0.2799 -0.2618
19145W        W38679   8.200   4.328   4.144 -0.1454 -0.3543 -0.0398
19146W        W38680  15.030  14.636  13.611 -0.1139  0.3902  0.2456
19147W        W38681  17.224  11.048  12.957 -0.0392  0.1217  0.0792
19148W        W38682   3.452  12.947  13.907 -0.1368  0.1682 -0.0851
19149W        W38683   7.068  15.231   3.391  0.2323  0.1770  0.1413
19150W        W38684   3.309   0.690   1.953  0.0149  0.0172  0.1233
19151W        W38685  18.616  17.142   2.569  0.1044 -0.0611 -0.1399
19152W        W38686  11.617  17.797  11.460  0.3010  0.4539  0.2262
19153W        W38687   1.920   5.307  12.947  0.1175  0.1503 -0.1435
19154W        W38688  11.262  11.393  11.208 -0.2754  0.0222 -0.0233
19155W        W38689  14.109   7.813  14.600 -0.0281 -0.1421 -0.0579
19156W        W38690  12.168   1.274   2.771  0.2248  0.1300 -0.0642
19157W        W38691   7.372  12.682  10.784 -0.0661 -0.0313  0.1208
19158W        W38692   8.215  15.201   2.908 -0.0242 -0.0977 -0.0047
19159W        W38693   6.979  14.015  13.953  0.0169 -0.0897 -0.0698
19160W        W38694   6.334  12.800  11.140 -0.1667  0.3122 -0.4236
19161W        W38695  12.561   0.463   2.419 -0.3365 -0.2472  0.1923
19162W        W38696  14.850  12.834  14.277  0.0423 -0.1042  0.2355
19163W        W38697  18.560  13.144   1.312 -0.0407  0.0160  0.0688
19164W        W38698   6.477   8.159   2.513  0.1954  0.0655  0.0495
19165W        W38699  11.154   1.223   2.374  0.2808 -0.0870  0.6963
19166W        W38700   4.459   2.834  14.437  0.1890  0.0091 -0.0518
19167W        W38701   8.438  17.532  12.488  0.2277  0.0373  0.0952
19168W        W38702   0.436   0.276  12.513  0.0831  0.0778 -0.0032
19169W        W38703  14.243  12.947   2.356 -0.0227 -0.0678  0.0733
19170W        W38704  14.717  16.692   1.395 -0.1222 -0.1212 -0.0806
19171W        W38705  12.175   3.212  13.042  0.0244  0.0582 -0.1862
19172W        W38706   2.621   4.990  12.112  0.0441  0.0535 -0.0893
19173W        W38707   2.180   6.139   3.766 -0.0186  0.0994  0.1573
19174W        W38708  18.351   2.814  13.384 -0.1472  0.2024  0.3106
19175W        W38709  11.812  15.453  12.925  0.0757  0.1588  0.0439
19176W        W38710   4.594   1.471   2.853 -0.0788  0.0647 -0.1286
19177W        W38711   6.795   7.032   0.376 -0.1490 -0.1723 -0.1191
19178W        W38712  16.440   9.527  14.406 -0.1067 -0.2257 -0.4680
19179W        W38713   6.886  14.738   1.459 -0.0213  0.3914 -0.2303
19180W        W38714  14.001  17.232  14.162 -0.2358  0.1403  0.0918
19181W        W38715   2.843   8.254   2.299 -0.2659 -0.2448  0.2583
19182W        W38716  17.190  17.663  11.156 -0.1593 -0.1273  0.0793
19183W        W38717   6.027   1.926   3.603  0.1542 -0.2294 -0.2051
19184W        W38718  14.793   3.245  14.840 -0.0647  0.0292  0.0301
19185W        W38719  14.021  10.223   2.768  0.0942  0.1556  0.2596
19186W        W38720   4.548   5.920   3.193 -0.0060 -0.0914  0.0463
19187W        W38721  15.924   3.511  11.422  0.1336 -0.1088  0.1882
19188W        W38722  10.430  10.071   2.944 -0.3168  0.0112 -0.1353
19189W        W38723   7.285  10.906   3.115 -0.2108  0.2378  0.0642
19190W        W38724  11.370   1.160  11.863 -0.0470 -0.0931  0.0231
19191W        W38725   6.640  15.772  11.606 -0.0872  0.2995 -0.2946
19192W        W38726   4.853  15.539   0.296 -0.0201 -0.0970  0.0532
19193W        W38727  13.406  17.116   3.808 -0.0752  0.3879  0.0540
19194W        W38728   3.480  17.121   3.734  0.0673  0.1171 -0.1801
19195W        W38729  10.564  10.204   3.435 -0.1555  0.1750  0.1289
19196W        W38730   3.864   3.390  11.587  0.0289  0.0201  0.1550
19197W        W38731  16.579  11.126  11.561 -0.3604 -0.3905 -0.0921
19198W        W38732  10.462  13.407   0.192 -0.0578  0.1610  0.1300
19199W        W38733  14.506  12.225   4.405  0.3099 -0.0868  0.0782
19200W        W38734   1.914   8.998   2.186 -0.1987  0.0502  0.2107
19201W        W38735  13.390  13.631   1.178  0.0194  0.3447  0.1693
19202W        W38736  15.272   9.679   2.911  0.3355 -0.0830 -0.1939
19203W        W38737   9.826   6.511   1.416  0.1775 -0.1129 -0.0330
19204W        W38738  11.983   2.830  11.892 -0.4339 -0.0124 -0.4484
19205W        W38739   3.258  10.454   0.002  0.3388  0.1270  0.0310
19206W        W38740  18.406  17.570   3.845  0.0236  0.1756  0.1223
19207W        W38741  16.378   9.833   2.140 -0.0316 -0.1000  0.0361
19208W        W38742  10.181   9.443   0.684 -0.0252  0.0443 -0.1028
19209W        W38743   2.674  11.989  12.792  0.2307 -0.1863  0.0621
19210W        W38744   7.952   7.192   1.864  0.0585 -0.0312  0.0327
19211W        W38745   2.056   7.355  13.230  0.1628  0.0676  0.1258
19212W        W38746   2.945   4.889   2.209 -0.0099  0.0204  0.0616
19213W        W38747  11.986  13.196   1.167  0.0298  0.1215 -0.0739
19214W        W38748   8.830   8.573   3.788  0.0885  0.1831 -0.0559
19215W        W38749   6.922   2.217   2.481 -0.0377 -0.1935  0.2343
19216W        W38750   6.194  14.347  14.485 -0.0559 -0.0378  0.1758
19217W        W38751  12.873  11.029  12.989  0.1376  0.2864  0.0647
19218W        W38752   7.525   3.530  12.243  0.0966  0.1820 -0.0457
19219W        W38753   7.949   8.774  11.385  0.2874 -0.0407  0.1530
19220W        W38754   4.926  12.878   3.658 -0.0982  0.0004  0.1704
19221W        W38755  11.838  17.894  10.102  0.0938 -0.0886 -0.1145
19222W        W38756  11.076  16.035  11.679 -0.2126 -0.1391 -0.3267
19223W        W38757  18.635   5.949   1.244 -0.1555  0.2145 -0.1747
19224W        W38758   6.631   5.980  14.402  0.0424  0.0726 -0.1399
19225W        W38759   5.904   5.683  13.099  0.2986 -0.1758  0.3475
19226W        W38760   9.823   1.554   3.554 -0.1497  0.1058 -0.0214
19227W        W38761  17.166  17.547  14.698  0.1116 -0.0271  0.1797
19228W        W38762   6.753   8.546   2.187 -0.1839  0.0845 -0.3370
19229W        W38763  18.463   6.278  10.658  0.0880 -0.1120 -0.3362
19230W        W38764   8.726   5.564  10.741 -0.1190 -0.2380  0.2295
19231W        W38765  12.928   4.165  14.466 -0.1143  0.0821 -0.1039
19232W        W38766  17.168   2.978  13.046 -0.2180  0.1305  0.1905
19233W        W38767  18.417   7.643   0.296 -0.0800 -0.1440  0.3885
19234W        W38768  17.269   9.085   1.919 -0.0684  0.0770  0.2352
19235W        W38769  16.733   2.296  10.566 -0.2633 -0.0240 -0.0729
19236W        W38770   1.136  13.955  11.394 -0.2644  0.0824 -0.2743
19237W        W38771  18.909  12.702  12.987  0.2153  0.1697  0.1888
19238W        W38772  16.284  17.819  11.825  0.0442 -0.1263 -0.2496
19239W        W38773  17.535  17.239  12.524  0.0418  0.4519  0.0470
19240W        W38774  17.699   0.301   3.304 -0.2053  0.1457 -0.3652
19241W        W38775  15.570   5.220   0.432 -0.2721 -0.0165  0.0377
19242W        W38776   5.397   2.723  13.916 -0.0101  0.1237  0.2150
19243W        W38777  14.527  19.039  13.306  0.3223 -0.0992  0.3595
19244W        W38778  15.061  10.629  12.948 -0.0990  0.1953 -0.0108
19245W        W38779  18.765   5.596   3.146  0.2605  0.1116 -0.0540
19246W        W38780  12.022   6.847   4.899  0.0507 -0.0288 -0.2184
19247W        W38781   3.318  13.465   3.539 -0.0959 -0.0364 -0.0488
19248W        W38782  17.230  15.633   1.125 -0.2447 -0.2378 -0.2634
19249W        W38783  15.816  16.992   0.469  0.1480  0.0019  0.0948
19250W        W38784   3.374  11.451   1.197 -0.1043  0.1085 -0.0848
19251W        W38785   7.678  10.482  10.601 -0.0632 -0.0434  0.2650
19252W        W38786   7.093   1.428   4.402 -0.3513  0.0269  0.0981
19253W        W38787   4.377  14.953  11.624 -0.0202 -0.0398  0.2321
19254W        W38788  13.671  16.996   4.289  0.0520 -0.4822 -0.2912
19255W        W38789   5.469   2.000   5.472 -0.0405 -0.1320 -0.1797
19256W        W38790   5.177  13.548   3.345 -0.0675 -0.2235 -0.1554
19257W        W38791  15.633   6.784  12.975 -0.0492  0.0993 -0.0017
19258W        W38792  15.789  11.406  10.478 -0.1833 -0.0315 -0.4328
19259W        W38793   5.389   8.433   3.520  0.1213 -0.0804  0.0078
19260W        W38794   0.266   6.900   3.397 -0.0141 -0.0707  0.2503
19261W        W38795  13.809   9.441   3.992 -0.1448  0.0920 -0.1811
19262W        W38796   8.883  10.940   9.791  0.0785  0.1013 -0.0155
19263W        W38797   6.378  12.777   1.173 -0.2779 -0.1010 -0.1690
19264W        W38798  14.087   4.715  13.321  0.3774  0.1546 -0.0352
19265W        W38799   0.257  12.001   1.328 -0.2883  0.1646 -0.0244
19266W        W38800   4.074  18.493   1.356 -0.3800 -0.1428  0.1203
19267W        W38801  13.960  18.821   0.341  0.2004  0.3901 -0.2578
19268W        W38802   8.048   7.017   2.841 -0.0711  0.0395 -0.3730
19269W        W38803   9.240  10.514   2.170 -0.0795  0.1509  0.1945
19270W        W38804  14.659   3.736  12.163  0.0892  0.0936  0.0201
19271W        W38805  15.498  12.915   4.661 -0.0839  0.0779 -0.2219
19272W        W38806   4.172   1.441  12.476  0.5098 -0.1094  0.1288
19273W        W38807   5.118  18.255   0.816  0.1979 -0.0886 -0.1348
19274W        W38808   1.885   4.859   4.110  0.3028  0.0972  0.3061
19275W        W38809  16.817   3.018   1.976  0.2753 -0.0834 -0.0683
19276W        W38810  17.048  18.230  11.104 -0.3019  0.0892  0.0311
19277W        W38811  13.376   7.440  13.014  0.1169 -0.0210  0.0653
19278W        W38812  18.793  18.633  11.549 -0.1047  0.3293 -0.0687
19279W        W38813  16.303  16.552   1.918 -0.1057 -0.3892 -0.0013
19280W        W38814  16.842   7.486  10.831 -0.1922  0.0097  0.1609
19281W        W38815   1.474   4.113   3.021 -0.1925  0.6027 -0.0597
19282W        W38816  15.010  11.843   0.542  0.2169 -0.2371  0.2136
19283W        W38817  14.168   5.498   2.171  0.0553  0.2245  0.4871
19284W        W38818  10.508  13.476   0.739  0.2335  0.2712  0.0497
19285W        W38819   2.600   6.538   3.165 -0.1286 -0.2143  0.0307
19286W        W38820  15.922   3.027   1.600 -0.0557 -0.0853 -0.0097
19287W        W38821  11.284  14.576   1.393  0.0643  0.0742 -0.3868
19288W        W38822   9.511  16.082   4.044  0.0964 -0.2005 -0.0917
19289W        W38823   2.453  14.713  11.112 -0.2271 -0.0859 -0.0853
19290W        W38824   4.916  10.955  12.703 -0.1370 -0.0655  0.1128
19291W        W38825   2.153   9.734   0.583  0.1463 -0.0769 -0.0354
19292W        W38826  15.178  17.650   4.255 -0.1330  0.0177  0.0979
19293W        W38827   1.216  12.554   2.030  0.2622  0.2846  0.1049
19294W        W38828  17.836   1.339  13.035  0.1745 -0.1388 -0.1576
19295W        W38829   6.131   4.129   3.018  0.3153  0.2196 -0.1666
19296W        W38830   4.314  18.602  13.931 -0.1905 -0.2397  0.3324
19297W        W38831   1.973   5.857   1.977 -0.2038  0.2024  0.2185
19298W        W38832   2.328   8.190  12.792 -0.0703 -0.0638 -0.0529
19299W        W38833   7.501   6.431   0.134  0.0590 -0.2507 -0.0088
19300W        W38834   2.887  11.221  11.905  0.2757  0.2016 -0.0472
19301W        W38835   2.471   8.994  12.230 -0.0981 -0.1914 -0.0005
19302W        W38836   4.566   2.245  14.209 -0.3513  0.2588 -0.0248
19303W        W38837   6.498  11.924   4.042 -0.0926 -0.3252 -0.1325
19304W        W38838   7.294   5.359   0.790  0.1648 -0.3264  0.3463
19305W        W38839   2.470   5.775  11.271  0.0532  0.1553  0.1780
19306W        W38840   8.752   5.087  13.231  0.5765 -0.2662 -0.0644
19307W        W38841  12.880   3.258   4.248  0.1964 -0.0157 -0.1258
19308W        W38842   6.273   0.431   3.076 -0.2113  0.3403  0.1462
19309W        W38843   4.093  13.333  11.103 -0.1717  0.1528  0.0294
19310W        W38844   4.962  16.031   0.055 -0.1520 -0.1376 -0.0474
19311W        W38845  10.546  13.887  12.604 -0.2435 -0.2274  0.3909
19312W        W38846  12.202   5.320   0.777 -0.2828  0.1396 -0.3751
19313W        W38847   0.618  14.714  14.731 -0.0628 -0.2218 -0.1848
19314W        W38848   6.214   8.369  11.129 -0.0727  0.0681 -0.3678
19315W        W38849  18.935  13.959  14.640 -0.1492 -0.0719  0.0185
19316W        W38850  13.903   2.351   3.833  0.0563 -0.0864  0.3664
19317W        W38851  12.376  15.715  11.281  0.1727 -0.1894 -0.0660
19318W        W38852  15.437  12.832   3.412 -0.1629  0.0950 -0.0761
19319W        W38853  13.864   8.493  12.218  0.0483 -0.0168 -0.2962
19320W        W38854   7.099   1.113   1.237  0.0656  0.2954 -0.2462
19321W        W38855  10.143  10.462  13.405  0.3084 -0.0160  0.2074
19322W        W38856  12.831   5.674  11.100  0.2166  0.0043 -0.2373
19323W        W38857  12.192   7.230   3.466  0.0837 -0.1112  0.1441
19324W        W38858   6.252  13.254  13.832  0.0606 -0.0467 -0.3168
19325W        W38859  16.038  16.369  13.269 -0.1636 -0.0364  0.1301
19326W        W38860  13.601   6.555  13.580 -0.1164  0.0642 -0.1311
19327W        W38861   1.239  15.192   0.921 -0.2787  0.2967  0.0680
19328W        W38862  11.657  12.312  14.359 -0.2427 -0.3773 -0.0452
19329W        W38863  13.595  15.258   3.206 -0.2937  0.2326  0.1481
19330W        W38864  18.442   1.633   2.371 -0.0756  0.1574  0.0307
19331W        W38865   7.938  15.852   1.095  0.1164 -0.0197  0.0665
19332W        W38866  15.111  12.144   4.403 -0.0392  0.5411  0.1762
19333W        W38867  14.312  18.323   2.399 -0.3445 -0.0591  0.1006
19334W        W38868  18.025   9.960   3.841  0.0199 -0.1918  0.1825
19335W        W38869  16.995  18.692  13.454 -0.2920  0.2145  0.0482
19336W        W38870  16.054  17.439   1.700 -0.0251  0.0151  0.0402
19337W        W38871   2.427   6.259  12.561 -0.1236  0.0887 -0.1800
19338W        W38872  10.501   3.314  12.525  0.0575  0.0815 -0.0710
19339W        W38873   9.119  15.400  14.081 -0.3410  0.2013  0.1446
19340W        W38874   8.955  15.185   5.279  0.0631  0.0253 -0.0093
19341W        W38875  13.515  13.820  10.403 -0.0554  0.1920 -0.2968
19342W        W38876  11.473  14.942  11.414 -0.1215 -0.1899 -0.0350
19343W        W38877   6.381   7.005  10.645  0.0277  0.1853  0.1665
19344W        W38878   7.732   5.982  11.268 -0.2431  0.1467 -0.1995
19345W        W38879  12.719  17.199  12.448  0.2614  0.0127  0.3383
19346W        W38880   8.957  13.269  11.448  0.2108  0.0301 -0.0065
19347W        W38881   4.075   8.244  14.064 -0.0509  0.0526  0.0086
19348W        W38882  14.790   7.056  13.985  0.1546  0.0084  0.0545
19349W        W38883   6.921   2.445  12.606 -0.0081 -0.2076  0.1479
19350W        W38884   1.249   1.448   4.023  0.1083 -0.3952 -0.0212
19351W        W38885   9.690  12.525   4.024 -0.0483  0.1895  0.0450
19352W        W38886  11.202   3.295  11.924  0.0493  0.1272  0.0496
19353W        W38887  12.701   2.808   1.272 -0.0460  0.0277 -0.0253
19354W        W38888  16.778   8.417  11.814 -0.3118  0.2852  0.2403
19355W        W38889   0.581   6.041  11.744 -0.0818 -0.0978 -0.3900
19356W        W38890  18.086   8.059  13.260  0.2403  0.1175  0.0594
19357W        W38891  13.298   2.504  13.801 -0.0886 -0.2969 -0.0396
19358W        W38892  15.608   2.828   0.228 -0.0136  0.2068 -0.2374
19359W        W38893   3.253  17.587   4.073  0.1344  0.0156  0.1141
19360W        W38894  17.180   4.269   0.422  0.1497 -0.0842 -0.0524
19361W        W38895  12.192  12.534  11.290  0.1486 -0.0049 -0.1669
19362W        W38896   7.197  10.248   0.282  0.0160  0.3800 -0.1637
19363W        W38897   2.111   9.910  12.295  0.1529 -0.1625  0.0391
19364W        W38898   5.231   3.560   2.563 -0.1715  0.2167  0.2063
19365W        W38899   4.643   0.881   3.729 -0.0603 -0.1047  0.2017
19366W        W38900  14.529  15.544  14.363 -0.0604 -0.0595 -0.0369
19367W        W38901   7.804   2.950   4.865 -0.1047 -0.0198 -0.0138
19368W        W38902  14.800   9.668  12.572  0.0590  0.0671 -0.0100
19369W        W38903  17.514   5.621   0.086  0.0211  0.0409 -0.0870
19370W        W38904   9.359   8.775  12.740 -0.0588 -0.3338  0.1785
19371W        W38905  12.812  11.790  14.821  0.0375  0.1032 -0.1600
19372W        W38906  18.736   7.532  14.309  0.1142 -0.1872 -0.1290
19373W        W38907   5.745  13.953   3.340 -0.1774 -0.2907 -0.2300
19374W        W38908   0.505  18.110   9.604  0.4269 -0.0235  0.0958
19375W        W38909   9.422   6.278   3.957 -0.0267 -0.1294  0.0904
19376W        W38910  16.373  15.039  14.822 -0.1468 -0.1218  0.1950
19377W        W38911   5.031   3.983  14.175 -0.1248  0.0618  0.2656
19378W        W38912   7.971  10.431   1.864 -0.0171 -0.2476  0.0142
19379W        W38913   8.947  10.587   2.565 -0.2872  0.0845 -0.1365
19380W        W38914   5.310  18.516  14.611  0.0383 -0.1192  0.0982
19381W        W38915  18.745   0.027  11.374  0.1063 -0.0946  0.0897
19382W        W38916  17.187   3.837   1.304 -0.0614 -0.2335 -0.0879
19383W        W38917  13.762  14.870   1.747  0.1817  0.1304  0.0934
19384W        W38918  10.675  10.223  14.086 -0.1008  0.0366 -0.3863
19385W        W38919   5.521   1.032  13.842 -0.1227  0.2370 -0.1288
19386W        W38920   8.351   1.747  11.708 -0.0240  0.0350 -0.2216
19387W        W38921   2.434  10.249   0.183  0.0668  0.0296  0.0921
19388W        W38922  14.918   1.835  11.173  0.0112 -0.0780  0.0465
19389W        W38923  10.237  17.800  13.860 -0.2140  0.0251  0.1943
19390W        W38924  19.023  15.314   3.280 -0.3204  0.3119  0.0078
19391W        W38925  18.778   0.108  11.877 -0.2885  0.0221  0.0454
19392W        W38926  15.508   2.213   9.260  0.1210  0.0680  0.1132
19393W        W38927  15.356  16.981   1.120 -0.3212 -0.1819  0.1565
19394W        W38928  11.120  17.152   1.842 -0.0629 -0.2303  0.1853
19395W        W38929   6.866   3.804  14.838 -0.0096  0.0857  0.1202
19396W        W38930  15.947  10.704  14.674  0.2360 -0.1677 -0.2476
19397W        W38931   3.286   3.394  12.657 -0.2330  0.0396  0.0978
19398W        W38932   6.926  16.120  13.014 -0.0385  0.2087 -0.3520
19399W        W38933  15.411   6.763  11.283  0.0321  0.3712  0.2473
19400W        W38934   9.520  13.060  11.616 -0.0407  0.0930  0.4834
19401W        W38935  17.666  18.087  12.229  0.0367 -0.1454 -0.1062
19402W        W38936   6.790  10.621   1.562  0.0319  0.0993 -0.3485
19403W        W38937  11.861   5.004   0.657  0.1348  0.1562  0.1042
19404W        W38938  11.900   7.648   3.515 -0.1046  0.0855  0.3984
19405W        W38939  17.248  12.518  14.379 -0.2110 -0.0570  0.2482
19406W        W38940   1.216   6.016  12.884  0.2244 -0.0103 -0.0290
19407W        W38941   9.547   6.745   4.132  0.2605  0.1666 -0.4276
19408W        W38942   7.063   9.860  13.479  0.0135 -0.2528 -0.4232
19409W        W38943   5.061   2.078  11.210 -0.0067  0.3773 -0.0375
19410W        W38944  15.010   7.495   3.920  0.0715 -0.1746  0.0100
19411W        W38945   1.201   9.691   2.854 -0.2512  0.2820 -0.1575
19412W        W38946  10.325   9.868  10.732  0.0677 -0.2962 -0.0296
19413W        W38947   4.896   2.931  13.754  0.0821 -0.1916  0.4255
19414W        W38948   6.569  19.063   1.928 -0.2292 -0.2349  0.0525
19415W        W38949  18.853   8.478   1.370 -0.0649  0.2292  0.0200
19416W        W38950   5.403   6.026  11.750 -0.1546  0.0317 -0.1754
19417W        W38951  11.003   1.501  13.943 -0.0608  0.0501 -0.0071
19418W        W38952  13.854  13.910  13.603  0.0974 -0.3175 -0.2026
19419W        W38953  11.981  14.696  13.372  0.1376 -0.1992  0.0792
19420W        W38954   6.234   2.535  13.763 -0.2865  0.2039  0.1514
19421W        W38955   8.818   2.634   0.125  0.0867  0.0051 -0.0763
19422W        W38956  17.874   3.024   3.682  0.0960 -0.2496  0.0605
19423W        W38957   8.454   3.669   2.929  0.2650  0.1381 -0.0593
19424W        W38958   8.606  11.093  11.586 -0.1172  0.1581  0.1628
19425W        W38959   6.835  16.966  12.153  0.2417 -0.2575 -0.1892
19426W        W38960   0.537  14.816   2.330  0.0276  0.2511 -0.0889
19427W        W38961   8.341   5.299  13.452 -0.1561  0.0333 -0.0597
19428W        W38962  18.234  10.923  13.582 -0.1168  0.0268  0.2936
19429W        W38963   1.822  13.226   1.676 -0.2114 -0.1328  0.0843
19430W        W38964  17.585   9.866   2.327  0.1847 -0.0168  0.2044
19431W        W38965  11.414   8.336   2.382 -0.2931 -0.1416 -0.2829
19432W        W38966   5.628   7.389  10.612 -0.1636  0.0690  0.0821
19433W        W38967  14.471  13.444   0.381 -0.1776  0.1570  0.0810
19434W        W38968  11.451  16.011  13.802 -0.1827  0.0285 -0.1370
19435W        W38969  11.526   0.761  10.480  0.2254 -0.3340 -0.0381
19436W        W38970  10.212   9.883   2.057  0.0989  0.1864  0.0344
19437W        W38971  14.169   9.608  13.857 -0.3058 -0.1240  0.1853
19438W        W38972   3.631  17.131   3.230  0.0154 -0.1732 -0.2132
19439W        W38973  17.544  10.886   2.621 -0.0566  0.1095 -0.1179
19440W        W38974   5.104  12.066  13.328 -0.2489  0.0685  0.0436
19441W        W38975  17.020  18.373  13.111 -0.2228 -0.0915  0.3855
19442W        W38976   4.269   0.053   2.566 -0.0904  0.0317 -0.1949
19443W        W38977  13.474   4.830   0.097 -0.0989  0.0182  0.0067
19444W        W38978  12.831   4.848  11.183  0.0652  0.1252 -0.1409
19445W        W38979   8.191  18.777   0.253  0.0057  0.2467 -0.1216
19446W        W38980  12.363   8.317  13.196  0.5032 -0.1203  0.1785
19447W        W38981  16.026   4.755  13.777 -0.1993 -0.2592 -0.0425
19448W        W38982  11.097  18.573  10.935  0.1127  0.1045  0.1257
19449W        W38983   7.009   9.312   0.589  0.0168 -0.1776 -0.1830
19450W        W38984   4.589   0.354   3.018 -0.1111 -0.2767 -0.0924
19451W        W38985   7.344   0.500  12.167  0.0280 -0.0079 -0.1242
19452W        W38986  13.121   2.507   2.620 -0.1826  0.2212  0.0128
19453W        W38987   7.933  16.654   3.627 -0.1910 -0.0602  0.3507
19454W        W38988   2.789   5.076   5.208 -0.0893 -0.1494 -0.2639
19455W        W38989  18.176   2.107  10.408  0.2420  0.2262  0.0423
19456W        W38990   9.688   1.368   4.810 -0.2147 -0.0158 -0.3207
19457W        W38991   0.560  11.005  10.845  0.0406 -0.3195 -0.2678
19458W        W38992   1.436  15.374   2.343 -0.2298  0.2214 -0.0134
19459W        W38993  10.021   6.712  13.319 -0.1210 -0.2282  0.3479
19460W        W38994   3.757   0.257   2.634 -0.0860  0.2598  0.0705
19461W        W38995   5.165  17.401  13.946 -0.2334 -0.2907 -0.1973
19462W        W38996   0.510  17.938  12.125  0.1561  0.0389 -0.0176
19463W        W38997  17.952  17.741   3.703 -0.1376  0.1356 -0.2562
19464W        W38998   5.859   1.072  13.492 -0.0452 -0.1323  0.1489
19465W        W38999   3.131   2.755  12.895  0.2724 -0.0676 -0.3726
19466W        W39000  16.564   3.314  13.548 -0.1517 -0.0329  0.0256
19467W        W39001   3.096  14.140  13.519 -0.3184  0.0641 -0.0623
19468W        W39002  13.819   0.259   2.846  0.0144 -0.1500 -0.3352
19469W        W39003  16.041   8.831  10.665 -0.0926 -0.1240  0.2162
19470W        W39004   9.855  14.872   2.984 -0.0873  0.0742 -0.1838
19471W        W39005   1.387  15.669   2.752 -0.0845  0.3099  0.0948
19472W        W39006   1.748   0.874   1.414  0.1056 -0.0906 -0.1087
19473W        W39007  10.220   5.874  14.360 -0.3149 -0.3111  0.2173
19474W        W39008   8.928  11.833   0.328  0.0712  0.1253  0.0771
19475W        W39009   4.396   9.553   0.152  0.0135  0.0860 -0.0393
19476W        W39010   1.564   6.887  13.886  0.2881 -0.0096 -0.4192
19477W        W39011   5.315  10.321  10.251 -0.0195 -0.5232 -0.0006
19478W        W39012  15.758  11.522  12.044 -0.0459 -0.1085 -0.1179
19479W        W39013  18.042  17.106   2.674  0.1552  0.0302  0.1633
19480W        W39014   6.891   2.969   3.062  0.0986  0.1404 -0.0813
19481W        W39015   6.443   6.167   1.856  0.0518 -0.1074 -0.0488
19482W        W39016  17.250  14.137  13.613 -0.1968 -0.2485 -0.1943
19483W        W39017   9.889   3.620   3.134 -0.0040 -0.1592  0.0508
19484W        W39018   5.184  13.582  14.402  0.0072  0.0824  0.1765
19485W        W39019   5.901   5.662  12.185 -0.0802  0.0635  0.0652
19486W        W39020   5.265   3.939  11.454 -0.0030  0.3622  0.1609
19487W        W39021   4.660   3.659  14.345  0.1213 -0.2388 -0.0607
19488W        W39022   4.185   4.869   1.687 -0.3350  0.0900  0.0053
19489W        W39023  12.880  10.952   1.754  0.0983 -0.3836  0.0129
19490W        W39024   9.891  17.993   1.126  0.1711 -0.0335  0.1602
19491W        W39025   4.210   6.015   4.024  0.1171  0.2148  0.0130
19492W        W39026   2.441  13.691  11.175 -0.1137 -0.1392 -0.1303
19493W        W39027  10.627   1.357   3.216  0.2179 -0.3639  0.1590
19494W        W39028  12.028   3.600   3.395 -0.0678  0.2246 -0.2478
19495W        W39029   6.097  11.371   0.447 -0.5583 -0.0186 -0.1154
19496W        W39030  11.379  17.159  13.302  0.1197 -0.0238  0.1161
19497W        W39031  15.488  18.705  13.998  0.1017  0.0316 -0.1037
19498W        W39032   4.990  10.294   0.997 -0.3787 -0.0027 -0.0936
19499W        W39033  12.057  12.557   0.019  0.1260  0.0177  0.1522
19500W        W39034   0.673  14.744  10.347  0.0779 -0.2522 -0.0327
19501W        W39035  12.713  18.451  12.513 -0.2056  0.2259 -0.1740
19502W        W39036   7.875   1.241  12.299 -0.2130 -0.1242 -0.0065
19503W        W39037   7.383   1.748  13.750 -0.0719 -0.4727 -0.1159
19504W        W39038  17.588   8.785  12.804  0.1157  0.0160 -0.0533
19505W        W39039   4.824  18.602  13.674 -0.0706  0.0927  0.0180
19506W        W39040  10.523   1.262   4.061 -0.0819  0.2619 -0.0263
19507W        W39041  17.410   9.795  11.862  0.0217  0.4130  0.2920
19508W        W39042  11.482  11.025  14.545 -0.2487  0.1793  0.1029
19509W        W39043  10.605   4.533   3.796 -0.1123  0.0782  0.3458
19510W        W39044  10.203  13.941   3.153 -0.0274 -0.2656  0.0696
19511W        W39045  14.632   5.516   0.480 -0.2660  0.2256  0.0811
19512W        W39046  10.506   2.307  11.531 -0.3292 -0.0362 -0.1033
19513W        W39047   9.716  10.468   4.019 -0.2129 -0.0101 -0.0223
19514W        W39048   2.464   9.579   3.854 -0.0935  0.1519  0.2761
19515W        W39049   5.917   3.513   0.249 -0.3442  0.1218  0.0205
19516W        W39050  13.866   7.993   2.552  0.3669  0.1004 -0.0886
19517W        W39051  18.754   6.971  13.565  0.1394 -0.1084  0.0660
19518W        W39052  15.549  14.222   2.219 -0.4258 -0.1172 -0.1952
19519W        W39053  10.584   2.026   2.678 -0.3740 -0.0988 -0.2229
19520W        W39054  12.133   3.646  13.368  0.0407  0.0313 -0.1640
19521W        W39055  14.690  17.548  11.925 -0.2422 -0.0568  0.1097
19522W        W39056  11.313   6.080  11.369 -0.1275  0.2446 -0.0449
19523W        W39057   4.067  18.389   4.218 -0.0321 -0.1716  0.0632
19524W        W39058   8.336   0.060   2.399 -0.3217 -0.2430  0.0513
19525W        W39059   5.889  13.876  12.688  0.2030  0.1046 -0.0747
19526W        W39060   8.890   1.289  13.903  0.2897 -0.2898  0.0265
19527W        W39061   2.960  14.326  12.710  0.0696  0.1391 -0.1095
19528W        W39062  17.190   1.232   3.111 -0.1044  0.2471 -0.0695
19529W        W39063  19.039   1.848   2.976 -0.1230 -0.0945  0.0915
19530W        W39064  12.361  18.582  10.111 -0.0092  0.2446 -0.2189
19531W        W39065  11.175   5.159  13.746  0.1195  0.1569 -0.0423
19532W        W39066  16.046   4.253   3.727  0.0242 -0.1092  0.0234
19533W        W39067  13.523  17.582   9.737  0.3140 -0.0618  0.1775
19534W        W39068  17.888  18.247  13.127 -0.0298 -0.1288  0.1256
19535W        W39069  14.617   7.747   0.934  0.0542 -0.0344 -0.2910
19536W        W39070  16.590   8.198   2.172  0.1925 -0.1289 -0.3272
19537W        W39071   4.730   9.394  11.830  0.2234 -0.1385 -0.2511
19538W        W39072  16.588   1.662   0.551  0.0639 -0.3807 -0.1905
19539W        W39073  11.885   6.844   4.072 -0.1398  0.0160 -0.0650
19540W        W39074   9.838  16.842  10.972  0.0463  0.2669  0.0334
19541W        W39075  17.767  14.897   0.213  0.1136  0.0374 -0.0361
19542W        W39076  14.984  12.018  11.672  0.1332 -0.1422 -0.2386
19543W        W39077  17.379   3.665   3.607 -0.0332 -0.0708 -0.0156
19544W        W39078   4.328   2.652  13.036  0.1955 -0.0530  0.1212
19545W        W39079   4.840  16.092   2.745  0.1389  0.0915 -0.2122
19546W        W39080   1.346   7.686   2.368 -0.0088 -0.1769  0.1276
19547W        W39081   6.006  18.191  12.252 -0.0087  0.0449  0.2219
19548W        W39082  18.729  16.808   4.235  0.0136 -0.1811 -0.2186
19549W        W39083  14.349  17.342   0.193 -0.1363 -0.1865  0.3123
19550W        W39084   4.079  17.397  12.408  0.1440  0.0693  0.0958
19551W        W39085  11.788   0.937  11.032 -0.0027 -0.0443  0.1445
19552W        W39086  13.325  12.367  11.859  0.1776  0.0868  0.0674
19553W        W39087  13.643   2.651   4.239 -0.2455  0.1372 -0.1048
19554W        W39088   3.232   6.967   1.116 -0.1885  0.1949 -0.0543
19555W        W39089  13.174   2.528   0.547  0.2206 -0.3313 -0.0201
19556W        W39090  13.458  18.089   0.513 -0.0938  0.1280  0.0522
19557W        W39091  15.297   8.392  10.536 -0.0093  0.1725 -0.2469
19558W        W39092   3.903   8.883  12.329  0.2735 -0.1474  0.2370
19559W        W39093   5.993  15.818  14.490  0.2146 -0.0382 -0.2082
19560W        W39094   4.120   0.633   2.433  0.1887  0.2386  0.0082
19561W        W39095  12.494  15.615   3.050 -0.1806 -0.1383 -0.1204
19562W        W39096  11.655   1.952   0.084  0.0314 -0.0737 -0.0434
19563W        W39097  16.815   8.819  13.744 -0.1720  0.0881 -0.1291
19564W        W39098   1.175  12.529  11.561  0.0069 -0.0560  0.2557
19565W        W39099  15.283   6.140   1.306 -0.1805  0.0940 -0.2227
19566W        W39100  11.105   2.674  12.112  0.3071 -0.0023  0.1854
19567W        W39101   6.463   7.890   0.482 -0.1102  0.3662  0.1215
19568W        W39102  15.158  13.478   0.675  0.2851  0.0633  0.1794
19569W        W39103  12.465   4.018  10.069  0.0877  0.0320  0.2698
19570W        W39104   0.342   5.654  11.562 -0.4617 -0.2293 -0.2004
19571W        W39105  16.342  15.708   1.621 -0.0567 -0.0620  0.3556
19572W        W39106   6.451  16.446   3.599 -0.1499  0.0980  0.1093
19573W        W39107  11.064   0.537  11.738 -0.2272  0.0093 -0.3157
19574W        W39108   2.434   3.689  14.299 -0.2816 -0.6235  0.4961
19575W        W39109  14.884   9.267  10.399 -0.1096  0.2368 -0.1274
19576W        W39110  11.476  14.710   1.988 -0.1811 -0.1849 -0.1091
19577W        W39111   4.187  11.257  10.948 -0.1147  0.2462  0.1852
19578W        W39112  10.662   2.471  11.995 -0.1479  0.1015  0.1539
19579W        W39113  11.170   2.978  14.033  0.2683 -0.1593 -0.1223
19580W        W39114   7.900   3.882   1.636  0.3076 -0.1753  0.2845
19581W        W39115   9.071   1.257  11.245 -0.1107 -0.1332  0.0375
19582W        W39116  11.698   9.914  11.576  0.2361 -0.1567  0.3076
19583W        W39117   4.973   5.560   9.401  0.0090  0.1866 -0.0304
19584W        W39118   5.781  12.623  13.418 -0.0717 -0.0806 -0.1008
19585W        W39119  13.882  11.062  10.746  0.1292  0.0510 -0.2392
19586W        W39120   6.553   8.387  10.343  0.1868 -0.0407 -0.1880
19587W        W39121  18.902   2.581  11.552 -0.0978  0.0418 -0.0367
19588W        W39122  12.860   7.282   1.184  0.2723  0.0495  0.2421
19589W        W39123  10.624  16.067  13.746 -0.0302 -0.3360 -0.0706
19590W        W39124   1.711  16.638   4.180 -0.0417 -0.0215 -0.0280
19591W        W39125   2.873  13.734   3.267  0.0561 -0.1814  0.4368
19592W        W39126  15.949   6.111  11.259  0.1160 -0.2217 -0.0977
19593W        W39127  16.076  11.771  13.852  0.0565 -0.0519  0.0035
19594W        W39128   5.716  13.351   0.812 -0.0246  0.0802  0.0266
19595W        W39129   0.583   8.376  12.001 -0.0506  0.1147 -0.2921
19596W        W39130  15.600   6.941  12.147  0.1865  0.3029  0.1000
19597W        W39131  16.376  13.390  10.933  0.4326  0.1837  0.0431
19598W        W39132   1.287   8.124  11.829 -0.0983 -0.0333  0.0534
19599W        W39133  14.710  14.828  12.631  0.0073 -0.0424 -0.2851
19600W        W39134   7.442  17.062   2.018 -0.1449  0.0056  0.0767
19601W        W39135   3.329   4.845  14.535  0.1616 -0.3533  0.2091
19602W        W39136   6.193  10.261  12.604 -0.0790 -0.0489 -0.1608
19603W        W39137   8.885  13.780   3.031  0.2183 -0.2221  0.1748
19604W        W39138   8.313  18.571   2.214  0.1142  0.1671  0.4502
19605W        W39139   2.867  17.547  14.712  0.1796  0.0871 -0.0277
19606W        W39140   0.417   8.910  11.483 -0.1177  0.0657 -0.3133
19607W        W39141  11.663  15.390   0.215 -0.1098  0.1733  0.1392
19608W        W39142  16.308  15.727   3.327  0.0910 -0.3404  0.0851
19609W        W39143  13.524  13.503  13.936  0.1247 -0.0745  0.1039
19610W        W39144  11.743  12.697   2.917  0.2699 -0.2321  0.1453
19611W        W39145   7.684   4.782   1.902 -0.0257  0.1882 -0.0546
19612W        W39146  15.571  13.775   0.843  0.1686 -0.1580 -0.2978
19613W        W39147  13.256   6.469  11.376 -0.1502  0.3755 -0.0715
19614W        W39148  14.791   0.244   2.969  0.0460  0.1915 -0.2241
19615W        W39149  18.525  11.054  14.171  0.0185  0.1139  0.3361
19616W        W39150  18.108  12.954  14.086 -0.0510 -0.2149 -0.0225
19617W        W39151   3.247   6.873   2.609  0.0364 -0.3167  0.0341
19618W        W39152   0.990   3.108  12.990 -0.0103  0.0339  0.0852
19619W        W39153  12.678  15.621   4.095  0.3730 -0.1085  0.0244
19620W        W39154  16.168   8.501   3.957 -0.0169 -0.1019  0.2557
19621W        W39155   7.287  16.492   3.687 -0.0448 -0.3025 -0.3215
19622W        W39156   4.841   9.833  13.926 -0.1342 -0.0066 -0.3340
19623W        W39157  13.220  13.596   3.128 -0.0218  0.0814 -0.1353
19624W        W39158  14.811  14.568   3.089 -0.0584  0.1234  0.0231
19625W        W39159   1.357   1.970   0.392  0.2302 -0.1137  0.0483
19626W        W39160   5.603   0.890   1.240  0.1734 -0.0103  0.1631
19627W        W39161  12.443   0.145   2.909 -0.2188  0.1679  0.1890
19628W        W39162  18.274   8.412  14.046 -0.1959  0.2330 -0.2971
19629W        W39163   4.748   0.928   4.373  0.0720  0.1261  0.1446
19630W        W39164  15.166   1.478   3.921  0.0505 -0.1968 -0.0359
19631W        W39165  10.218  17.228   1.508  0.0455  0.0152  0.0714
19632W        W39166   7.083  15.913   3.090  0.6146  0.3152  0.2038
19633W        W39167   1.839  18.755   9.895  0.0527  0.3931  0.0759
19634W        W39168   5.689   9.935   4.134  0.0023 -0.0773 -0.0639
19635W        W39169  18.731  11.799  12.074  0.1101  0.2492 -0.1842
19636W        W39170  18.863   4.625  13.078  0.1501  0.0888 -0.0102
19637W        W39171  18.496  17.176   1.282  0.3187 -0.2029  0.0139
19638W        W39172  13.188   1.961  10.975  0.2864 -0.5943 -0.0133
19639W        W39173   7.543   1.376  13.465 -0.0004 -0.4378  0.3960
19640W        W39174   8.563   7.939  13.184  0.0589  0.0986 -0.0954
19641W        W39175   8.874   9.438   0.298  0.2359 -0.1073 -0.3205
19642W        W39176   2.367   7.069   9.842 -0.3274  0.0577 -0.1226
19643W        W39177   9.844   8.410   4.571  0.2169 -0.0734  0.3808
19644W        W39178   7.262  16.151   0.013 -0.0574 -0.4355 -0.0035
19645W        W39179   0.640   8.898  11.961 -0.1613  0.0107 -0.0221
19646W        W39180  18.003  14.995   1.151  0.4113  0.0882  0.2531
19647W        W39181   5.928   0.134   2.528 -0.1337 -0.2007  0.1559
19648W        W39182  10.398   0.770   4.392 -0.4789  0.1677  0.3112
19649W        W39183   1.044   8.576  11.905  0.1707 -0.0768  0.0553
19650W        W39184   5.252  16.762   4.204  0.3160  0.0962 -0.1932
19651W        W39185  14.893   0.336  14.774 -0.2468  0.2984 -0.3072
19652W        W39186  17.639  17.322   0.765  0.1456 -0.1135 -0.2952
19653W        W39187  18.218   9.995  11.894 -0.2705  0.0710  0.2507
19654W        W39188   0.391   4.101  13.642 -0.3287 -0.0060 -0.1358
19655W        W39189   5.419   4.197  11.046  0.2954 -0.0163 -0.1432
19656W        W39190  12.624   0.120   3.481 -0.1311 -0.3670  0.0946
19657W        W39191   3.016  16.186  12.095  0.3293 -0.0458 -0.0225
19658W        W39192  18.858   8.670  13.462 -0.1607  0.1008 -0.0671
19659W        W39193  14.849  12.753   0.517  0.2745  0.2490 -0.0423
19660W        W39194   7.015   1.007  12.234 -0.0270 -0.1024 -0.1405
19661W        W39195   6.433  10.383   4.213 -0.2591 -0.2186  0.1739
19662W        W39196   2.352   9.661   1.071  0.0247 -0.2526 -0.0598
19663W        W39197  11.486   2.955  13.011 -0.0962 -0.0124  0.1318
19664W        W39198  16.827   3.983  12.438 -0.1157  0.0011 -0.1150
19665W        W39199  14.922  15.175  12.371  0.1792  0.0079  0.4253
19666W        W39200  17.904   5.848  13.885  0.0571 -0.0977 -0.2013
19667W        W39201  15.794   3.022  12.819  0.0553  0.0600 -0.0841
19668W        W39202  14.884   8.778  10.455 -0.1460 -0.0834  0.0414
19669W        W39203   6.467  13.487   2.751  0.1117  0.0261  0.3695
19670W        W39204   0.230   3.269   0.875 -0.0850  0.5724  0.0407
19671W        W39205  12.137  10.093   3.083  0.3590 -0.3096  0.2478
19672W        W39206  13.220  17.864   4.338 -0.1903  0.1227  0.0106
19673W        W39207   9.505  11.815   1.785  0.0156  0.2588  0.1205
19674W        W39208  17.280  13.832   4.406 -0.0083 -0.0315 -0.0071
19675W        W39209   1.919  11.564  13.048  0.4655 -0.0765 -0.2753
19676W        W39210   2.802  17.953  13.980  0.3477 -0.1191  0.0993
19677W        W39211  15.819  10.683   1.240 -0.2786 -0.0893  0.2061
19678W        W39212   9.849   6.991  11.426  0.0233 -0.2925 -0.2132
19679W        W39213  17.366   9.133  13.117 -0.3258 -0.2492  0.2319
19680W        W39214   9.460  15.704   4.429 -0.0561  0.0431 -0.2702
19681W        W39215   8.411   7.419  10.405  0.3003 -0.0292 -0.1164
19682W        W39216   3.539  16.438   1.601  0.1040 -0.0630 -0.1811
19683W        W39217  15.004   2.839  11.029 -0.2355 -0.0605 -0.0969
19684W        W39218  17.479  18.345   3.291  0.0099  0.0815 -0.2761
19685W        W39219  14.662  14.208   2.420 -0.2713 -0.0411  0.0947
19686W        W39220   1.240  18.314  10.576  0.2456  0.0962 -0.2093
19687W        W39221  10.123   0.853  12.596 -0.2305  0.2896  0.0487
19688W        W39222   3.704   6.347   5.092 -0.0917  0.0304 -0.1331
19689W        W39223   2.718   6.505  14.233  0.3579 -0.0979  0.0040
19690W        W39224   6.593   5.219  12.483  0.1775  0.0607 -0.0454
19691W        W39225   5.349  17.351   2.882 -0.0087 -0.1266  0.0172
19692W        W39226   1.799  18.292   3.178 -0.0382  0.3019  0.1579
19693W        W39227   2.584   2.050   3.168  0.1047  0.2240  0.1714
19694W        W39228   0.029   4.315  13.411 -0.2502 -0.0904 -0.1192
19695W        W39229  14.393  17.017   1.281 -0.0996  0.0731 -0.0130
19696W        W39230   2.924   5.879   3.415  0.3231 -0.0831  0.1693
19697W        W39231   9.478  14.862  13.140  0.1711  0.0247 -0.2148
19698W        W39232   0.437   8.356  14.719  0.0665  0.0867 -0.2075
19699W        W39233  13.570  16.116  12.998 -0.0075 -0.0196  0.0968
19700W        W39234  15.113   6.568   3.356  0.1835  0.0584  0.0819
19701W        W39235   5.755  10.848  14.014 -0.2413 -0.0734 -0.0412
19702W        W39236   9.162  14.736   3.094 -0.2713 -0.0967 -0.2053
19703W        W39237  12.827  11.689   3.979 -0.0692 -0.0068 -0.1045
19704W        W39238  15.194   1.895  14.683  0.0490 -0.2978 -0.3391
19705W        W39239   1.284  10.468  12.310 -0.0324 -0.0466  0.0512
19706W        W39240   7.169   7.980  14.335 -0.2517 -0.1624 -0.1367
19707W        W39241  10.854  12.947   1.837  0.0143 -0.1049  0.0690
19708W        W39242   7.039  14.770  12.976  0.1238  0.3152 -0.1345
19709W        W39243   0.586  11.666   3.658  0.1287 -0.2645  0.2782
19710W        W39244   7.516  16.565   1.276  0.0863 -0.0299 -0.0332
19711W        W39245  12.055  17.312   0.662  0.3290 -0.1088  0.3246
19712W        W39246   4.648   8.980   3.696 -0.0086 -0.0400 -0.0389
19713W        W39247   1.035  11.495  10.026  0.2958 -0.1259  0.1584
19714W        W39248   7.411   6.092  10.221 -0.1023  0.2756  0.2914
19715W        W39249   9.212  16.639   2.427  0.1867 -0.0755  0.0067
19716W        W39250   5.434  11.326  12.702  0.2579  0.0910 -0.1513
19717W        W39251  12.311   6.866  11.808 -0.3413 -0.2102  0.3845
19718W        W39252  11.879   6.738   3.122 -0.2480  0.1009 -0.0104
19719W        W39253  11.683   4.060  11.775  0.0211 -0.0932 -0.0755
19720W        W39254   6.062  14.204  12.321  0.3860 -0.0327 -0.0653
19721W        W39255  15.637   7.930   2.666 -0.0413 -0.0229 -0.0686
19722W        W39256  17.710   9.293  13.795  0.2719 -0.0216  0.2241
19723W        W39257  18.991   6.329   1.207 -0.0218 -0.2200 -0.4657
19724W        W39258   6.018   2.102  13.622  0.0298  0.1408 -0.0160
19725W        W39259   4.240   4.037   4.393 -0.0078 -0.1278  0.2790
19726W        W39260  11.722  18.916   3.385  0.0235  0.0462 -0.1460
19727W        W39261   6.127   9.587   2.139  0.0717  0.0848 -0.1723
19728W        W39262  16.819   0.672  12.771  0.1195  0.0609 -0.0851
19729W        W39263   6.832   2.700  13.031  0.3608  0.1240 -0.0337
19730W        W39264  18.412   4.789  11.955  0.1554 -0.1826 -0.1886
19731W        W39265   8.268  16.880   1.297 -0.2828 -0.4400  0.0408
19732W        W39266  18.291   9.966   9.726 -0.2471  0.1190 -0.0031
19733W        W39267   6.400   9.656  13.273  0.2358 -0.1009  0.0201
19734W        W39268   7.961   0.713   0.942 -0.1845  0.1687  0.4660
19735W        W39269   0.936  11.309  10.994 -0.1581  0.1288 -0.1645
19736W        W39270   2.405  10.736   2.165 -0.1746 -0.1169  0.0443
19737W        W39271   2.784   4.618   0.714  0.0199  0.2755 -0.1674
19738W        W39272   8.803  15.492   3.735  0.1110 -0.2623 -0.0629
19739W        W39273   1.007  15.589  10.536  0.1631  0.2023 -0.1157
19740W        W39274   2.975  18.434  13.478  0.0051  0.0887 -0.0719
19741W        W39275   3.102   9.323  10.951 -0.0631  0.2874 -0.0778
19742W        W39276  15.062   4.290   2.801  0.1150  0.2032  0.1693
19743W        W39277   0.963  18.575   3.845  0.1198  0.2414 -0.1762
19744W        W39278   8.816   9.429  11.201  0.0215  0.1795 -0.0501
19745W        W39279  10.486  11.602  11.299 -0.0922 -0.2334 -0.0462
19746W        W39280  15.620   8.773  11.332  0.0046  0.0804 -0.3243
19747W        W39281   7.807  17.300   1.889 -0.1276  0.1738 -0.0372
19748W        W39282   7.237  11.161  11.936  0.1769 -0.0329  0.2647
19749W        W39283  18.763   2.486  13.395  0.0159  0.0818  0.0475
19750W        W39284  12.944  18.445  12.047  0.1631 -0.2282  0.1767
19751W        W39285  15.482   2.371   1.759  0.3359  0.0497  0.2250
19752W        W39286   1.791   7.284   1.708  0.1798 -0.2498 -0.0581
19753W        W39287  16.901   7.462  13.019 -0.3394 -0.1436  0.0725
19754W        W39288  18.433   5.520   2.005  0.0035  0.3857 -0.2047
19755W        W39289  16.050  15.525   2.882 -0.2145  0.1708  0.0198
19756W        W39290   7.556  15.679  11.312 -0.0541 -0.0495 -0.2730
19757W        W39291   3.352   6.875  10.659  0.3163  0.0473 -0.1336
19758W        W39292  16.462   4.112  14.362 -0.3049  0.0802  0.0306
19759W        W39293   7.817  15.056   3.761 -0.3034  0.3760 -0.2682
19760W        W39294   3.822   6.106   0.306  0.3399 -0.0756  0.0674
19761W        W39295  13.141  15.337   2.952  0.3175  0.3530  0.2416
19762W        W39296   4.342  10.718  14.290  0.2406  0.3934  0.0154
19763W        W39297   1.295   9.565  11.804  0.1402 -0.1900 -0.1266
19764W        W39298   4.643  11.307   2.020 -0.1160 -0.0627  0.3352
19765W        W39299   4.070   1.942   2.886  0.1360 -0.0368 -0.2370
19766W        W39300   7.558  18.123   0.728 -0.1867 -0.0174 -0.0096
19767W        W39301   8.107   4.770   3.749 -0.0313  0.1099  0.0592
19768W        W39302  12.397   0.696   4.255 -0.1320 -0.1506 -0.1924
19769W        W39303  12.460   2.239  10.985  0.0206 -0.0921  0.0716
19770W        W39304   6.302   1.628   0.376  0.2842  0.0672 -0.1433
19771W        W39305   3.800  10.815   0.671 -0.0971 -0.0766 -0.1629
19772W        W39306   0.013  12.081  12.218 -0.0896  0.1644  0.3784
19773W        W39307   4.503  16.701  12.686 -0.1219  0.0533  0.1434
19774W        W39308  19.083  11.074   2.525  0.0789  0.4346  0.2075
19775W        W39309  17.528  15.570   3.376 -0.1144  0.3022  0.0316
19776W        W39310   3.299  10.003   0.755  0.0812 -0.0104 -0.2008
19777W        W39311  11.669  11.482  11.529  0.0679  0.1501 -0.1767
19778W        W39312   0.269   9.742   3.158  0.0302 -0.2084  0.0156
19779W        W39313   2.960   0.921  12.585 -0.2882  0.4020  0.2121
19780W        W39314   6.391   2.868  12.775  0.2191 -0.0199  0.1153
19781W        W39315   4.444  17.511  12.066 -0.0736 -0.2142  0.1721
19782W        W39316   2.162   3.491  13.650 -0.0126 -0.3180  0.0809
19783W        W39317   0.563   1.168   4.995 -0.0510 -0.1617 -0.1946
19784W        W39318  14.459  16.184   1.582 -0.1516 -0.2792  0.0765
19785W        W39319  17.193   1.978   3.458 -0.1277  0.2668  0.1111
19786W        W39320  18.023  12.682  13.051  0.3400  0.0881 -0.0723
19787W        W39321  15.304  13.412   4.485 -0.2374  0.0493 -0.1134
19788W        W39322   0.775  15.739  13.720 -0.0076  0.0771  0.2326
19789W        W39323   5.936   2.196   2.415 -0.0077  0.0221 -0.1823
19790W        W39324  15.034   7.822   2.687  0.2232  0.0387  0.0647
19791W        W39325   5.548   4.647   2.067 -0.1982 -0.2483 -0.0226
19792W        W39326   5.380  13.678  12.605 -0.2405 -0.1240  0.0987
19793W        W39327   4.654  11.747  14.700  0.0182  0.1259 -0.3373
19794W        W39328  13.677   5.217   0.769  0.1722  0.0331  0.1492
19795W        W39329   9.078   6.875   2.651  0.0862  0.2578 -0.1665
19796W        W39330   5.436   7.664  12.048  0.3476  0.1003  0.1194
19797W        W39331   7.529   6.051  12.244 -0.1003  0.5155 -0.1283
19798W        W39332   6.476  15.155   0.345  0.1339 -0.3040 -0.0098
19799W        W39333   9.270   4.868  14.601  0.3503 -0.1662 -0.1046
19800W        W39334  15.020  11.962   3.008 -0.3530  0.2271  0.0527
19801W        W39335  11.683  10.441   1.226  0.1092  0.1449 -0.0158
19802W        W39336   9.462  17.690   1.070 -0.0603 -0.1963 -0.0875
19803W        W39337  16.014  17.658  13.722  0.4319 -0.2056 -0.1046
19804W        W39338   9.950  11.892  14.269 -0.1733  0.0193 -0.2196
19805W        W39339  16.216   3.766   2.754 -0.2648  0.1822 -0.1527
19806W        W39340  17.988  10.912  11.512 -0.0461 -0.0149  0.1824
19807W        W39341  14.694  13.196   2.443  0.1479  0.1839  0.0191
19808W        W39342   6.437  13.251   3.196 -0.0204  0.3467  0.2212
19809W        W39343  16.372   4.252  13.698  0.3137 -0.1263  0.0364
19810W        W39344  13.920   5.539  14.635 -0.1315  0.0352  0.3890
19811W        W39345  16.052  16.692   9.787 -0.0002 -0.0090  0.1090
19812W        W39346  16.421   4.268   2.825 -0.1428  0.1393  0.0737
19813W        W39347  14.392  14.166  10.545  0.0601 -0.0185  0.1251
19814W        W39348   9.823   2.654  12.302  0.0260 -0.1497 -0.3445
19815W        W39349   9.792  12.946   4.725  0.2038 -0.0563 -0.1654
19816W        W39350   8.193   6.328  12.614  0.0305 -0.0394 -0.2185
19817W        W39351   6.322   8.210   3.008 -0.2778 -0.1320 -0.1156
19818W        W39352   6.165  12.331  11.383  0.0126  0.0860  0.3048
19819W        W39353  13.240  12.019   2.108 -0.0847 -0.2020 -0.1607
19820W        W39354   0.140   8.665  10.019 -0.0996  0.1183 -0.0250
19821W        W39355   9.232   2.423   0.515  0.3293  0.0128  0.1754
19822W        W39356   1.124   5.165   3.551  0.0314 -0.1288 -0.3891
19823W        W39357  18.185  12.301  14.729 -0.3804 -0.2125 -0.3166
19824W        W39358  11.185  14.353  13.529 -0.1803 -0.1744 -0.1347
19825W        W39359  17.849  12.841   3.364  0.3918 -0.2119  0.0578
19826W        W39360  18.475  18.110  12.462 -0.0989  0.1838 -0.2065
19827W        W39361  11.690   7.431   1.546 -0.1205  0.4244  0.0551
19828W        W39362   0.150  13.450  10.700 -0.0262 -0.1927 -0.1329
19829W        W39363   4.027  12.754  12.453  0.1266  0.0324  0.0147
19830W        W39364   1.739  11.953   2.099 -0.1482 -0.0504 -0.1650
19831W        W39365   8.048   8.182   0.529 -0.2012 -0.2286  0.4069
19832W        W39366  14.162  18.706  11.373  0.3053 -0.1038 -0.2194
19833W        W39367   9.038  15.102   2.424  0.0667  0.0270  0.0402
19834W        W39368  16.997   2.949   0.552  0.1253 -0.1071 -0.0644
19835W        W39369   1.179  15.396   3.709  0.0287  0.0323 -0.1340
19836W        W39370   4.566  18.275  13.025 -0.0517 -0.2979  0.3856
19837W        W39371   4.676   3.191  14.133 -0.2791 -0.1083 -0.0021
19838W        W39372   7.411  12.049  11.473 -0.0636  0.1669 -0.2102
19839W        W39373   7.864   0.127   0.251  0.2409  0.2166  0.2346
19840W        W39374  15.039  10.201  10.483 -0.3864  0.0671 -0.2793
19841W        W39375   6.918  18.978   3.509 -0.1260  0.3544 -0.2928
19842W        W39376   9.475   6.799   2.947  0.0808 -0.3538  0.0852
19843W        W39377  15.145   5.155   3.141 -0.0912  0.0624 -0.1805
19844W        W39378  16.291   2.707   3.808 -0.0779  0.1842  0.2666
19845W        W39379   0.476  12.047  11.985  0.1623 -0.2026 -0.0940
19846W        W39380   3.859   7.673  11.334  0.1830  0.1826 -0.1182
19847W        W39381  12.306   5.031  12.107 -0.0987 -0.0868 -0.1851
19848W        W39382   6.089   4.090  11.833 -0.0771  0.0731  0.0126
19849W        W39383   9.170  16.626   3.487  0.0120  0.2988 -0.1100
19850W        W39384  11.692  13.457  11.459 -0.2406 -0.0525 -0.2419
19851W        W39385   2.738   3.435   0.759 -0.0008  0.1372 -0.0213
19852W        W39386   5.136  14.928   3.706 -0.1020  0.2489 -0.0659
19853W        W39387  16.717   6.148   1.258  0.1268  0.2766  0.0197
19854W        W39388  11.252  13.448   2.540 -0.4006 -0.1646 -0.1717
19855W        W39389  12.883  13.013  12.891 -0.2467  0.0763  0.1528
19856W        W39390   1.671  19.078   2.768 -0.1710 -0.0531  0.1181
19857W        W39391   3.121  10.083   1.773  0.0809 -0.0768  0.1955
19858W        W39392   3.275  11.251  11.359 -0.1368 -0.0467 -0.1760
19859W        W39393   0.444   6.967   0.310  0.1081  0.0189 -0.0718
19860W        W39394  10.032  14.903  14.031  0.5253 -0.1443 -0.0216
19861W        W39395   5.090   4.732  14.699  0.0597 -0.0341 -0.1124
19862W        W39396  15.648   7.708  11.985  0.0491 -0.1047 -0.1032
19863W        W39397   1.861  11.173  11.561  0.2001 -0.0569  0.3104
19864W        W39398   8.265   1.086  11.912  0.2215 -0.3466  0.4301
19865W        W39399  17.087   5.357  13.317 -0.1265  0.1776  0.1631
19866W        W39400  13.729  11.313   1.921 -0.1250  0.1918  0.1393
19867W        W39401   2.869  13.474   1.271  0.0236 -0.1920 -0.0412
19868W        W39402   0.091  10.325   3.058  0.0670 -0.0740  0.0650
19869W        W39403  17.472   4.138   0.836 -0.0610  0.0351  0.0256
19870W        W39404   2.754  13.006   1.506  0.0352  0.0886  0.2146
19871W        W39405  15.781   5.434  13.080  0.0586 -0.1274 -0.1100
19872W        W39406  12.061   3.129   3.281  0.0639 -0.2188  0.0280
19873W        W39407  17.145  18.233   1.894  0.1692 -0.2092  0.0294
19874W        W39408   7.237   4.036  13.977 -0.0235 -0.1025 -0.0061
19875W        W39409  16.620   7.837   2.560  0.1477  0.0238  0.0547
19876W        W39410   9.638   3.286   1.538  0.1472 -0.1004 -0.0091
19877W        W39411   5.693  12.828  12.437  0.0082  0.4646 -0.0465
19878W        W39412   0.213  17.625   0.137  0.2022 -0.0856  0.0650
19879W        W39413  15.828   6.551  14.670  0.2195 -0.1175  0.1424
19880W        W39414   5.030   5.772   3.023  0.1962 -0.1534 -0.1211
19881W        W39415  11.789  15.735   1.251 -0.3211  0.2481 -0.1051
19882W        W39416   3.975   2.960   1.322  0.2292  0.1977 -0.1233
19883W        W39417   1.469  18.393  12.717 -0.0301  0.2892 -0.2534
19884W        W39418  16.075   7.153   2.200 -0.2568 -0.0686 -0.0959
19885W        W39419   1.870  15.103   4.282  0.0345  0.1813  0.0778
19886W        W39420   8.346  10.207  10.060 -0.2103 -0.1387  0.0438
19887W        W39421   5.499  13.061   1.633 -0.0205 -0.1621  0.1317
19888W        W39422   3.259   9.140  13.414  0.0354 -0.0507  0.0688
19889W        W39423  15.930  14.920   1.816 -0.1715 -0.0332 -0.2812
19890W        W39424  17.173  12.777   0.496  0.0412  0.2673 -0.1141
19891W        W39425   1.538   1.602  14.194  0.2816 -0.3327  0.2045
19892W        W39426  12.712  12.057   0.340 -0.2484  0.1459 -0.1910
19893W        W39427   8.005   7.643  12.516 -0.1368  0.0448  0.3860
19894W        W39428   5.719   5.605  11.072  0.1938 -0.3571  0.0617
19895W        W39429   4.480   4.114   2.965  0.1565  0.1315 -0.0964
19896W        W39430  10.081   6.941   1.262  0.1331 -0.1092 -0.4037
19897W        W39431  11.968   2.908   0.430 -0.4025  0.0810 -0.0367
19898W        W39432  17.334   6.164   4.337 -0.0923  0.2308 -0.0608
19899W        W39433  12.961   0.450  13.473 -0.1147  0.4937 -0.1915
19900W        W39434  18.007   6.980  11.387 -0.3511  0.3768  0.0831
19901W        W39435  11.492  13.237   1.135 -0.2538  0.3152 -0.1510
19902W        W39436  17.071  15.395   1.923  0.0761 -0.2360 -0.1317
19903W        W39437   4.363  15.732  13.278 -0.1901  0.0691  0.0487
19904W        W39438  11.312   7.108  14.176  0.0233 -0.0913 -0.2826
19905W        W39439   2.952   3.600   2.696 -0.1366  0.0542  0.0007
19906W        W39440   7.356   5.551  10.542  0.0888  0.3115 -0.0298
19907W        W39441  11.570  16.378   2.540  0.0767 -0.1610  0.2237
19908W        W39442   1.364  16.798  10.593  0.1446  0.2209 -0.3805
19909W        W39443  14.147  11.117   1.697 -0.2247 -0.1642 -0.0515
19910W        W39444   1.541   8.739  11.740  0.2307  0.1066 -0.1056
19911W        W39445   2.630  16.094  14.560  0.0949 -0.0420 -0.2346
19912W        W39446  17.926   2.436   2.925  0.1661 -0.2202 -0.1975
19913W        W39447  18.727   0.169   1.603  0.1670  0.0234 -0.3060
19914W        W39448  10.914   9.794  12.643  0.3114 -0.0544  0.1870
19915W        W39449  11.981  17.215   2.302  0.0260  0.3438  0.0178
19916W        W39450   7.935  18.191   2.063  0.5701  0.1968 -0.1280
19917W        W39451   5.499  17.794  13.980 -0.0824  0.0034 -0.2028
19918W        W39452   3.147  10.078  13.169  0.3195 -0.1720 -0.0821
19919W        W39453   9.793  13.750  12.430 -0.3676 -0.1086 -0.1799
19920W        W39454   4.021   1.745  11.366  0.1709  0.1447  0.1014
19921W        W39455   6.481  11.145   3.925 -0.0221 -0.2468 -0.1656
19922W        W39456  15.775   6.490  10.666  0.2782  0.1512  0.1626
19923W        W39457  11.397  18.549  12.323  0.0112  0.1660  0.2985
19924W        W39458  14.747   3.010   1.286 -0.1241  0.0962  0.0405
19925W        W39459  10.919   7.796   1.081  0.2090  0.1276  0.0783
19926W        W39460   4.548  13.773   2.086 -0.1483  0.0236 -0.0215
19927W        W39461   8.801  11.638   3.518  0.1229  0.0269  0.3618
19928W        W39462  17.201   2.915  12.359 -0.0727  0.1325 -0.1274
19929W        W39463  11.082   1.049   3.226 -0.1360 -0.3061 -0.1641
19930W        W39464  14.541  17.750   1.955 -0.2534 -0.1635 -0.2227
19931W        W39465   5.128  16.016  12.136  0.2875 -0.2113 -0.1187
19932W        W39466   6.804   8.298   3.151  0.2978 -0.1309  0.1893
19933W        W39467   3.731  13.656  11.950 -0.0676  0.1089  0.0923
19934W        W39468   9.888  10.097   2.611 -0.1942 -0.0605 -0.0002
19935W        W39469   7.278  15.051   2.355 -0.1956 -0.2935 -0.1467
19936W        W39470   0.042   5.283  13.842  0.1971  0.1378  0.0639
19937W        W39471  15.295  10.901   0.444 -0.1369  0.1767 -0.1229
19938W        W39472  14.467  13.047   1.837 -0.2325 -0.1183  0.3183
19939W        W39473   6.404  12.243   0.272  0.0741  0.0044  0.0613
19940W        W39474   9.049   4.002  13.389 -0.1930  0.1046 -0.0077
19941W        W39475   3.254   2.377  13.781 -0.2210 -0.2355  0.0122
19942W        W39476  11.290   7.963  13.010 -0.3038  0.4065 -0.1415
19943W        W39477   4.069   7.309   3.755 -0.0607 -0.2530  0.0226
19944W        W39478  12.767  14.867  10.120 -0.1856  0.1917 -0.0448
19945W        W39479   1.067   3.772  14.371  0.2190 -0.2159  0.1366
19946W        W39480  17.058   6.495   2.432 -0.0236  0.0224 -0.0711
19947W        W39481   5.808  16.756  11.972  0.1062  0.0093  0.0162
19948W        W39482   4.403  11.078   1.167  0.0375 -0.1407  0.0066
19949W        W39483  10.197   1.217   3.554  0.1664 -0.1410  0.0503
19950W        W39484  13.919   6.392   2.167  0.1181  0.2856  0.0067
19951W        W39485   2.829   8.243   2.872 -0.0049 -0.0397 -0.0032
19952W        W39486   6.833  15.954   0.237  0.2605 -0.0747  0.2278
19953W        W39487  12.514   2.796  14.505  0.1999 -0.1965  0.0207
19954W        W39488   1.831   5.435   2.441  0.0184  0.0731 -0.0631
19955W        W39489   1.028  14.468  12.829  0.0887 -0.0986  0.1165
19956W        W39490   2.498  13.015  14.436  0.2466 -0.2268  0.0915
19957W        W39491   3.936   2.211   0.011  0.4102 -0.1341  0.3242
19958W        W39492  17.319  17.380   3.050 -0.3968 -0.2080 -0.1917
19959W        W39493   0.422   6.436  11.419 -0.1857  0.0186  0.0481
19960W        W39494   5.318  10.225  13.725  0.0561 -0.5326 -0.0070
19961W        W39495   4.413   0.580  12.987 -0.0131 -0.2521  0.3892
19962W        W39496  17.734  12.217  11.010  0.1722  0.0744 -0.1268
19963W        W39497  13.072   4.293  12.721 -0.1324 -0.4662  0.1061
19964W        W39498   9.424  10.852  11.872  0.1564 -0.1733 -0.2359
19965W        W39499   8.909   0.049   2.369 -0.2364  0.0278 -0.0198
19966W        W39500   8.582  13.647  12.127 -0.2154  0.3087 -0.3836
19967W        W39501   4.190  16.962   2.735 -0.0703 -0.1830  0.0733
19968W        W39502   9.144   2.661   4.389 -0.3270  0.0580 -0.0209
19969W        W39503  16.350   6.931  12.470  0.1034 -0.3095 -0.1333
19970W        W39504  15.013  17.531  13.787  0.1965 -0.3153 -0.1220
19971W        W39505   0.312   0.845  13.230  0.1725  0.2173 -0.0589
19972W        W39506   1.720   1.544   9.835  0.1650 -0.0894 -0.0559
19973W        W39507  14.740   9.394  12.006  0.2036  0.1598  0.0386
19974W        W39508   8.085  18.618   3.339  0.1250 -0.1607 -0.0579
19975W        W39509  13.491   7.048   1.775 -0.2514  0.1372 -0.2133
19976W        W39510   9.016   4.449   1.330 -0.2157 -0.3052  0.3963
19977W        W39511   2.310  18.988   4.567 -0.0724 -0.0037  0.2068
19978W        W39512   7.621  10.217   4.546  0.2296  0.3551  0.1146
19979W        W39513   3.336   8.028   1.059  0.0252  0.2043 -0.0889
19980W        W39514  16.192   7.545  11.594 -0.0598 -0.1110  0.0840
19981W        W39515  17.932   4.850  10.622 -0.0946 -0.0912  0.1894
19982W        W39516  18.992  14.113   0.395 -0.1154 -0.3875  0.3127
19983W        W39517  12.135  14.226   9.998 -0.0442 -0.0956 -0.2735
19984W        W39518  12.284  13.799   3.662  0.4054  0.2834  0.2467
19985W        W39519   2.627  16.318   1.531 -0.2074  0.2987 -0.3005
19986W        W39520  18.977  14.152  11.243  0.3998 -0.0676  0.0868
19987W        W39521  17.193  12.288  13.511  0.2213  0.0414 -0.0863
19988W        W39522  18.088   1.925  11.528  0.0145 -0.0816 -0.2741
19989W        W39523   0.246   8.763  10.811 -0.1884  0.2402 -0.1803
19990W        W39524   4.044  11.154   0.305 -0.3436  0.0208  0.2523
19991W        W39525   1.547   2.228   1.657 -0.0590  0.0488 -0.0165
19992W        W39526   4.643  11.713  11.597  0.0832 -0.3807  0.1987
19993W        W39527  12.648   5.138  14.795 -0.0036 -0.3088 -0.1058
19994W        W39528  14.805  13.143   0.846 -0.2305 -0.1440 -0.2484
19995W        W39529   9.044  10.336   0.374 -0.0674 -0.3065  0.0917
19996W        W39530  13.448   3.782   3.096  0.0212 -0.0502 -0.2829
19997W        W39531  18.802   4.232  10.437 -0.2661 -0.0663  0.1331
19998W        W39532  16.629  11.329  14.694 -0.2527  0.1962  0.3493
19999W        W39533   0.115  11.406  12.111  0.2568 -0.0584 -0.0377
20000W        W39534   4.311  12.593  13.781  0.1808  0.2528 -0.0166
20001W        W39535  17.134   9.719   4.657  0.1881  0.0584  0.4565
20002W        W39536   5.661   8.865  13.955  0.3626 -0.0090 -0.0241
20003W        W39537   9.852  12.358   4.482  0.3098 -0.1572  0.1508
20004W        W39538   9.036   8.697   4.284  0.0047  0.2448 -0.0221
20005W        W39539  12.595   8.336   2.712  0.0990  0.1347  0.0944
20006W        W39540   3.523   0.367   3.031  0.1845 -0.0595 -0.1104
20007W        W39541   6.604   3.710  12.950  0.1630 -0.1598  0.3610
20008W        W39542   3.711  17.947  11.884  0.1239  0.0295 -0.3171
20009W        W39543   8.946   8.495   1.644  0.0213 -0.6032 -0.1966
20010W        W39544  11.921   4.020   3.736 -0.4196 -0.0115  0.0205
20011W        W39545   4.985   4.571   1.194  0.0147 -0.2101  0.0633
20012W        W39546   2.567  16.424   0.623 -0.0200 -0.0932  0.1681
20013W        W39547  10.426  14.540  14.175 -0.0059 -0.2310  0.2118
20014W        W39548  13.699   7.297   9.783 -0.0678  0.0466 -0.1640
20015W        W39549  10.247  14.217  12.874 -0.1703  0.2039  0.0266
20016W        W39550  17.653  13.724   1.090 -0.0561  0.0373  0.0439
20017W        W39551   1.149   4.057  11.878 -0.2933 -0.1999  0.1216
20018W        W39552  13.431   2.593   2.165  0.0487  0.2317  0.0035
20019W        W39553   3.314   6.381  13.601  0.1859 -0.0968 -0.3349
20020W        W39554   8.919  12.900  13.805  0.1606 -0.0879 -0.2843
20021W        W39555   1.084   1.136  13.095 -0.0189 -0.1389  0.0374
20022W        W39556   9.439   9.522  14.757  0.1153 -0.1782  0.2929
20023W        W39557  17.157   6.353   3.378 -0.1566 -0.0357  0.2739
20024W        W39558  17.708   7.584  11.648  0.2194  0.0804  0.1141
20025W        W39559   1.447  11.386   2.490 -0.0180 -0.3787 -0.3039
20026W        W39560   4.591  18.329   0.736  0.1030  0.0791 -0.0694
20027W        W39561   6.432  18.910  13.430 -0.1750 -0.0820  0.1546
20028W        W39562   1.751  17.946  12.841  0.0297 -0.0470  0.0851
20029W        W39563  14.176   9.255   3.195  0.4658  0.0102  0.5497
20030W        W39564  13.357  10.257   1.187  0.0916  0.2261 -0.0649
20031W        W39565  14.370   1.204   3.269 -0.0712  0.1367  0.1194
20032W        W39566  10.311   3.550  11.113  0.0173 -0.1783 -0.0710
20033W        W39567  13.343   9.118   3.339 -0.0692 -0.2507  0.2852
20034W        W39568  13.854   1.028   3.642 -0.1572  0.2691  0.3870
20035W        W39569  15.606  17.848   3.640 -0.2147  0.1111 -0.4070
20036W        W39570  14.721  11.790  12.901 -0.2667  0.1925 -0.0064
20037W        W39571   1.576  11.023  13.976 -0.1754  0.4724  0.0260
20038W        W39572   9.724  15.845  13.420 -0.0895 -0.2101 -0.1071
20039W        W39573  12.876   3.414   0.629 -0.0270 -0.1609  0.0390
20040W        W39574   2.830   6.400   0.431  0.3110  0.0723 -0.0814
20041W        W39575   0.240  13.545  13.985  0.1576 -0.0041 -0.1284
20042W        W39576  13.599  13.906   2.239  0.1882  0.0418 -0.0487
20043W        W39577   7.840  14.319  14.243  0.0129  0.3593  0.1006
20044W        W39578   4.828  12.319   4.856 -0.0355 -0.2234  0.1103
20045W        W39579   0.319  14.955  12.736 -0.0445 -0.3597 -0.0035
20046W        W39580  14.207  18.236   3.858 -0.1853  0.1753  0.1035
20047W        W39581  10.121  15.006   2.105 -0.0456  0.0433  0.1878
20048W        W39582  11.180  10.584  11.358  0.2583  0.1385  0.1515
20049W        W39583   2.118  10.579  13.977  0.2759 -0.3335  0.1685
20050W        W39584   4.462   3.309   0.422 -0.1041 -0.0634  0.1658
20051W        W39585   4.569  11.378   3.315  0.3864  0.1065 -0.0067
20052W        W39586   7.762  14.095   3.247 -0.1792  0.0066 -0.2278
20053W        W39587   1.358  14.825  12.559  0.0439 -0.1009 -0.0687
20054W        W39588  14.833  18.941   4.382 -0.0256  0.0875 -0.1700
20055W        W39589  12.862  14.839   3.938 -0.2452 -0.3458  0.0547
20056W        W39590   1.331  16.512   2.005 -0.0425  0.0829  0.3000
20057W        W39591   6.626   8.279  12.491  0.4034  0.1284 -0.1097
20058W        W39592   6.001   1.597  12.563  0.1052 -0.3549 -0.2283
20059W        W39593  18.413   4.181  10.135  0.0863 -0.0137  0.2750
20060W        W39594  16.361  14.975  12.413 -0.1617  0.1100  0.1334
20061W        W39595  18.679  11.062  13.295 -0.0780  0.2056  0.0776
20062W        W39596  12.033   1.523   1.898  0.1904 -0.1699  0.2336
20063W        W39597   5.242   4.875   3.733 -0.0237 -0.1792  0.0589
20064W        W39598  14.688  18.011   4.234  0.1796  0.2443 -0.0432
20065W        W39599  15.123   4.010   5.093 -0.1522  0.1796  0.4260
20066W        W39600  17.707   6.203  13.315  0.0494 -0.0202  0.0379
20067W        W39601   9.162   0.623   2.730 -0.0123  0.0850 -0.0784
20068W        W39602  11.307  10.997  13.513 -0.0676 -0.1043  0.0897
20069W        W39603   7.339  11.912   3.377  0.2060 -0.1307  0.1504
20070W        W39604  17.849   1.718   1.953  0.0210 -0.0819  0.2369
20071W        W39605   3.847  18.952   2.431 -0.1966  0.0496 -0.1072
20072W        W39606   6.826   2.096   1.047 -0.0105  0.1399 -0.2672
20073W        W39607   5.381  10.272   0.261 -0.2581  0.0525  0.1608
20074W        W39608   4.375   0.043   3.396 -0.0083 -0.4054  0.0024
20075W        W39609   4.984  15.515  13.305  0.1160 -0.3883  0.1628
20076W        W39610   5.400   6.252  11.240 -0.0882 -0.1655 -0.1551
20077W        W39611  11.092  15.541  11.552  0.1288  0.0323  0.0596
20078W        W39612   0.164  11.300  10.960 -0.0466  0.1651  0.1412
20079W        W39613  18.334  16.807  14.077 -0.1916  0.1700 -0.2630
20080W        W39614   8.591  17.469   2.078  0.0438  0.0389  0.0828
20081W        W39615   1.140   5.697   2.152 -0.0696  0.0176  0.1844
20082W        W39616  18.075  11.015   0.254  0.1858 -0.1624  0.0630
20083W        W39617  12.358  17.441  12.117 -0.0084 -0.2573 -0.1286
20084W        W39618  16.539   6.373   2.665 -0.0258 -0.1335  0.4599
20085W        W39619  10.623   6.907   0.788  0.0384  0.1233  0.0084
20086W        W39620   8.174   7.790  14.170 -0.1283  0.0717  0.1808
20087W        W39621  16.157   5.933   0.457  0.2683 -0.1497 -0.2183
20088W        W39622   9.038   3.018  11.954 -0.3242 -0.2356 -0.2022
20089W        W39623  15.640   4.934   3.549 -0.1562 -0.0564  0.2724
20090W        W39624  16.713   4.768  10.323 -0.2720  0.0273  0.4549
20091W        W39625  16.430   7.986   0.533 -0.1842  0.2565 -0.1001
20092W        W39626   2.305  17.268   1.908  0.0695 -0.1018 -0.0782
20093W        W39627  13.958   7.848  10.884 -0.0684  0.2291 -0.1099
20094W        W39628  16.735  17.389  13.962  0.0083  0.1204  0.1853
20095W        W39629  14.731   1.867  12.400 -0.1634 -0.0133  0.0632
20096W        W39630   8.322  18.958   3.895  0.2702  0.1461  0.0528
20097W        W39631  17.816  12.214  13.687  0.1458 -0.0824 -0.2253
20098W        W39632  17.746  16.537  14.515  0.0462 -0.1262 -0.0531
20099W        W39633  10.083  14.903  11.759  0.2278  0.1121 -0.3031
20100W        W39634  10.108   4.826   2.233  0.1217 -0.2357  0.1604
20101W        W39635   9.156   6.951   1.207 -0.0621 -0.3848 -0.2445
20102W        W39636   2.094   4.668  13.715 -0.0222  0.0782  0.2761
20103W        W39637   5.685   7.149  13.305 -0.0217 -0.1326 -0.1439
20104W        W39638   0.928   0.050  13.960 -0.2841 -0.0053 -0.0911
20105W        W39639   9.544   8.894   1.642 -0.0529 -0.2991 -0.1309
20106W        W39640  13.242   9.779   0.625  0.1499 -0.1142 -0.1063
20107W        W39641   8.538   9.450   1.304 -0.0961 -0.2454  0.0485
20108W        W39642  15.165   9.072  11.995  0.2365 -0.1227 -0.0052
20109W        W39643  12.872   3.416   3.229 -0.2154 -0.1410  0.0986
20110W        W39644  18.358   3.921   3.536  0.0566 -0.0179  0.0278
20111W        W39645  13.146   2.710  12.847  0.3775  0.1968  0.1865
20112W        W39646   5.814   8.803  10.399 -0.0032 -0.3334 -0.3061
20113W        W39647  11.936  19.119  10.844  0.0338 -0.1506 -0.0098
20114W        W39648  17.339  18.899  11.661  0.0484  0.1262 -0.0094
20115W        W39649   2.979   4.747   3.483 -0.1592  0.0582 -0.1219
20116W        W39650   9.882  10.079   1.728 -0.0120  0.0462 -0.0229
20117W        W39651  16.846   7.003   1.607  0.2446 -0.0416  0.2255
20118W        W39652  10.202   1.662   3.200 -0.1626  0.0026 -0.2639
20119W        W39653  18.996  15.477   2.488 -0.2736  0.0944 -0.1115
20120W        W39654  10.808  12.654  14.463 -0.0260 -0.3691 -0.3528
20121W        W39655  16.417  15.316  12.832 -0.4341 -0.0701 -0.1575
20122W        W39656   4.133   4.546   3.577  0.0014 -0.1589 -0.2108
20123W        W39657  15.122  10.653   1.370  0.1233 -0.1032  0.0513
20124W        W39658   9.490   7.979   1.221  0.1351 -0.1583  0.2423
20125W        W39659  11.601  10.483   0.618 -0.1536  0.0269 -0.2450
20126W        W39660   6.231  16.178   2.222 -0.0274  0.2386  0.2044
20127W        W39661   1.404  14.616  10.757  0.2424  0.0985  0.2680
20128W        W39662   0.570  18.311   2.947  0.1250 -0.1430 -0.1309
20129W        W39663  13.554   3.383  13.802 -0.1547 -0.2475  0.0870
20130W        W39664  12.850   0.864  13.724 -0.0407  0.0660  0.2183
20131W        W39665   5.799   2.179  12.782  0.1615 -0.0105  0.2968
20132W        W39666   0.471  16.741   2.391 -0.0691 -0.1987  0.0994
20133W        W39667   8.324  11.950   4.203 -0.0736 -0.1214  0.0113
20134W        W39668  12.044   5.414   1.812  0.1917  0.1828  0.0000
20135W        W39669   7.356  12.172   0.180  0.0596  0.2767  0.3815
20136W        W39670  19.069  15.863   3.400  0.1208  0.3580  0.3405
20137W        W39671   2.313  15.905  14.197  0.4349  0.0826 -0.1269
20138W        W39672   6.477   5.643  13.041  0.1149  0.0269 -0.2617
20139W        W39673   5.637   4.752  12.290  0.4908  0.2487  0.2681
20140W        W39674   5.553   6.094   1.710 -0.2062  0.0845 -0.4244
20141W        W39675   1.980   5.546   2.969  0.0621  0.2509 -0.0483
20142W        W39676  16.199  15.203   3.790  0.0233 -0.1256  0.2540
20143W        W39677  11.283  12.727  11.215 -0.0196  0.3855  0.3739
20144W        W39678   2.162  15.241  13.454 -0.1258 -0.1781  0.1950
20145W        W39679   9.743   1.266  14.116 -0.0117 -0.1601  0.0543
20146W        W39680  14.471   8.725   0.558 -0.1686  0.0789 -0.1186
20147W        W39681  12.917   8.696   4.998  0.0769 -0.1721 -0.2469
20148W        W39682  15.770   2.448   3.802  0.2950 -0.0866 -0.0303
20149W        W39683   7.632  18.382   4.271 -0.0448  0.0624 -0.1365
20150W        W39684   6.444   4.114  12.649  0.2727 -0.1057  0.0563
20151W        W39685   6.354   4.604   4.047  0.0888  0.0244  0.0027
20152W        W39686   7.718   6.485  12.501  0.0813 -0.2009  0.2088
20153W        W39687  12.946   2.919  11.241  0.0090  0.0235 -0.1137
20154W        W39688   9.413   2.311  12.774  0.0015  0.1958 -0.0774
20155W        W39689   4.377   0.045   4.546 -0.0273  0.0113 -0.1767
20156W        W39690  18.698   6.897  14.529  0.0232 -0.1499 -0.0339
20157W        W39691   4.942   8.930   2.931 -0.1555 -0.2274 -0.0528
20158W        W39692  17.539   8.417  13.346  0.1199 -0.2823  0.2769
20159W        W39693   5.171   8.089   1.164 -0.2370  0.1470  0.4212
20160W        W39694  17.916   7.003   1.397 -0.0765  0.2614 -0.2283
20161W        W39695  11.408   3.268   0.901 -0.0800  0.0922 -0.0675
20162W        W39696  18.230   3.814   1.569 -0.1180 -0.0939  0.0536
20163W        W39697   5.068   9.254  12.113 -0.1945  0.0355  0.0451
20164W        W39698   5.954   7.719  14.093  0.2907 -0.1513  0.2353
20165W        W39699  18.689   7.645   3.842 -0.0265 -0.0622 -0.3313
20166W        W39700   2.657   7.539   1.459  0.2720 -0.2559  0.0939
20167W        W39701   5.781   6.055  14.700 -0.2038  0.4193  0.1942
20168W        W39702  11.661   2.866   3.896  0.2366  0.0085 -0.0904
20169W        W39703  16.867   1.290  14.187  0.1187 -0.1484  0.0602
20170W        W39704  16.436  10.847  14.792 -0.1478 -0.0290  0.0504
20171W        W39705  18.621   9.998  10.719 -0.3595 -0.2124 -0.3495
20172W        W39706  18.129   2.002   4.387  0.4969  0.2940  0.2119
20173W        W39707   7.612   7.244  11.029  0.1972 -0.2177  0.0957
20174W        W39708   7.337   4.318  12.757  0.0946 -0.0363  0.1952
20175W        W39709  10.335   8.095   2.480 -0.0275  0.2063 -0.1247
20176W        W39710   3.637   3.252  11.059 -0.3552 -0.2781  0.0857
20177W        W39711   3.329  16.814  11.945  0.0322  0.2560  0.0427
20178W        W39712   5.619   4.092  12.559  0.0249  0.0128  0.1095
20179W        W39713  15.618   3.300  10.543  0.0506  0.0790  0.0811
20180W        W39714   0.275  19.084  12.915  0.1812  0.1594 -0.0284
20181W        W39715  16.713  17.966   0.515  0.0591 -0.1432  0.1673
20182W        W39716   7.050   2.863   1.536 -0.1306  0.1375  0.2866
20183W        W39717   5.705   7.898  11.683  0.0246 -0.2352  0.3350
20184W        W39718   0.418   8.517   3.213 -0.3694 -0.0483  0.1150
20185W        W39719  12.922  17.685   2.258  0.0471 -0.2066 -0.0872
20186W        W39720   9.800   8.201  12.247  0.0873 -0.2476 -0.0586
20187W        W39721   0.467   6.307  14.352 -0.2303  0.0133  0.0885
20188W        W39722  15.106  18.213  11.266 -0.1916  0.1252 -0.1230
20189W        W39723  12.332  10.601  14.308 -0.0793 -0.2179 -0.3196
20190W        W39724  11.280   3.570   1.581  0.1324 -0.0210 -0.3186
20191W        W39725   2.127  13.991   3.793 -0.1658 -0.2536  0.0906
20192W        W39726  10.022   2.591  12.750  0.1004 -0.0302 -0.0201
20193W        W39727   5.610   5.972  13.361 -0.4216  0.2232  0.0928
20194W        W39728   1.968  14.362   1.524 -0.2227  0.1350  0.0583
20195W        W39729  10.859   5.517  13.870 -0.0333  0.2018  0.0756
20196W        W39730   5.413  18.901  11.322 -0.2294  0.1280  0.1560
20197W        W39731   4.344   7.052  13.167  0.2136  0.2655 -0.2597
20198W        W39732  18.729   9.341  14.231  0.3746 -0.0205 -0.1225
20199W        W39733  11.234   6.517  11.790 -0.0549 -0.1839 -0.0138
20200W        W39734   1.057  13.059   1.187  0.0814 -0.0151 -0.0277
20201W        W39735   9.621  15.016   2.123  0.3418 -0.4996  0.2206
20202W        W39736  11.655  10.672   2.022  0.0942  0.3738 -0.0455
20203W        W39737  19.116  12.388   1.554 -0.3306 -0.2061 -0.1184
20204W        W39738  18.162   2.444  10.042  0.1478 -0.0318  0.2474
20205W        W39739   6.641   5.653   0.100 -0.1680  0.0763 -0.2502
20206W        W39740  16.644  16.211  13.948  0.0961  0.1420  0.2130
20207W        W39741  10.639  10.189   0.358  0.3956 -0.0805  0.0080
20208W        W39742   1.560   3.593  14.438 -0.2228 -0.1538  0.1262
20209W        W39743  17.271  13.064  14.429  0.1692 -0.1612  0.1440
20210W        W39744   8.759   5.309   3.535  0.1441 -0.2272 -0.1585
20211W        W39745  11.141   6.678  11.142 -0.2694  0.0336 -0.0813
20212W        W39746  12.344  10.795  11.804  0.0788  0.0208  0.0296
20213W        W39747   4.373  10.322  12.730  0.0165 -0.3457  0.0622
20214W        W39748  15.288  13.113   3.040 -0.1815 -0.0735 -0.0308
20215W        W39749  10.328   4.656  11.755  0.0280  0.1070 -0.2168
20216W        W39750  11.288  18.299  13.809  0.0563 -0.1169  0.0905
20217W        W39751   4.688  10.905  13.257 -0.4235  0.0478  0.1138
20218W        W39752   2.984   1.272   2.999  0.3297  0.1622 -0.0732
20219W        W39753   7.746  10.543   0.714  0.1817 -0.1688 -0.0078
20220W        W39754   4.022  15.390  11.690 -0.1938  0.1920 -0.0151
20221W        W39755  15.372   4.823  11.702 -0.1504 -0.1832 -0.1728
20222W        W39756   5.822   5.597   3.446 -0.0326  0.0083  0.3080
20223W        W39757  16.065  12.369  12.114 -0.0282  0.3174  0.4542
20224W        W39758   0.293  12.737   1.138 -0.1570 -0.3965 -0.1138
20225W        W39759  11.515   7.736  12.595 -0.3078 -0.0628  0.1257
20226W        W39760   0.751   6.705  11.739  0.0198  0.0735  0.0909
20227W        W39761   1.605  13.271  13.408  0.0155  0.1498 -0.0339
20228W        W39762   0.268  10.078  12.323  0.0570  0.0252  0.1155
20229W        W39763   1.534  12.182  11.407 -0.1452 -0.1748 -0.1134
20230W        W39764   5.397   9.513   2.643 -0.1044 -0.1495 -0.2584
20231W        W39765   5.436   1.817   2.297 -0.2530  0.1268 -0.3003
20232W        W39766  14.824   6.144  12.689  0.1504 -0.0644 -0.3906
20233W        W39767  11.710  17.355   1.239  0.1022 -0.2565  0.1692
20234W        W39768   4.260   5.489   4.171 -0.3249 -0.2695 -0.0144
20235W        W39769   0.417  15.233  11.719  0.3081  0.3557 -0.2435
20236W        W39770   3.470   6.618  14.684  0.2069  0.0244 -0.0360
20237W        W39771   0.438   2.153  12.095  0.1052  0.1507 -0.1258
20238W        W39772   0.226   4.767  13.134  0.1483 -0.0349 -0.0424
20239W        W39773  12.069  11.045   2.095 -0.2432 -0.0776  0.0571
20240W        W39774   9.496  17.441   1.512  0.3589  0.0512 -0.1434
20241W        W39775  11.584   7.769  11.695 -0.2384  0.0409  0.0623
20242W        W39776   5.791  12.066   1.071  0.0202 -0.1802 -0.0395
20243W        W39777  10.213   2.368  14.383 -0.0842  0.0554  0.2127
20244W        W39778  12.808   5.579  14.055 -0.2961 -0.0468 -0.1670
20245W        W39779   2.640  11.482   3.139  0.0479  0.1957  0.2696
20246W        W39780  14.135   1.294  11.348 -0.0965  0.2068 -0.3354
20247W        W39781   4.718   3.936   2.483 -0.0736  0.0531  0.1352
20248W        W39782  15.925  13.333  13.936  0.2461 -0.0336  0.1437
20249W        W39783   9.965  19.110   1.957  0.2507 -0.1211  0.0155
20250W        W39784   0.480  16.923   0.294 -0.0771  0.1529  0.0448
20251W        W39785  13.168   4.800  14.553  0.0997  0.0905 -0.3289
20252W        W39786   9.244  11.226   9.536  0.1512  0.1458  0.2178
20253W        W39787   9.810   0.482   4.288 -0.2042 -0.2248  0.2602
20254W        W39788   9.579   8.359   0.873 -0.1924  0.1889 -0.0390
20255W        W39789   5.621   6.333   4.047 -0.0033 -0.2932  0.0427
20256W        W39790   0.084   0.266   3.221 -0.3852 -0.2896 -0.0740
20257W        W39791  11.307  18.265   3.144 -0.1409 -0.1238 -0.0955
20258W        W39792   2.110  13.749   3.061 -0.0479  0.0815 -0.0482
20259W        W39793   5.006   5.975  13.132 -0.0888  0.2515  0.0353
20260W        W39794  13.919   0.530   9.526  0.1122 -0.1292 -0.0513
20261W        W39795  10.901  18.019   0.406 -0.0333  0.1478  0.0619
20262W        W39796   5.141  15.644  14.249  0.0086 -0.1467  0.0065
20263W        W39797  14.660  13.251  14.714 -0.0962  0.2593 -0.1386
20264W        W39798  10.360   2.262  11.025  0.1557 -0.0147  0.1247
20265W        W39799  14.918  16.264   1.789  0.0127  0.4994 -0.0605
20266W        W39800  19.066  15.494  12.314 -0.1303 -0.0058 -0.1211
20267W        W39801   1.050   2.790   9.937 -0.1355 -0.1275  0.1401
20268W        W39802   5.720   1.254   5.000 -0.0157  0.1311 -0.0065
20269W        W39803   7.222  13.469  14.706  0.1280  0.1553 -0.2704
20270W        W39804   7.321   8.690  10.994 -0.2953 -0.3251  0.1117
20271W        W39805  17.923  16.167  12.027  0.1292 -0.0581 -0.0359
20272W        W39806   3.284  13.303   4.078 -0.2069  0.2092  0.2778
20273W        W39807   3.432  15.738  12.230  0.2045 -0.0208 -0.3975
20274W        W39808   7.320  10.356  13.788 -0.0294  0.1892  0.1702
20275W        W39809  14.063  10.555   3.540 -0.0587  0.1371 -0.0217
20276W        W39810  15.026   1.408   2.509 -0.0877 -0.0095  0.0183
20277W        W39811   6.774  14.792  12.538  0.2112  0.0063 -0.1770
20278W        W39812  16.293  11.663   4.031 -0.1623  0.0735 -0.0384
20279W        W39813  15.218  11.605   4.495 -0.3110  0.0157 -0.0266
20280W        W39814  10.701   6.056   2.755  0.1169  0.1018  0.0265
20281W        W39815  17.863  13.724   5.036  0.2633  0.0331  0.0588
20282W        W39816   1.044   6.048  13.371  0.0412 -0.0280  0.1394
20283W        W39817   6.212   9.399  11.483 -0.1095  0.0309 -0.0393
20284W        W39818  16.927  11.751   2.692  0.2145  0.3600 -0.0343
20285W        W39819  13.194   6.226  14.604  0.0638 -0.1245  0.0816
20286W        W39820  13.095   5.534   2.924 -0.3123  0.1070 -0.1747
20287W        W39821  11.305  17.799   0.717  0.2392 -0.3263 -0.0749
20288W        W39822  13.319   4.746  10.330  0.1091 -0.1628  0.0237
20289W        W39823  15.435   4.565  13.410  0.0255 -0.0860  0.1530
20290W        W39824  11.765  17.171  12.894 -0.1660  0.0772 -0.3233
20291W        W39825   6.764   3.923  13.473 -0.3008 -0.0237 -0.0362
20292W        W39826   6.821  10.947   2.973  0.1991 -0.3506  0.1407
20293W        W39827   6.316   8.190  12.912  0.1259 -0.0940 -0.1002
20294W        W39828   4.092   9.809  12.062  0.2271  0.2818 -0.2521
20295W        W39829   7.900  17.814  11.946  0.1497  0.0850 -0.0900
20296W        W39830  10.773   9.542   4.594  0.2634  0.0179 -0.0716
20297W        W39831   4.358  11.824  12.819 -0.0251  0.3580  0.1626
20298W        W39832   1.479   2.949  12.589  0.2860  0.1677  0.1947
20299W        W39833  12.580  17.517   2.671 -0.2042  0.0804 -0.1727
20300W        W39834  10.641   7.970   3.702  0.1957 -0.1143 -0.0853
20301W        W39835   3.340  17.571   3.521  0.0669  0.1618 -0.1379
20302W        W39836   3.474  16.759   0.492  0.2894  0.0665  0.1478
20303W        W39837   1.045  14.637   1.753 -0.3119  0.2765  0.4809
20304W        W39838   4.972  14.579  12.878  0.1987 -0.0390 -0.1588
20305W        W39839   5.837   6.767   1.264  0.0253  0.1253  0.0322
20306W        W39840  17.228  14.524   0.647 -0.0013 -0.0450 -0.6130
20307W        W39841  16.840  13.217   5.044  0.0036  0.0422  0.1634
20308W        W39842  11.351   6.947   3.177  0.3617 -0.0465  0.0296
20309W        W39843  15.509  17.442  12.784 -0.0660  0.0003 -0.0865
20310W        W39844   5.065  10.306  14.117  0.4058  0.0964  0.3732
20311W        W39845   1.842  12.451   1.028  0.1085 -0.1581  0.2524
20312W        W39846   1.707   2.704   0.962 -0.0452  0.0689 -0.1136
20313W        W39847   6.691  12.365  12.943  0.0301  0.4235  0.3253
20314W        W39848   5.383  16.815   0.884 -0.2327 -0.3331  0.0379
20315W        W39849  10.026   0.553  14.011  0.1250 -0.1042 -0.2519
20316W        W39850  14.397  12.378  13.341 -0.0139 -0.0998 -0.1500
20317W        W39851   5.958   8.587   3.645  0.0083 -0.0273  0.1001
20318W        W39852   1.455   5.934   1.804 -0.0964 -0.1066 -0.2889
20319W        W39853  15.611  19.067   4.261  0.1901 -0.0322 -0.0835
20320W        W39854  18.015   0.701  10.501 -0.1621  0.1564  0.0724
20321W        W39855   2.407  13.368   1.416 -0.1783 -0.2524 -0.1278
20322W        W39856   6.536   0.029   3.253 -0.1530  0.1766  0.0404
20323W        W39857   5.956  11.564  12.609 -0.0988 -0.0481 -0.1517
20324W        W39858  11.833   7.688  12.165  0.0553 -0.0890 -0.0894
20325W        W39859   6.649  18.105   3.956  0.2085  0.0455  0.2113
20326W        W39860  14.229  12.650  12.965 -0.0931  0.2501 -0.1414
20327W        W39861  18.887   8.146   2.874  0.0739  0.0080  0.0831
20328W        W39862   8.985  16.784   0.848 -0.0128  0.0651  0.2802
20329W        W39863   3.586  12.471  11.023  0.2014  0.1213 -0.0133
20330W        W39864  18.179   6.056   1.543 -0.1453 -0.0111  0.0723
20331W        W39865  16.399  15.562  11.375 -0.1190 -0.0464 -0.2061
20332W        W39866   8.399  13.674  12.599 -0.2662 -0.0267 -0.0307
20333W        W39867   2.018  10.960   5.275  0.1021  0.0372  0.0490
20334W        W39868  14.135  14.884   0.256 -0.1231 -0.3754  0.0113
20335W        W39869   6.745  18.170  10.719  0.2376  0.0251 -0.0070
20336W        W39870  15.106   0.172   1.605  0.0110 -0.0155 -0.2106
20337W        W39871  18.036  17.212  12.375  0.1297  0.2308 -0.0425
20338W        W39872  12.582  16.510   2.643  0.2830 -0.2985  0.2523
20339W        W39873   4.047   9.973  10.412 -0.1374 -0.1376 -0.2718
20340W        W39874   8.781  17.587   0.472 -0.0002  0.1482 -0.0954
20341W        W39875  10.334  15.534   3.898  0.1574  0.0116 -0.0550
20342W        W39876   0.370  10.398  13.639  0.3955  0.1072 -0.1815
20343W        W39877  12.636   5.218  13.323 -0.1964 -0.1581  0.0321
20344W        W39878   9.941   1.504  11.133  0.4662  0.0024 -0.0084
20345W        W39879  13.959  10.603   0.705 -0.3692  0.4625  0.0442
20346W        W39880  18.492  17.682   1.501  0.1972  0.1301  0.4687
20347W        W39881   7.988   8.850   0.821 -0.0872  0.0196  0.1144
20348W        W39882   9.591  15.045   3.722  0.1757 -0.4685 -0.0799
20349W        W39883   4.481  17.936   1.605 -0.0577  0.0050 -0.2828
20350W        W39884  10.635  14.780  14.669  0.2701  0.1148 -0.1772
20351W        W39885   8.075   1.361   4.046  0.0477 -0.0945  0.0314
20352W        W39886   9.480   9.672   4.183 -0.1835  0.3148  0.0180
20353W        W39887  17.622  18.358   2.095 -0.3067 -0.1404  0.0463
20354W        W39888  11.014  11.783  11.386  0.0723  0.0772 -0.1812
20355W        W39889   4.092   6.099   3.502 -0.0724 -0.1110 -0.0977
20356W        W39890  13.730   5.097  13.271  0.1462  0.0161  0.0413
20357W        W39891   1.980   3.002   1.560 -0.2846 -0.0362  0.0407
20358W        W39892   1.751  15.889   1.293  0.2350  0.0370 -0.0883
20359W        W39893   4.317   1.293   1.780  0.5556 -0.0935 -0.0921
20360W        W39894  14.964   9.134  12.581  0.4228 -0.1462 -0.0629
20361W        W39895  12.359   5.549   4.278 -0.0368 -0.0906  0.0051
20362W        W39896   7.009   5.893  11.973 -0.3650 -0.2297  0.0932
20363W        W39897   0.305   7.772  13.510  0.1172 -0.1477  0.2472
20364W        W39898  16.273   6.702  10.533 -0.3047 -0.2903  0.0132
20365W        W39899   6.455  16.534   2.538  0.1751  0.5041 -0.0511
20366W        W39900   5.213  15.041  11.335  0.0180  0.3932 -0.0651
20367W        W39901  11.084   0.648   0.141 -0.1007 -0.0457  0.1050
20368W        W39902  10.068   2.631  11.252 -0.2084 -0.2304  0.3319
20369W        W39903   5.656   9.342  13.662  0.0463 -0.2069  0.0228
20370W        W39904  10.139  10.332  12.423  0.1135  0.0389 -0.0337
20371W        W39905  16.219  15.579  11.921  0.1514  0.1339  0.1188
20372W        W39906   4.041  11.256   3.417  0.1553 -0.0842 -0.2525
20373W        W39907   9.167  11.808  13.555 -0.0302  0.0697 -0.2138
20374W        W39908  13.731  11.624  12.055  0.0113 -0.2245  0.0057
20375W        W39909   9.275  10.264   5.655  0.2306 -0.1066 -0.0769
20376W        W39910  17.699   1.346   3.903 -0.0822 -0.4218  0.3705
20377W        W39911   4.944   5.012   4.111 -0.2130  0.2266 -0.0409
20378W        W39912  11.261   2.645   3.614  0.0150 -0.2142  0.2394
20379W        W39913   7.485  18.998   2.185 -0.1283  0.1874  0.2774
20380W        W39914   4.465  17.270  14.553  0.1698  0.4112 -0.1398
20381W        W39915   7.304   4.582   1.027  0.2056  0.1438 -0.2982
20382W        W39916   4.046   4.518   1.234 -0.1277  0.0789  0.3336
20383W        W39917   2.183   3.174   2.278 -0.1228  0.0351 -0.1335
20384W        W39918  10.147   3.410   2.266  0.0695 -0.1393  0.2685
20385W        W39919   4.446   3.470  11.954  0.1196  0.0502 -0.1789
20386W        W39920  16.239   8.308   1.854  0.1612 -0.0247  0.1758
20387W        W39921   5.621   4.523  13.603  0.0333  0.1121  0.1203
20388W        W39922  11.445   1.704   3.876  0.3581  0.1319 -0.0685
20389W        W39923  14.927  19.102   0.346 -0.0284 -0.2813  0.0900
20390W        W39924  16.846   2.589  11.467  0.0363  0.1268  0.2498
20391W        W39925   9.078   9.264   3.929  0.0146 -0.1885 -0.0643
20392W        W39926  13.716  11.919  11.189 -0.3676  0.0371  0.0914
20393W        W39927  11.228   6.896   4.500 -0.1916 -0.1767 -0.2323
20394W        W39928   8.188  11.396  11.754  0.0691 -0.0530 -0.1835
20395W        W39929   1.645  12.122   4.183 -0.1255 -0.0818  0.1506
20396W        W39930   9.050  17.860   0.891  0.1228 -0.1712 -0.0974
20397W        W39931  10.708   4.672   0.086  0.0305  0.0538 -0.3882
20398W        W39932  14.338  10.025   0.324 -0.1798  0.2290  0.1641
20399W        W39933  18.328   9.704   1.456 -0.1025 -0.3500  0.0459
20400W        W39934  17.951  18.659  11.625 -0.1120  0.0310 -0.2389
20401W        W39935  16.253   6.493   1.382  0.0773  0.1497  0.0588
20402W        W39936   1.308   5.197  10.721  0.1366  0.0572  0.1443
20403W        W39937   2.490   9.465   3.321  0.4969 -0.0525  0.0155
20404W        W39938   5.774  16.203  14.795 -0.0881 -0.1256 -0.0752
20405W        W39939  18.937   0.137   3.912 -0.3456 -0.1069  0.1180
20406W        W39940   9.691   9.053   5.636 -0.0431  0.0271  0.0146
20407W        W39941   6.627   9.014   2.004  0.2285  0.1831  0.0504
20408W        W39942  17.108   1.656  10.959 -0.1031 -0.0306 -0.0615
20409W        W39943   2.112   8.055   3.285  0.2035  0.3108  0.1430
20410W        W39944  11.970   6.365  13.937  0.1430 -0.0959 -0.0166
20411W        W39945   2.750  13.047   0.494 -0.0825  0.1441 -0.2630
20412W        W39946  18.529   8.416   3.670 -0.0641 -0.1748 -0.2702
20413W        W39947   1.889   7.946  12.746 -0.1937 -0.2167 -0.1069
20414W        W39948   6.687  12.372  10.118  0.0417  0.0087  0.1275
20415W        W39949   0.070   3.987  12.468  0.1691  0.2435  0.0897
20416W        W39950   4.340  12.080   2.217  0.0083  0.0375 -0.1641
20417W        W39951   9.329   7.193   4.199  0.4360 -0.4576 -0.2846
20418W        W39952  14.380  17.331  13.793  0.1584 -0.1314 -0.1506
20419W        W39953   5.653   5.482   2.977 -0.1795 -0.0415  0.2063
20420W        W39954  13.376  10.460   2.926 -0.1258 -0.1633 -0.1641
20421W        W39955   5.955   8.987  12.345  0.2160 -0.1213  0.0850
20422W        W39956   8.646   8.230  11.051 -0.1705 -0.2797  0.0795
20423W        W39957  19.025   9.105  13.823 -0.2095 -0.2762  0.1800
20424W        W39958   9.945   9.148  12.530  0.1151 -0.0118  0.3212
20425W        W39959  13.384  12.628  14.580  0.1913  0.1271 -0.0334
20426W        W39960   9.403   5.421   4.058  0.1267  0.0878 -0.0218
20427W        W39961   5.480   3.070  11.719 -0.1010  0.0502  0.0570
20428W        W39962   2.997   2.710   1.800 -0.1273 -0.2838 -0.2450
20429W        W39963  14.655  10.963  12.975  0.0433  0.0172  0.2028
20430W        W39964   1.934   6.325   2.586  0.2359  0.3386 -0.0867
20431W        W39965  10.021  12.041  11.512 -0.2708  0.0797  0.2264
20432W        W39966   2.595   7.524  14.239 -0.0616  0.0403  0.0551
20433W        W39967  13.758   6.753  12.006 -0.1695 -0.1039 -0.1667
20434W        W39968   3.852   7.891  10.873 -0.0949 -0.2295 -0.1987
20435W        W39969   9.820   5.212   1.179  0.1406  0.0612 -0.0269
20436W        W39970   3.915   8.364  10.526  0.2374 -0.2676 -0.0874
20437W        W39971  16.775  12.924   1.993 -0.2128  0.2242  0.0069
20438W        W39972   0.562   3.559  11.191 -0.0479  0.0809 -0.2606
20439W        W39973  16.448   6.575   0.495  0.0106 -0.1369 -0.3848
20440W        W39974   9.846   0.269   1.489  0.2576 -0.2265 -0.0367
20441W        W39975   7.748  15.738   3.517  0.1768  0.0121  0.0473
20442W        W39976   1.018  15.770  11.598  0.1326 -0.2612 -0.2711
20443W        W39977  13.801   3.974  11.353  0.2384  0.1562 -0.0077
20444W        W39978   5.426   9.274   0.238  0.3000 -0.1571 -0.1726
20445W        W39979  10.889   3.803   1.792 -0.0866 -0.0266  0.0252
20446W        W39980  13.167   3.020  13.652 -0.2638  0.2984  0.0352
20447W        W39981   6.347  14.063  11.436  0.0089 -0.1879  0.0089
20448W        W39982  13.517   4.951  11.092 -0.0103 -0.2308 -0.0020
20449W        W39983  11.953   7.337   3.946  0.1364 -0.3074  0.0716
20450W        W39984  10.115  16.291   0.413 -0.0186 -0.0078  0.0747
20451W        W39985   2.025   1.197   3.084  0.1832  0.0748  0.3891
20452W        W39986  18.613  16.566   3.814 -0.1391 -0.1724 -0.0615
20453W        W39987  12.144   9.012  12.233 -0.0120  0.0551 -0.0281
20454W        W39988   4.187  14.587   4.413  0.0483  0.0448  0.1756
20455W        W39989   2.942   2.146   9.605 -0.1904 -0.0170 -0.4003
20456W        W39990   1.580   0.877   2.032  0.0178 -0.1273  0.2446
20457W        W39991  13.918   1.922  12.887 -0.1887 -0.1538 -0.2476
20458W        W39992   9.658   2.062  14.484  0.0443  0.2054 -0.2970
20459W        W39993   0.239  18.625  13.539  0.3385 -0.0519  0.3948
20460W        W39994  12.252  12.031   0.689  0.0652 -0.1445  0.1465
20461W        W39995  18.525  11.113   2.029 -0.2661  0.1894  0.2439
20462W        W39996   5.175   5.843  14.452 -0.3290 -0.2306  0.0860
20463W        W39997  16.521   1.324   1.722 -0.1563  0.2247  0.1629
20464W        W39998   1.848  12.984  10.790  0.1754 -0.3246  0.0713
20465W        W39999   8.411   1.900   2.899  0.1503  0.0694  0.0774
20466W        W40000  15.041   0.414   2.155 -0.0055  0.2573 -0.0273
20467W        W40001   4.683   6.653  10.304  0.0154 -0.1466 -0.3754
20468W        W40002  13.081  17.444   2.638  0.0377 -0.2158 -0.0982
20469W        W40003   3.889  15.762  12.009  0.0263 -0.4415  0.3639
20470W        W40004  14.539  11.807  14.126  0.0560 -0.0641  0.2073
20471W        W40005   6.334   6.639  11.015  0.2260  0.1551 -0.0682
20472W        W40006   8.532   1.583   3.902 -0.2104  0.2367 -0.2470
20473W        W40007   5.821   8.247   3.220 -0.1212 -0.2347 -0.3039
20474W        W40008   2.470  12.037  14.592  0.1740 -0.2615 -0.0868
20475W        W40009  18.980   1.940   1.651  0.3811  0.0946 -0.3757
20476W        W40010   5.939  15.818   4.101 -0.3392 -0.0707 -0.2562
20477W        W40011   2.917  14.282   0.101 -0.2406 -0.0694  0.0405
20478W        W40012   1.656   3.108   3.231 -0.0813 -0.1191  0.0409
20479W        W40013   2.949  12.975   3.950  0.2329  0.2263  0.0382
20480W        W40014   2.615   3.144   5.019  0.1624 -0.0942 -0.1090
20481W        W40015   4.700   4.507   3.599 -0.2906  0.0710  0.2425
20482W        W40016  15.258  16.913   0.529 -0.2229  0.1122  0.0304
20483W        W40017  19.027   7.234   1.483  0.5082 -0.1962 -0.1335
20484W        W40018  17.288   1.150   3.704 -0.0291  0.0435 -0.3086
20485W        W40019  12.095  16.761   4.394  0.1040  0.0043 -0.1426
20486W        W40020   4.758  15.217   1.174  0.3578 -0.2417 -0.0936
20487W        W40021   6.766  10.905   2.222 -0.1204 -0.0335  0.1372
20488W        W40022   6.697  14.487  10.512 -0.0149  0.1348 -0.2189
20489W        W40023   6.070   8.899   2.212 -0.1793 -0.0617  0.0230
20490W        W40024  10.202  17.609  14.657  0.0695 -0.0180  0.0055
20491W        W40025   3.532  10.153   4.318 -0.2082  0.2172  0.1359
20492W        W40026   4.930  12.588  13.095 -0.1866 -0.1295  0.1876
20493W        W40027  12.504   4.585   0.177 -0.0642 -0.0058 -0.3446
20494W        W40028  10.508   2.086   0.133  0.1107  0.0913 -0.0654
20495W        W40029   8.988  18.109   0.404  0.1958  0.1305 -0.2171
20496W        W40030  10.894  11.871  10.597 -0.1095  0.1213  0.2906
20497W        W40031   1.531  14.327  12.654  0.2655  0.1045  0.2600
20498W        W40032   9.630   4.091  14.666  0.1747  0.1184  0.0096
20499W        W40033   2.578   9.022  14.106  0.1267  0.0718 -0.0827
20500W        W40034   7.743   4.871  10.990  0.1021  0.3156  0.1435
20501W        W40035  15.816  14.901   3.917  0.0408  0.0250  0.2615
20502W        W40036  11.831  15.124   1.996 -0.1031  0.1497 -0.0811
20503W        W40037  15.645  18.745  11.463  0.2317 -0.2587  0.0439
20504W        W40038  10.117  14.422   2.954 -0.0167 -0.1495  0.1492
20505W        W40039   8.768   2.340   4.284 -0.3030  0.1522  0.3718
20506W        W40040   6.866   3.813   9.462  0.0568  0.0699  0.1413
20507W        W40041   8.824  11.986  14.578 -0.1839  0.1323 -0.1586
20508W        W40042   8.011  13.959   1.704  0.0774 -0.1722 -0.0193
20509W        W40043  13.217  16.249   3.370 -0.1859 -0.0402 -0.3047
20510W        W40044   4.832  11.613   4.145 -0.1854 -0.0170 -0.1789
20511W        W40045   0.025   2.190   0.033 -0.0119  0.1081 -0.1693
20512W        W40046  18.436  13.451  10.790 -0.0302  0.1829 -0.1299
20513W        W40047   3.577  17.916   2.920  0.0582  0.0718  0.1119
20514W        W40048  18.579   3.222  12.424  0.4042  0.2180 -0.1652
20515W        W40049   3.581  10.298  14.364  0.0956  0.1800 -0.0043
20516W        W40050   7.777   2.458   0.471 -0.0230 -0.1014  0.0542
20517W        W40051   2.100   3.430  10.789  0.0437  0.0193  0.1924
20518W        W40052   5.445  11.631   1.709  0.1766  0.1363 -0.2230
20519W        W40053   0.356   6.779   4.934 -0.2951  0.0774  0.0169
20520W        W40054   4.502  18.048  12.064 -0.0680  0.4222 -0.2779
20521W        W40055   4.328   9.782  12.631  0.0717 -0.4309  0.1012
20522W        W40056  12.497   0.508  14.678 -0.1306 -0.5489  0.2831
20523W        W40057   1.033   5.814   3.422  0.2177  0.0884  0.3113
20524W        W40058  18.809  12.298   0.060 -0.2136 -0.3221 -0.3322
20525W        W40059  17.960   4.826   3.631 -0.2198  0.0038 -0.1833
20526W        W40060   3.113  11.388  13.980  0.1245  0.0526 -0.3638
20527W        W40061  11.085  13.462  13.283  0.1272 -0.3487  0.2846
20528W        W40062  17.023  10.507   0.695  0.0979  0.1219  0.3399
20529W        W40063   3.423   6.020  12.765 -0.0178  0.3926 -0.1761
20530W        W40064  13.463   6.667  10.891 -0.2336  0.1521 -0.1001
20531W        W40065   3.267  19.095   0.697  0.0638 -0.2213 -0.3890
20532W        W40066  10.830   3.291   1.564 -0.0320 -0.0782  0.0175
20533W        W40067  17.197   9.364   0.515  0.0146 -0.1541 -0.0433
20534W        W40068   4.470  11.984  10.810  0.1981  0.0314 -0.3902
20535W        W40069  19.065  13.207  12.884 -0.2674 -0.0142 -0.0622
20536W        W40070  17.773  13.444  11.901 -0.0329  0.1730 -0.0316
20537W        W40071   9.798   0.108  11.376 -0.1403  0.2869 -0.0595
20538W        W40072   1.531   0.367  11.387  0.0779  0.0047  0.1393
20539W        W40073   5.509  13.012   3.395  0.3443 -0.1903 -0.0179
20540W        W40074   1.917  18.289   4.417 -0.1983  0.2461 -0.3510
20541W        W40075  18.578  17.480  14.368  0.1793  0.0136 -0.0518
20542W        W40076   4.130   5.142  12.744 -0.2573 -0.1956 -0.0023
20543W        W40077   7.470   1.659  14.252 -0.1583 -0.3349 -0.2307
20544W        W40078   8.012   3.401  11.968  0.2122  0.1574 -0.1900
20545W        W40079   6.780   6.367  13.723 -0.1001 -0.0497  0.3644
20546W        W40080  12.109  14.307  12.409  0.2309 -0.3588 -0.0473
20547W        W40081   4.084   2.928  12.617 -0.0317 -0.2678 -0.0703
20548W        W40082  10.115   7.347   3.621  0.1515  0.0323 -0.0162
20549W        W40083  10.137   8.702  14.395 -0.1733 -0.1660  0.1813
20550W        W40084  10.357  10.235  11.140  0.1430 -0.1876  0.0917
20551W        W40085   3.578  16.101   2.427 -0.0072  0.1178 -0.0555
20552W        W40086  15.541   9.665  13.672 -0.0569 -0.0284 -0.0648
20553W        W40087  18.561  15.646  13.264 -0.0594  0.0172  0.0093
20554W        W40088   0.246   6.885  11.322  0.2531 -0.1552 -0.0859
20555W        W40089  14.340  10.140  14.124 -0.2030 -0.2031  0.1662
20556W        W40090   8.798  12.188   1.967 -0.0454  0.0073  0.0761
20557W        W40091  10.017  12.741   0.747 -0.2142 -0.0677  0.3078
20558W        W40092   2.971   2.487   0.288 -0.0614  0.2820  0.1598
20559W        W40093  14.503  16.137  14.436  0.1317  0.1590 -0.0268
20560W        W40094  12.413   2.456   4.008 -0.4433 -0.1101 -0.2606
20561W        W40095  11.639  12.838  14.706 -0.1868  0.1760  0.1121
20562W        W40096   4.402   3.056  10.759 -0.5423 -0.1924 -0.0097
20563W        W40097   8.784  13.104  12.049  0.1889  0.6079  0.2036
20564W        W40098  15.374  18.079   2.454  0.2140  0.0281 -0.2889
20565W        W40099  12.385   5.674   1.597 -0.0881 -0.0607  0.3254
20566W        W40100   7.791  13.199   3.565  0.1655  0.0875 -0.0382
20567W        W40101   1.220   4.213  11.000  0.0737 -0.2681 -0.1308
20568W        W40102  14.028   4.931  14.284 -0.0432 -0.0908  0.2311
20569W        W40103  14.862   1.981   1.556  0.0040  0.1889  0.2555
20570W        W40104  11.069   7.575   3.883  0.1122  0.2450  0.2320
20571W        W40105  12.810   6.733   1.263 -0.1986 -0.0392 -0.3762
20572W        W40106   0.092   0.203   4.712 -0.1585  0.1027 -0.0222
20573W        W40107  18.529   4.306  13.293  0.2938 -0.2106  0.0205
20574W        W40108   9.065   2.726  10.983  0.1407 -0.2139  0.0634
20575W        W40109  17.293  15.961  13.697 -0.0108  0.0893  0.1459
20576W        W40110   0.683  15.144  14.375 -0.0552  0.3142  0.1978
20577W        W40111   0.203  11.129   0.599 -0.1686 -0.0176 -0.0886
20578W        W40112   9.642   4.308   3.646 -0.0318 -0.3201 -0.0643
20579W        W40113  18.694  12.143  13.469 -0.0310  0.1811  0.1215
20580W        W40114  14.989   7.405  12.981 -0.3639  0.0349 -0.2775
20581W        W40115   6.828  18.520   4.225 -0.1109 -0.0735 -0.0948
20582W        W40116  13.356  13.492  14.553  0.1927 -0.2409 -0.1474
20583W        W40117  10.576   0.473   0.819 -0.0208  0.1570 -0.0140
20584W        W40118   7.243   4.965  10.851  0.1598  0.1523 -0.2485
20585W        W40119   7.336  15.008  11.857  0.2499 -0.1941  0.2162
20586W        W40120  10.789   0.446  13.545  0.1295  0.1702 -0.2201
20587W        W40121  17.698  17.468   0.111  0.1455  0.1131  0.0134
20588W        W40122  10.703  18.473   2.344 -0.1191  0.2803  0.1366
20589W        W40123  10.641   9.585   1.820  0.3935 -0.1491 -0.1613
20590W        W40124   9.972  11.763  14.768 -0.1662 -0.1883 -0.0385
20591W        W40125   6.283   7.088   0.095  0.0929 -0.2630 -0.1957
20592W        W40126  15.700   3.127  13.354 -0.2782  0.2894 -0.1719
20593W        W40127  16.097   1.957   1.239 -0.0706 -0.1358  0.1002
20594W        W40128   4.750  10.500  13.676 -0.0567 -0.2327 -0.2974
20595W        W40129  17.349  13.571  11.693 -0.3343 -0.2993 -0.0018
20596W        W40130  12.704  13.404  10.781 -0.0336  0.2067  0.1494
20597W        W40131   1.528   9.328   2.972 -0.0282 -0.0767  0.1763
20598W        W40132   5.608  12.118  11.987 -0.0825 -0.2497  0.2779
20599W        W40133   3.869  14.728   3.980  0.0122 -0.3125 -0.2194
20600W        W40134   9.493  11.600  11.952  0.2358  0.0627  0.1124
20601W        W40135   2.683  12.236   2.596 -0.0119  0.3816  0.3737
20602W        W40136   0.809  16.658   3.642  0.0709  0.0172  0.3544
20603W        W40137  16.038   2.648   0.531 -0.0787  0.1289 -0.0311
20604W        W40138   5.994  15.334  12.300 -0.3052 -0.0927  0.1374
20605W        W40139  11.735  12.918   4.162 -0.1446 -0.1762  0.1280
20606W        W40140   5.383  16.487  13.223 -0.2037 -0.1945  0.2221
20607W        W40141  11.986  16.168  11.380  0.0141  0.1476  0.0180
20608W        W40142  14.680   8.333  11.265 -0.1794  0.2322  0.2687
20609W        W40143   8.790   6.871   9.755 -0.1057 -0.3360  0.1625
20610W        W40144   0.562   1.909   0.670  0.1920 -0.0016 -0.1166
20611W        W40145  16.239  18.663  12.524 -0.1364 -0.1544 -0.0186
20612W        W40146   5.678   8.264   3.937  0.0039  0.1010 -0.3486
20613W        W40147   0.476  17.006  11.209 -0.2303  0.2143 -0.0790
20614W        W40148   3.699  12.324   0.195 -0.1209  0.1508 -0.0009
20615W        W40149  14.827   5.613  11.028  0.1209 -0.1085  0.0339
20616W        W40150  16.534  16.971   1.677  0.1063  0.3183 -0.1789
20617W        W40151   9.394   1.808  11.169  0.1061 -0.0865  0.0750
20618W        W40152   9.202   8.680   1.996 -0.1422 -0.1480 -0.0539
20619W        W40153  17.671   3.905   1.398 -0.0383 -0.0531  0.2791
20620W        W40154  15.985  16.668  12.753  0.0002 -0.1829 -0.0366
20621W        W40155   6.627  10.093   3.435  0.1686  0.1237  0.1053
20622W        W40156   0.016  14.059   2.488 -0.2737 -0.0336 -0.3833
20623W        W40157  11.145   4.742  14.676 -0.2231  0.0550  0.0769
20624W        W40158  10.507  11.916  14.014  0.1262  0.1777  0.2608
20625W        W40159   8.180  17.520  14.060 -0.1234  0.0207  0.0189
20626W        W40160   6.909   9.125  13.819  0.2758 -0.1446 -0.1100
20627W        W40161   4.929  11.330   3.737 -0.0953 -0.1146 -0.2893
20628W        W40162  18.767  10.185  14.822  0.0323 -0.1460  0.0604
20629W        W40163   0.548   4.685  11.999 -0.2219 -0.0816  0.0796
20630W        W40164   7.752   6.967   0.931 -0.1349  0.2257 -0.0558
20631W        W40165  18.377  13.706   1.441  0.0196  0.0228 -0.2624
20632W        W40166   0.005  14.054  13.605 -0.1735  0.0801 -0.1342
20633W        W40167  15.213  17.010  11.467  0.0147 -0.0822 -0.0062
20634W        W40168   5.842   7.857  13.202 -0.3743 -0.2076  0.2703
20635W        W40169  18.546  16.461   2.057 -0.0506 -0.0988 -0.2205
20636W        W40170   0.816   1.258  14.803  0.1857 -0.0237 -0.0249
20637W        W40171  14.775  16.878   1.818 -0.1550  0.0915 -0.1584
20638W        W40172  11.580   8.945  14.502  0.3668  0.4193  0.1195
20639W        W40173  18.023  12.092  12.860 -0.1868 -0.0022  0.0804
20640W        W40174   0.042   5.863   1.389 -0.1756 -0.2039  0.2911
20641W        W40175   4.215   2.880   0.503  0.0712 -0.0913 -0.2153
20642W        W40176   4.048  17.617  13.691  0.0365 -0.1776 -0.0156
20643W        W40177  15.302  15.598   0.936 -0.0463  0.1009 -0.1647
20644W        W40178   2.989   9.513   0.538 -0.0216  0.1034 -0.0539
20645W        W40179  17.333   4.609   0.812 -0.0759  0.2307  0.2619
20646W        W40180   9.898  14.062   2.546  0.1163 -0.1847  0.0227
20647W        W40181   0.908  16.779  11.969  0.1252  0.0950 -0.1485
20648W        W40182   8.984  12.544  12.078  0.1344 -0.0224 -0.0617
20649W        W40183  10.595  18.103  12.367  0.1713  0.0209  0.1303
20650W        W40184  16.538  10.871   1.918  0.1896 -0.1975 -0.0277
20651W        W40185   8.017  15.410   9.905 -0.0304 -0.1396 -0.1934
20652W        W40186   8.796  16.335  10.085 -0.1005  0.1460  0.2698
20653W        W40187   7.759   7.852  14.488  0.1559 -0.1373  0.1526
20654W        W40188  11.796  18.294  13.434 -0.2488  0.0634 -0.3591
20655W        W40189   3.765   0.837  11.533  0.2111  0.1378  0.0256
20656W        W40190  17.345   9.149   2.476  0.0058  0.0437 -0.1566
20657W        W40191  11.467   6.272  13.139  0.1538 -0.2077 -0.0977
20658W        W40192  18.444  10.960   1.490  0.1598 -0.1989 -0.1281
20659W        W40193   8.408   4.114   0.571  0.3774  0.1854 -0.2513
20660W        W40194  17.738   8.543  11.636  0.0566  0.0810 -0.3309
20661W        W40195  17.615   8.476   1.031  0.1943  0.1617 -0.1954
20662W        W40196   8.217  12.861   2.353  0.1266  0.2394 -0.2037
20663W        W40197   8.865  18.348   1.325  0.0383  0.2007 -0.0557
20664W        W40198  11.708   1.125  14.483 -0.1709  0.0036 -0.0276
20665W        W40199  10.228   9.085   0.293 -0.0366  0.0116 -0.1106
20666W        W40200   3.011   1.756   3.237 -0.1621 -0.2276  0.3536
20667W        W40201   0.334  18.789  14.797 -0.1215  0.1512  0.0907
20668W        W40202  16.806  13.708   0.261 -0.1338  0.2644  0.1111
20669W        W40203   8.331  14.137  12.789 -0.0466  0.0285  0.2719
20670W        W40204   4.378   4.040  10.593 -0.1342  0.2992  0.0143
20671W        W40205  12.042   9.573   0.358  0.1972 -0.0399  0.4172
20672W        W40206   2.578  14.107   3.369 -0.1817 -0.1733 -0.3084
20673W        W40207  10.351  12.284   4.612 -0.1183 -0.1230  0.1494
20674W        W40208   2.670   5.506   0.153 -0.4763 -0.1460  0.3412
20675W        W40209   0.194  15.830   2.241 -0.1581 -0.2057 -0.2497
20676W        W40210   7.847   5.057   4.122 -0.0352  0.0529 -0.0375
20677W        W40211  14.721   0.292   4.269 -0.1392  0.2227  0.1874
20678W        W40212   9.084   7.044   0.243  0.1493 -0.1115  0.0177
20679W        W40213   2.558   3.705   1.799 -0.2997  0.2206  0.0162
20680W        W40214   2.780  14.418   3.964  0.2339  0.2207  0.0342
20681W        W40215   2.604  14.071   1.721 -0.1234  0.2838  0.0686
20682W        W40216  16.806  11.773  12.006  0.1279 -0.1064  0.0103
20683W        W40217  14.127   9.017   4.037  0.3907  0.3564  0.1741
20684W        W40218  15.873  10.482  14.199 -0.0089  0.3057  0.0051
20685W        W40219  10.838   4.202   2.201  0.4910  0.2607 -0.1411
20686W        W40220  18.841   4.759   3.762 -0.1475 -0.4252 -0.1028
20687W        W40221   5.391   0.122   3.448  0.3059  0.1834  0.0902
20688W        W40222  17.011  13.536  13.612  0.3541  0.5765 -0.3303
20689W        W40223   7.149  12.408   3.350  0.1768 -0.0766 -0.3039
20690W        W40224   8.220  16.269   3.745 -0.1488  0.0790  0.0200
20691W        W40225  13.275   7.944   1.690 -0.1079 -0.0591 -0.0273
20692W        W40226  16.692   0.680   2.378 -0.5161  0.2077 -0.0759
20693W        W40227   6.092  14.002  10.853 -0.0791 -0.0402 -0.1709
20694W        W40228  10.062  17.890   0.180  0.0620 -0.1612 -0.1195
20695W        W40229  17.522   9.985   3.168  0.2622  0.3707 -0.0438
20696W        W40230  19.068   0.340  12.925  0.4338 -0.1610  0.0809
20697W        W40231   7.061  17.773   3.533 -0.2237  0.0380  0.2636
20698W        W40232   0.909   7.754  14.314 -0.2071  0.3259  0.1599
20699W        W40233   5.918  14.479   0.082 -0.0942  0.0962 -0.0492
20700W        W40234   8.758  14.736   2.200 -0.2636 -0.2141  0.1939
20701W        W40235   6.057   4.130  10.177  0.1452  0.1559  0.0109
20702W        W40236  13.050   6.058   2.573 -0.0451 -0.1053 -0.4825
20703W        W40237  17.347   4.150  12.427  0.2011  0.0881  0.1922
20704W        W40238   5.984   1.307  13.042 -0.0163 -0.1056  0.1176
20705W        W40239   4.894  13.733   1.441  0.3616  0.0068  0.1803
20706W        W40240  13.096   0.170   0.614 -0.3236  0.2174  0.0207
20707W        W40241   6.067   3.008  10.746 -0.1326  0.0280 -0.2111
20708W        W40242  12.469  15.601  13.460 -0.2041  0.0193 -0.1288
20709W        W40243  15.641   4.083  14.376 -0.1554 -0.1989  0.0601
20710W        W40244  12.307  12.200   1.198 -0.0889 -0.0319 -0.0567
20711W        W40245   0.836   8.687  14.651 -0.0550  0.1397 -0.2163
20712W        W40246  13.632  13.149   0.756 -0.0197 -0.2649 -0.0077
20713W        W40247   3.645  14.169  13.609  0.1743 -0.1321 -0.3150
20714W        W40248   6.034   3.743   2.511 -0.1527 -0.0800  0.3005
20715W        W40249   6.864   6.930  12.407 -0.3496 -0.0805  0.1489
20716W        W40250  15.624  17.018  12.100 -0.0729 -0.2522  0.2137
20717W        W40251   8.118   0.099  13.446  0.0732 -0.1449 -0.1934
20718W        W40252   2.831  14.191  11.820 -0.3599 -0.0231 -0.0341
20719W        W40253  12.637   2.233  10.436  0.2199  0.0808  0.0671
20720W        W40254  10.751   8.585  13.547  0.4528 -0.1097 -0.0011
20721W        W40255  11.456   4.065   4.088  0.2566  0.1805  0.0971
20722W        W40256   5.386  16.427  11.780  0.0027 -0.0249 -0.1163
20723W        W40257   5.558  16.423   3.008 -0.3655 -0.1759 -0.2033
20724W        W40258  15.431  15.663   1.449  0.1805 -0.1036  0.2059
20725W        W40259  11.555   3.953  12.708 -0.0348 -0.6613  0.0578
20726W        W40260   5.372  15.096   4.566 -0.0805 -0.3692 -0.3015
20727W        W40261   4.146   7.638   1.416 -0.3490 -0.1716 -0.0033
20728W        W40262   4.809   5.816  10.251 -0.2248 -0.1963  0.4891
20729W        W40263   5.652  19.054  13.479 -0.0649 -0.0380  0.2259
20730W        W40264  13.809   1.407   3.988 -0.1480  0.0881 -0.0011
20731W        W40265   6.488  17.423   2.317 -0.4814  0.0438 -0.1127
20732W        W40266  10.978   8.239   4.059 -0.2129 -0.1371 -0.2254
20733W        W40267   9.797   7.628  13.514 -0.1376 -0.0423 -0.1566
20734W        W40268  15.295   7.601  10.434  0.0653 -0.0738  0.0047
20735W        W40269   9.790   8.118  14.803 -0.0987 -0.0908  0.2651
20736W        W40270  18.687   9.491   0.152 -0.0203  0.2458  0.0206
20737W        W40271   3.558   3.788  10.934 -0.0639 -0.2296 -0.0604
20738W        W40272   1.523   8.065   0.518  0.0994 -0.0491  0.0076
20739W        W40273   2.878  12.653   0.789 -0.0007 -0.1521 -0.1060
20740W        W40274   7.950   9.892   5.150 -0.2710 -0.0019  0.0184
20741W        W40275  11.335  15.938   1.480  0.2758  0.0964 -0.1519
20742W        W40276   0.880   9.301   5.210 -0.2943 -0.0494  0.2538
20743W        W40277  12.941   2.743  13.295 -0.1787  0.0669 -0.0824
20744W        W40278   6.264   3.139   4.002 -0.2725 -0.2460 -0.2377
20745W        W40279   9.258  12.977  11.158 -0.0307 -0.0427  0.0893
20746W        W40280  10.404   2.531   0.024 -0.1695 -0.2902 -0.1121
20747W        W40281   9.518   4.659  10.713  0.0082 -0.0210  0.2787
20748W        W40282   8.456   8.405   1.759  0.2860 -0.2821  0.2293
20749W        W40283  18.456  10.569   1.839  0.0382  0.0916  0.1292
20750W        W40284  17.724  13.953   3.441  0.2988 -0.1734 -0.1376
20751W        W40285  12.422  11.127   2.496 -0.1609 -0.0996  0.0666
20752W        W40286  14.015  18.264   0.977  0.0287 -0.0429  0.2181
20753W        W40287   1.475   3.485   0.272 -0.2595  0.2280  0.1163
20754W        W40288   6.220   8.011  11.492 -0.2458 -0.1190 -0.0849
20755W        W40289   9.953   1.900   1.026  0.0653  0.1658  0.0057
20756W        W40290   9.844   9.692  10.896 -0.0525 -0.0151  0.1224
20757W        W40291   8.424   5.227  13.958  0.1761  0.5158  0.2955
20758W        W40292  10.440   4.243   0.232 -0.1626  0.0861  0.1070
20759W        W40293   6.948  14.549  11.015  0.0637  0.1258 -0.0196
20760W        W40294  16.104   3.775  14.363 -0.3848 -0.2988 -0.0170
20761W        W40295   9.189  17.536   4.058 -0.2245  0.0179 -0.1216
20762W        W40296  17.602   9.236  14.669  0.1257 -0.0468  0.1990
20763W        W40297  13.000   1.360   4.324  0.0560 -0.0180  0.1421
20764W        W40298   1.248  10.653   1.576 -0.1437  0.0606 -0.2975
20765W        W40299  17.562   1.853   0.060 -0.0792 -0.0521 -0.2264
20766W        W40300   7.519   7.833   2.674 -0.1347 -0.1586 -0.1557
20767W        W40301   1.844   5.100   1.204  0.1603 -0.4096 -0.1140
20768W        W40302   4.185  19.055   1.167 -0.3064 -0.0282  0.1140
20769W        W40303  16.633  18.167   1.789  0.1810  0.1045 -0.2527
20770W        W40304  18.850   4.895  13.992  0.0627 -0.1366  0.0696
20771W        W40305  13.833  17.846   2.498  0.1649  0.1700 -0.3488
20772W        W40306  15.402  18.041   1.982  0.0415  0.1699  0.1051
20773W        W40307  14.704   4.016   3.757  0.0974 -0.0564 -0.0885
20774W        W40308   2.495   2.458  11.591  0.1086 -0.1748 -0.0014
20775W        W40309   9.551  11.510   3.827 -0.0925  0.0090 -0.1968
20776W        W40310  19.019  10.794   3.061  0.0059  0.0615  0.1370
20777W        W40311  11.642   4.973  14.553 -0.1228  0.0873  0.2950
20778W        W40312  13.472   0.994   0.895 -0.2422  0.1721 -0.2224
20779W        W40313  18.746   2.019   5.096 -0.0334 -0.0116 -0.0389
20780W        W40314  17.766   1.546  11.895  0.2091  0.0102  0.0781
20781W        W40315   5.431   5.194  11.529  0.1979 -0.0724  0.1158
20782W        W40316  10.801  12.507   1.553 -0.3737 -0.1708 -0.0604
20783W        W40317   2.581   0.498  10.768 -0.1242 -0.1436  0.1630
20784W        W40318   4.629   3.332  13.430  0.1841 -0.2361 -0.0693
20785W        W40319   7.573  15.389  12.810 -0.2554  0.1866  0.1400
20786W        W40320   8.479   7.387  14.359  0.0436  0.0364  0.0120
20787W        W40321   7.913   7.609   0.526  0.0135 -0.3977  0.1191
20788W        W40322   1.243   8.228   1.952  0.2600 -0.0804 -0.0135
20789W        W40323   3.599  17.377  14.126  0.0581  0.0150  0.0263
20790W        W40324  11.651   3.578  11.947 -0.0838  0.0713  0.3308
20791W        W40325   4.147  13.607   4.859 -0.3894  0.1156  0.1495
20792W        W40326  12.086   5.750   0.950  0.0654 -0.0339  0.1383
20793W        W40327   1.200   1.933   3.102 -0.0813  0.0462  0.1437
20794W        W40328   2.765  13.297  11.252 -0.0934 -0.0066  0.1895
20795W        W40329   3.150  14.180  11.407  0.1127 -0.3339 -0.0363
20796W        W40330   9.882   1.253   9.757  0.3251  0.2262  0.0310
20797W        W40331   2.489  16.304  13.027  0.3051  0.1573  0.2729
20798W        W40332  18.498   5.917  13.482 -0.1916 -0.0680  0.2097
20799W        W40333  15.858   0.864  13.912 -0.0452  0.0636 -0.2628
20800W        W40334   5.902  14.093  11.834 -0.3816 -0.0400 -0.2061
20801W        W40335   6.539  11.495  13.419 -0.0478  0.1262  0.1729
20802W        W40336   6.304   4.182   1.059  0.3342 -0.1026  0.2076
20803W        W40337   0.360   4.642   0.293 -0.0981 -0.1067  0.1909
20804W        W40338   8.673   7.078   1.303 -0.1443 -0.1078  0.0850
20805W        W40339   7.263   2.384  10.999 -0.0552 -0.0554  0.0273
20806W        W40340   1.063   5.906  11.552  0.1395  0.1967 -0.0131
20807W        W40341  17.778  18.922   4.337  0.1673 -0.1677 -0.0076
20808W        W40342   1.320  11.229   3.010 -0.0321 -0.1274 -0.1167
20809W        W40343  18.245   8.586  12.220 -0.0224 -0.1689  0.4029
20810W        W40344  14.346  17.973  13.164  0.0354 -0.0138 -0.1712
20811W        W40345  18.127  16.262  14.545 -0.1969  0.4930 -0.3270
20812W        W40346  14.148   0.017  11.771  0.1703 -0.0844  0.1666
20813W        W40347  11.001  15.082  11.619  0.1669  0.0535  0.1659
20814W        W40348   9.677   5.901   4.329  0.0691  0.5813 -0.1205
20815W        W40349   3.868  13.717  14.484  0.3092 -0.0027 -0.0316
20816W        W40350   7.867  17.202   0.634  0.2606  0.0510  0.4165
20817W        W40351  18.054  14.790   3.349 -0.2235 -0.1733  0.2641
20818W        W40352  12.665   3.202  10.920 -0.1645  0.2112  0.0166
20819W        W40353  13.586  10.422  12.626  0.3613 -0.2841 -0.0510
20820W        W40354  17.454  11.156   3.161  0.0214  0.0919  0.2960
20821W        W40355   8.192  17.433   2.620  0.2763 -0.1551 -0.1467
20822W        W40356  16.315   5.830  14.817  0.1027  0.1450 -0.3959
20823W        W40357   5.891   5.014  11.447 -0.2729  0.1631  0.0632
20824W        W40358  17.720  12.048  10.164  0.1453  0.1691  0.1057
20825W        W40359  14.059   9.708  12.978 -0.0292  0.0648  0.1488
20826W        W40360   1.074  16.756  12.536  0.0023  0.4101  0.0201
20827W        W40361  11.426  17.138  14.215 -0.1363 -0.0802  0.0605
20828W        W40362  16.300  16.824  13.219 -0.1314 -0.0883 -0.4655
20829W        W40363  15.530   5.752   2.455  0.2407 -0.0433  0.2811
20830W        W40364  18.253  14.152  11.510  0.1944  0.1459  0.1331
20831W        W40365  18.839   9.363   0.680 -0.3605 -0.0121 -0.2375
20832W        W40366   6.999  10.268   0.726  0.0208 -0.0139 -0.5925
20833W        W40367  18.522  16.425   0.002  0.1258 -0.4930  0.3535
20834W        W40368  11.539   2.562  11.846 -0.0024 -0.2030 -0.1057
20835W        W40369  10.827   8.785  14.109  0.2501  0.1182  0.2965
20836W        W40370   8.826   3.802   4.510  0.1430 -0.0848  0.0115
20837W        W40371  10.662  18.430   0.251 -0.1849 -0.5878  0.2147
20838W        W40372  16.965  12.865  11.624 -0.2371 -0.0072  0.3670
20839W        W40373   0.084   8.374  11.153  0.0936 -0.0913  0.4060
20840W        W40374  12.199   0.964  13.524 -0.0945 -0.1422  0.2602
20841W        W40375   1.975   4.865   4.585  0.1537  0.0392 -0.3415
20842W        W40376   1.076   1.717  10.591 -0.3183  0.2107  0.1876
20843W        W40377   8.581   5.676   1.783  0.1215 -0.0243 -0.1746
20844W        W40378   1.391   4.686  13.294  0.2951 -0.0151  0.1650
20845W        W40379  11.133  11.018  12.126 -0.0207 -0.0421  0.3000
20846W        W40380   5.388  11.269   0.936 -0.1407  0.1161 -0.2361
20847W        W40381  18.993   0.594   3.627  0.1583  0.0425 -0.0332
20848W        W40382   5.517   5.312   1.232 -0.0192  0.0853 -0.1847
20849W        W40383  13.542  14.645  12.067 -0.2390 -0.1447  0.2291
20850W        W40384  17.719   2.620   2.089 -0.1595 -0.0669  0.0680
20851W        W40385  13.828   3.875   3.862 -0.0245 -0.0393 -0.0767
20852W        W40386   1.676  13.504   3.104  0.2517 -0.0732 -0.2320
20853W        W40387  13.055   1.344   0.821 -0.2012 -0.0303  0.1670
20854W        W40388  10.174   5.779  13.656  0.2582 -0.1596 -0.0619
20855W        W40389  10.940  16.196   2.944  0.4324  0.2956 -0.0564
20856W        W40390  19.004   7.804   4.167  0.0078  0.4912 -0.0888
20857W        W40391   0.460   6.396   2.546 -0.3535  0.1175 -0.1601
20858W        W40392   2.625   4.913  11.477  0.1324 -0.1621 -0.1290
20859W        W40393   8.099   6.248   2.109  0.2141  0.1620  0.1412
20860W        W40394  12.836  14.437  13.256  0.0487 -0.3492 -0.3743
20861W        W40395   5.610   2.042  13.282  0.3084  0.2497 -0.1928
20862W        W40396  17.056   3.754   0.689  0.3579 -0.4183 -0.2520
20863W        W40397   7.132  16.840   4.317 -0.2640 -0.0341 -0.4656
20864W        W40398  11.533  11.790   1.522 -0.1204  0.0083  0.0541
20865W        W40399  13.291  14.506  13.056 -0.1576 -0.0653  0.0038
20866W        W40400   7.309  13.720   2.891 -0.1675 -0.1171  0.2479
20867W        W40401  18.183   0.334   0.789  0.1260 -0.0960  0.3402
20868W        W40402   6.791  15.552  11.141  0.0138  0.0396 -0.1092
20869W        W40403   9.096   8.293   1.124 -0.2333 -0.3594 -0.1014
20870W        W40404  14.418   8.217   0.676  0.2049  0.0120  0.2498
20871W        W40405   9.748  16.943   4.121 -0.3203 -0.5477  0.0775
20872W        W40406  16.890   4.955   2.941 -0.1371 -0.5512  0.3454
20873W        W40407  10.630   7.632   2.169 -0.0764 -0.0216 -0.0223
20874W        W40408   1.065   6.945  13.452 -0.0703 -0.1999 -0.1793
20875W        W40409  19.075  13.610  13.274  0.0200 -0.0584  0.0465
20876W        W40410  15.460   6.953  10.618  0.0520  0.3752 -0.2352
20877W        W40411   5.459  13.961  13.564  0.2459  0.0288 -0.0402
20878W        W40412  15.937   1.772  11.044 -0.1155  0.2912  0.2434
20879W        W40413   9.132   5.586   0.265 -0.1322  0.0408 -0.2392
20880W        W40414   3.028  13.928  13.026  0.1436  0.1863  0.5790
20881W        W40415  14.674  11.296  12.209  0.1656  0.2251  0.1346
20882W        W40416  11.040  11.755   3.535  0.3160  0.1428 -0.0079
20883W        W40417   5.340  12.582   1.725  0.1904  0.0812 -0.0721
20884W        W40418  13.772  10.084   3.349 -0.1132  0.4531  0.2772
20885W        W40419   5.336  12.714  12.823  0.2735 -0.0532  0.2459
20886W        W40420   0.862  17.438  10.292  0.1398 -0.0771  0.0873
20887W        W40421  14.276  16.650  13.026 -0.1351  0.1918 -0.1675
20888W        W40422  11.059   9.388  12.249  0.0447 -0.0977 -0.1238
20889W        W40423  13.396   7.365   2.966 -0.0139  0.3689 -0.1958
20890W        W40424  16.776  18.568   2.041 -0.2495 -0.0977 -0.0064
20891W        W40425  18.975  16.267   2.191  0.2908  0.1822  0.0246
20892W        W40426   7.403  11.536  12.862 -0.1034 -0.1376 -0.0788
20893W        W40427  12.004  15.668  11.627  0.3258  0.0086 -0.1288
20894W        W40428   6.213   4.982  12.320 -0.0349 -0.0123 -0.0897
20895W        W40429   5.349   8.416  14.523  0.3543 -0.0999 -0.2735
20896W        W40430  10.246  16.019   1.375  0.1422 -0.1092  0.0363
20897W        W40431   2.688  11.628  12.414  0.0397 -0.0976 -0.3621
20898W        W40432   3.531   7.227   3.331  0.0091  0.0563  0.0767
20899W        W40433   9.673  18.762  11.481  0.0249 -0.0480 -0.2918
20900W        W40434   5.438   0.645  12.944 -0.0194 -0.3879  0.0059
20901W        W40435   2.522  18.050   4.464 -0.0434  0.0189 -0.1116
20902W        W40436  11.441   5.094   2.569 -0.1873 -0.1640  0.0087
20903W        W40437   0.833   8.907   1.801  0.0274  0.1508 -0.0599
20904W        W40438  14.344   6.370  13.525 -0.1842 -0.1509  0.0180
20905W        W40439   6.682   9.908  10.532 -0.3085  0.2029 -0.0631
20906W        W40440   5.085   6.703   0.146  0.3620 -0.0499 -0.0735
20907W        W40441  15.377   0.935  14.028  0.3168 -0.0147 -0.1758
20908W        W40442  13.495   7.917   3.757  0.0682  0.1332 -0.0034
20909W        W40443   2.996   2.640  12.310  0.0143 -0.1537  0.2652
20910W        W40444   9.958  12.865   2.899  0.0614 -0.1397 -0.1066
20911W        W40445   0.623  13.489   2.807 -0.1744  0.1361  0.0637
20912W        W40446  18.339   8.133   0.181  0.1219  0.2558  0.2744
20913W        W40447  14.197   8.900  12.473 -0.1496 -0.0563 -0.2365
20914W        W40448   0.138  14.248  14.764 -0.0849 -0.2445  0.2939
20915W        W40449   0.203   6.126   9.541  0.0392 -0.0715 -0.0079
20916W        W40450   3.601   2.888   2.930  0.1116  0.1716  0.1940
20917W        W40451  13.407  18.396  11.763 -0.1101 -0.2372  0.0194
20918W        W40452  11.490   6.425   0.898 -0.1883  0.1299  0.1256
20919W        W40453   3.490  16.506   1.067  0.1567  0.0720 -0.2650
20920W        W40454   0.574   7.953   3.709  0.0016  0.1460 -0.2451
20921W        W40455   9.377   2.443   2.189  0.0369  0.1927 -0.1734
20922W        W40456   9.704  14.321  12.238  0.1292  0.0170  0.1706
20923W        W40457   1.735   3.560  11.601  0.1730  0.0631 -0.1305
20924W        W40458  13.319  18.715   1.239  0.0483 -0.2177 -0.2386
20925W        W40459   4.471   5.453   0.048 -0.2897  0.0369 -0.3401
20926W        W40460   8.196  13.908   3.256  0.2413 -0.1540 -0.1741
20927W        W40461   3.576   1.582   4.213  0.2681 -0.0960  0.3130
20928W        W40462   2.797   8.998   0.669 -0.0108 -0.0653  0.0038
20929W        W40463   3.581   4.454   0.520  0.0754 -0.1826  0.0435
20930W        W40464   4.257   2.590  12.269 -0.2600  0.0118  0.1857
20931W        W40465   5.417   8.975   2.778 -0.1583  0.2085 -0.2405
20932W        W40466   6.177   6.970  13.527 -0.1392 -0.0305  0.0703
20933W        W40467   7.566  12.792  13.112  0.0118  0.0162 -0.2721
20934W        W40468   7.799   5.819   4.187  0.3732 -0.1712 -0.1313
20935W        W40469   3.438  14.090   0.462 -0.0153  0.1308  0.2337
20936W        W40470   3.292  11.206   4.292 -0.2171 -0.0598  0.2473
20937W        W40471  18.843  10.463  12.548 -0.2472 -0.1427  0.2458
20938W        W40472  11.648   6.769   2.062 -0.1389  0.0488 -0.0033
20939W        W40473   6.086   6.452   3.936 -0.1243 -0.1226  0.2649
20940W        W40474   7.456   2.574  12.568 -0.2846 -0.0878  0.0601
20941W        W40475   7.463  16.636   2.366 -0.2173  0.1519  0.0870
20942W        W40476   4.800   3.548   1.577 -0.0933 -0.2001 -0.2270
20943W        W40477  16.539  11.598  11.456 -0.2739  0.0535 -0.0476
20944W        W40478   1.170   8.926   5.431  0.0415  0.1496  0.1409
20945W        W40479   0.073   6.546   0.365  0.1708  0.0622  0.0049
20946W        W40480  17.535  13.135   1.571 -0.1319 -0.0010 -0.1741
20947W        W40481  11.544  10.117   3.846  0.1002  0.0068  0.0543
20948W        W40482   6.991   4.909  12.590 -0.2672  0.1417  0.0180
20949W        W40483   5.525  13.036  11.981  0.2995 -0.2099  0.0016
20950W        W40484  14.392   5.300   3.978  0.0022 -0.0770 -0.0398
20951W        W40485   4.031  11.626   0.588 -0.0491  0.0157  0.0587
20952W        W40486  17.625  14.748  13.680 -0.0001  0.3828 -0.4077
20953W        W40487   2.412  15.841  11.386 -0.1285  0.1632  0.1153
20954W        W40488  12.315   1.203   0.431 -0.1566  0.2748 -0.0894
20955W        W40489  15.477   0.938   2.760  0.1506 -0.2976  0.3211
20956W        W40490  14.951  17.505  12.858  0.0046  0.0353 -0.0496
20957W        W40491   5.791   1.102  14.540 -0.3445 -0.0497 -0.0646
20958W        W40492  10.045   4.575   0.453 -0.1737 -0.0539  0.0999
20959W        W40493   5.269   5.693   9.800 -0.2147 -0.3238  0.0833
20960W        W40494  18.375   0.080   3.526 -0.1053  0.0211  0.2666
20961W        W40495  18.815  18.471   4.254  0.1457  0.0853 -0.2128
20962W        W40496  14.006   7.168   1.662 -0.0683 -0.2780  0.3366
20963W        W40497   0.562   2.319   4.379 -0.0944 -0.0713  0.1689
20964W        W40498   5.969   7.287   1.748 -0.0238  0.3162  0.0936
20965W        W40499  16.836   6.980  10.825  0.0747 -0.1535  0.2359
20966W        W40500   7.298  11.343  14.534 -0.0235 -0.1444 -0.0896
20967W        W40501  12.126   4.385   1.386 -0.3342 -0.3830  0.0860
20968W        W40502  14.158   0.108   0.694 -0.1080 -0.0724 -0.2309
20969W        W40503   6.186   6.504  12.830 -0.5120  0.0999 -0.0302
20970W        W40504  18.797   2.123   3.398  0.1556  0.0699 -0.1830
20971W        W40505   9.933  15.460   2.147 -0.0039  0.6250  0.0774
20972W        W40506  11.001   0.956   0.574 -0.1299 -0.0733  0.0129
20973W        W40507  12.960  15.200   2.115 -0.1752  0.2085 -0.3636
20974W        W40508   4.541  12.958   3.359 -0.1405 -0.1433 -0.2118
20975W        W40509   6.257   7.491   2.553  0.0445 -0.0646  0.2912
20976W        W40510  10.403  10.061  11.696 -0.1381  0.2317  0.0045
20977W        W40511  18.979   9.599  11.900  0.0616 -0.0621  0.0375
20978W        W40512  11.140   3.814   2.204  0.1024 -0.1129 -0.2112
20979W        W40513   4.701  13.412   1.794 -0.3434  0.0486 -0.0234
20980W        W40514   5.818   6.858   3.892 -0.1492 -0.1450  0.2864
20981W        W40515   1.277  18.839   0.303 -0.1436  0.0670  0.2099
20982W        W40516   7.968  18.874  11.258  0.1544  0.0727 -0.0745
20983W        W40517  11.478  17.929  13.589 -0.1368  0.1041  0.0297
20984W        W40518  17.850  18.439  14.223  0.3747  0.1187 -0.0922
20985W        W40519   0.157   2.149   3.348  0.2260  0.5728 -0.1175
20986W        W40520   7.649  11.611   2.445  0.0407  0.1498  0.0798
20987W        W40521   7.002   5.820   1.027  0.1378 -0.0537  0.1035
20988W        W40522   3.634  17.563   1.445 -0.1617 -0.4633  0.3228
20989W        W40523   8.052  16.956   2.880  0.3396 -0.1228  0.2853
20990W        W40524  17.408   5.014  14.731  0.0822 -0.4148  0.1034
20991W        W40525  15.781   8.484   0.488  0.0169  0.2260  0.0399
20992W        W40526   7.173  15.868  10.844 -0.1972 -0.2862  0.1174
20993W        W40527   3.292  15.126   2.839 -0.1604 -0.0164 -0.0666
20994W        W40528  15.765  13.069   3.136 -0.1854  0.0206 -0.0503
20995W        W40529   0.681   2.014  14.611 -0.0241  0.0586  0.3138
20996W        W40530   0.176   1.902   3.902 -0.0448  0.1486  0.2008
20997W        W40531   2.641   3.462   2.301 -0.1920  0.1214 -0.1397
20998W        W40532  15.264   8.679   0.920 -0.0890 -0.1483  0.0831
20999W        W40533   8.232  11.335  14.042  0.1540  0.4179 -0.1413
21000W        W40534   6.884  11.667   2.636 -0.2008 -0.1100 -0.2174
21001W        W40535  18.087   5.331   3.782 -0.2801 -0.1362  0.0291
21002W        W40536  11.540  10.482  14.525  0.0657 -0.0233  0.0489
21003W        W40537   3.329   9.294   2.568 -0.0815  0.0218 -0.0876
21004W        W40538  17.262  17.035   2.176 -0.3532  0.3685  0.2343
21005W        W40539  12.955   3.935   2.230 -0.1784  0.2093 -0.0594
21006W        W40540  11.820  10.221  12.005 -0.1293 -0.0135 -0.0833
21007W        W40541  13.398   6.813   0.666  0.1000 -0.1555 -0.2422
21008W        W40542   0.248   9.526   4.472 -0.3852 -0.1632  0.2291
21009W        W40543  18.032   0.916  14.311 -0.1998 -0.0803  0.1673
21010W        W40544  17.499  17.791   2.828 -0.1218  0.0624  0.1285
21011W        W40545  11.811   7.778  10.070 -0.3242 -0.1272  0.3987
21012W        W40546  14.863   3.008   1.791 -0.0621  0.1861  0.1505
21013W        W40547  18.152  11.482   2.176 -0.0148  0.2278 -0.1738
21014W        W40548  13.498  15.075  12.307  0.4456  0.0285  0.0434
21015W        W40549   3.776  15.244   2.819 -0.0451 -0.1168 -0.0265
21016W        W40550   5.868  13.737  10.446 -0.3529  0.1644  0.2052
21017W        W40551   6.503   6.200   0.300 -0.0590 -0.0248  0.1118
21018W        W40552   6.895   0.922   2.596 -0.2268 -0.1867 -0.2952
21019W        W40553   0.495  11.263  13.490 -0.3202  0.0380  0.1700
21020W        W40554  10.948  14.608  13.938  0.1401  0.0684  0.0900
21021W        W40555  14.256   6.435  11.877  0.3114 -0.1512 -0.0855
21022W        W40556  13.815   5.636   2.925 -0.0289  0.1589 -0.0212
21023W        W40557   5.899   5.545   2.402 -0.1621  0.0039 -0.2778
21024W        W40558  10.478   9.233  11.395 -0.0520 -0.0026  0.1035
21025W        W40559  12.795  18.321   1.240 -0.1182 -0.0208 -0.0789
21026W        W40560  16.452   3.965   3.655  0.0031 -0.0731  0.4153
21027W        W40561   6.876  11.413  12.513  0.2981 -0.0859  0.1258
21028W        W40562  13.725  15.313   5.038  0.0207 -0.0311 -0.1872
21029W        W40563  11.183   9.213  14.654 -0.0802 -0.1077 -0.0764
21030W        W40564   3.479   6.663   4.285  0.0770 -0.2320  0.2098
21031W        W40565   6.942  18.373   0.745 -0.2315  0.0009  0.2700
21032W        W40566  15.858   5.986  14.757 -0.0017 -0.0797  0.0099
21033W        W40567  13.066  13.250  12.112 -0.0045  0.2224  0.1146
21034W        W40568  17.276  13.610   2.077  0.0538 -0.1749 -0.1800
21035W        W40569   6.867   3.404   0.334  0.0658 -0.2018  0.3128
21036W        W40570  15.180  17.341  14.724 -0.1473 -0.2636 -0.1232
21037W        W40571  17.829  10.450  11.616  0.1499 -0.1646 -0.0038
21038W        W40572   8.749   0.581  13.155  0.4721 -0.0119 -0.1660
21039W        W40573  14.792   7.038   4.113 -0.1509  0.0603 -0.0564
21040W        W40574   0.239   1.712  11.208  0.1066 -0.2458 -0.0607
21041W        W40575   9.011  15.574  11.255 -0.0331 -0.0114  0.1014
21042W        W40576  13.650  16.981  11.114  0.0380 -0.1454  0.1227
21043W        W40577  13.029  11.736   3.479 -0.1135  0.0130 -0.2141
21044W        W40578   2.386  13.464  14.139 -0.0459  0.1935 -0.0507
21045W        W40579   4.875  13.471   0.515 -0.1921 -0.2462  0.3201
21046W        W40580   2.700   6.172   1.756  0.0870 -0.1789 -0.0725
21047W        W40581  10.313  10.873  11.945 -0.0071 -0.0269 -0.1367
21048W        W40582  10.085   4.448   3.936 -0.3037 -0.0820  0.0897
21049W        W40583  18.586   1.615   3.280 -0.0788  0.0024  0.1891
21050W        W40584   7.639   0.758   4.659  0.0134 -0.3194  0.2379
21051W        W40585  11.659  18.059   0.395  0.1414 -0.2212 -0.1689
21052W        W40586   3.905  10.411  11.441 -0.2124  0.2724  0.1077
21053W        W40587   7.823   2.313   4.142  0.1827  0.0169 -0.2246
21054W        W40588   0.665  18.773  13.098  0.0662  0.1966 -0.0479
21055W        W40589   2.927   1.601  13.560  0.0536 -0.0776  0.3190
21056W        W40590   1.256   2.544  10.325 -0.1258  0.1224 -0.1919
21057W        W40591   0.659  17.003  13.024 -0.2330  0.2219 -0.3119
21058W        W40592  18.425   6.616   2.278  0.2797 -0.0548  0.2993
21059W        W40593   1.389  13.752   2.788 -0.1178 -0.3437 -0.0235
21060W        W40594   8.150  16.490   0.078 -0.1363  0.2561  0.2405
21061W        W40595   8.219  10.667   0.923  0.2311 -0.2556  0.1236
21062W        W40596  13.529   2.534  11.207 -0.3238  0.1767  0.0827
21063W        W40597  15.330  17.950   1.450 -0.4170 -0.3011 -0.0197
21064W        W40598   0.168  13.266   1.484  0.0688 -0.0428  0.0669
21065W        W40599  13.493  17.483   1.406 -0.2170 -0.0404 -0.4291
21066W        W40600   9.996   5.426   2.526 -0.2333 -0.1121 -0.2787
21067W        W40601  12.594  10.964  10.393 -0.2095 -0.1627 -0.2675
21068W        W40602   8.689  14.982  11.251  0.1478 -0.3991 -0.2708
21069W        W40603  17.633   2.422  14.292  0.7259  0.1694 -0.0236
21070W        W40604  17.612  14.018   2.575 -0.1286 -0.1025 -0.2968
21071W        W40605  17.514   4.515   0.097 -0.1049  0.2573  0.0462
21072W        W40606   5.724  13.544  10.930 -0.0329 -0.1421  0.0940
21073W        W40607   4.319  15.423   2.846  0.2944 -0.1933  0.0978
21074W        W40608   3.342   0.641   3.392 -0.1592 -0.0614  0.0752
21075W        W40609  11.929   8.015  13.025 -0.0123  0.1584 -0.0132
21076W        W40610   8.202   3.989   2.049  0.0556 -0.1148  0.0787
21077W        W40611  16.288   3.053   1.964 -0.1670  0.3392  0.2471
21078W        W40612  16.779   1.663  12.778 -0.2356 -0.0833 -0.0755
21079W        W40613   2.732  16.394  12.534  0.0872 -0.1048 -0.1075
21080W        W40614  10.573  13.316  13.867 -0.3343  0.3808 -0.0029
21081W        W40615   0.306   9.122  14.132  0.2818 -0.1962 -0.2005
21082W        W40616  14.323  13.198  13.248  0.1936  0.1677 -0.0789
21083W        W40617   8.055   9.168  11.781  0.1424 -0.0773  0.3452
21084W        W40618   5.586  10.746   4.440 -0.0569  0.0800 -0.0137
21085W        W40619   7.726  16.114   0.263 -0.0752 -0.0847 -0.1912
21086W        W40620   4.565   7.082   0.587  0.4362  0.0182 -0.0059
21087W        W40621   9.930   8.192   2.242  0.1655  0.0838 -0.1148
21088W        W40622  15.996   3.317  14.192 -0.2078  0.1123 -0.0063
21089W        W40623   8.010   5.122  13.745  0.0433  0.0133 -0.1542
21090W        W40624   6.651  18.443   2.078 -0.0512 -0.1366 -0.0203
21091W        W40625   3.204   9.044   5.319  0.1242 -0.1348  0.0278
21092W        W40626  17.413  16.834   2.587  0.0420  0.1268 -0.0227
21093W        W40627  11.998   0.028   4.839 -0.0266  0.2549  0.1645
21094W        W40628  17.247  13.094   2.552  0.1637 -0.0718 -0.0278
21095W        W40629  18.312  10.264   2.412 -0.2739 -0.1451 -0.0041
21096W        W40630  11.734   8.222  11.578 -0.0683  0.4964 -0.0990
21097W        W40631  17.005   7.523   2.448  0.1780 -0.4324  0.1903
21098W        W40632  15.582  12.994  10.378 -0.1691  0.1144  0.1232
21099W        W40633  10.344  12.275   9.552 -0.2466 -0.1862 -0.1681
21100W        W40634   4.434   9.998  10.732 -0.1341  0.0564 -0.1340
21101W        W40635  18.474   2.157   1.582  0.1715 -0.3217 -0.1734
21102W        W40636   2.117  18.897  14.486  0.0184 -0.1401  0.0572
21103W        W40637   7.592  18.430   3.634 -0.2238  0.0703  0.4385
21104W        W40638  14.005  15.946  14.797 -0.2809 -0.0663  0.0988
21105W        W40639   0.139  10.410  11.586 -0.1857  0.3164  0.3065
21106W        W40640  10.400   1.871   1.262 -0.2576  0.0343 -0.0532
21107W        W40641   9.610  15.488  14.439  0.1131  0.3195  0.1533
21108W        W40642   1.315   6.397   4.133 -0.0580  0.1423  0.2361
21109W        W40643  17.745   4.575  13.979 -0.0605 -0.1250  0.0993
21110W        W40644  15.588  17.385   0.832 -0.1660 -0.2971  0.1761
21111W        W40645  16.243  10.788  11.435 -0.1709  0.1058  0.0151
21112W        W40646   7.298   5.774  10.999 -0.1839 -0.0048  0.1351
21113W        W40647  15.994  13.678   4.989 -0.1874  0.1078 -0.0574
21114W        W40648  11.623  12.968  11.735 -0.0818  0.0966  0.1979
21115W        W40649  12.443  10.761  10.929 -0.0251 -0.4349 -0.2322
21116W        W40650   8.877   0.036  11.857 -0.0099 -0.0627 -0.4536
21117W        W40651   2.970   1.843  11.534  0.1133 -0.0731 -0.0211
21118W        W40652  15.951  15.595  11.066 -0.0822 -0.0782 -0.3914
21119W        W40653  18.107  18.543   2.080 -0.1210 -0.3152  0.1468
21120W        W40654   9.719  15.510   4.060  0.0694  0.0215  0.1824
21121W        W40655   2.185   1.442   2.613 -0.0806 -0.0160  0.1430
21122W        W40656  15.063  13.603  12.179 -0.3740  0.0698 -0.3224
21123W        W40657   4.288  15.014   1.579  0.0331 -0.1528  0.1435
21124W        W40658   7.325   2.266  11.527 -0.0752  0.0735  0.1670
21125W        W40659  15.871   6.514   3.852 -0.2287 -0.0157  0.1408
21126W        W40660   1.534  16.705   2.404  0.1699 -0.3809 -0.4371
21127W        W40661   0.408  15.906  12.360  0.1834 -0.1307 -0.1266
21128W        W40662   9.567   4.657   1.205  0.0337  0.3154 -0.1287
21129W        W40663   2.036  15.465  11.988 -0.0495 -0.1363 -0.0735
21130W        W40664  14.386   2.045  12.024  0.0112 -0.1992  0.1649
21131W        W40665   4.533   1.548   0.118 -0.2570  0.1748  0.0221
21132W        W40666  10.069  16.163   3.522  0.0308 -0.1480  0.0382
21133W        W40667   2.806   2.285  10.748 -0.0211 -0.2867 -0.0653
21134W        W40668   0.257   4.045  11.007 -0.1573 -0.1901  0.3306
21135W        W40669  12.129  15.598   2.088  0.2385 -0.2795 -0.1143
21136W        W40670  18.382   0.353  10.613  0.2781 -0.0341  0.0946
21137W        W40671  17.787  15.467   4.139 -0.0024  0.0831  0.1574
21138W        W40672  11.339   2.304   0.299  0.0621  0.1819  0.0683
21139W        W40673   1.917   6.828  14.773  0.0489  0.0364  0.2398
21140W        W40674  18.890   0.144   0.497 -0.1023  0.0224  0.0118
21141W        W40675  13.543  16.315   1.415  0.0384 -0.4213 -0.3426
21142W        W40676   1.217  16.075  13.566  0.2244 -0.4590  0.2735
21143W        W40677   1.610   6.915   4.001  0.0010  0.0147 -0.1367
21144W        W40678  11.762  12.298   3.746  0.0909 -0.0098  0.0147
21145W        W40679  14.495  11.836  13.408 -0.0156  0.1768 -0.0113
21146W        W40680  15.584  13.440  14.758  0.2110 -0.4553 -0.0414
21147W        W40681   5.359  17.241   3.957  0.1596  0.0314 -0.0338
21148W        W40682   0.784   6.298  12.186  0.2451 -0.1507 -0.2128
21149W        W40683  14.999  12.375   2.449  0.1273  0.2090 -0.1443
21150W        W40684  19.075   7.828  11.309 -0.1392 -0.0184  0.2520
21151W        W40685   7.145   1.314   0.730  0.0658  0.2359 -0.1626
21152W        W40686  17.670  17.902   3.357  0.3394 -0.0710 -0.1636
21153W        W40687  12.237  11.586  14.700 -0.3020 -0.1377  0.2221
21154W        W40688   9.534   0.885   4.515  0.0752  0.0598  0.0495
21155W        W40689   0.698  11.091   2.882 -0.2315 -0.0105 -0.0784
21156W        W40690  15.554  14.704  14.259  0.1008  0.2797  0.0937
21157W        W40691   8.026   7.150  11.335  0.0624  0.1310 -0.0895
21158W        W40692   0.329  16.076  14.089  0.1433  0.1373  0.1383
21159W        W40693   1.180   0.575   0.623 -0.0430 -0.0599  0.0602
21160W        W40694  17.884   3.952   3.724  0.0789  0.1595 -0.1946
21161W        W40695   5.663  13.853   0.861 -0.4593 -0.2324 -0.1637
21162W        W40696   6.431  13.653  13.533 -0.2872 -0.3104 -0.0381
21163W        W40697  17.544   7.829   2.450 -0.0559 -0.0579 -0.1164
21164W        W40698  18.289   4.841  10.951  0.0868  0.0139 -0.3269
21165W        W40699  18.948  12.947   3.390  0.2138 -0.0312 -0.1575
21166W        W40700  11.575   1.673   2.058 -0.0170 -0.0766 -0.1798
21167W        W40701  11.894  14.755  11.702  0.1249  0.1807  0.1612
21168W        W40702   4.554   2.147  10.889  0.0652 -0.3697 -0.0789
21169W        W40703  16.407  10.489  11.868  0.0365 -0.1082 -0.2444
21170W        W40704   2.182   5.979  10.750  0.4192 -0.4412  0.1529
21171W        W40705   9.345   5.492   1.138  0.0099 -0.0514  0.0902
21172W        W40706  14.150   9.458   1.569 -0.1826 -0.2428  0.2005
21173W        W40707   0.678   5.103   4.367 -0.1828 -0.0808 -0.1094
21174W        W40708  12.437  14.654   0.297 -0.0904  0.1351  0.4066
21175W        W40709   5.374   3.451  13.051  0.0791 -0.1050  0.1972
21176W        W40710   9.251   7.070   3.506  0.2366  0.0271 -0.0911
21177W        W40711   8.914   2.094  14.432  0.0343  0.0446 -0.0674
21178W        W40712   7.666   9.712  12.568  0.1362  0.1916 -0.1758
21179W        W40713   0.141   3.941   2.747  0.3030  0.3092 -0.0523
21180W        W40714  15.078   0.701   1.616 -0.1511  0.1738 -0.0049
21181W        W40715   0.386   6.683   1.972  0.0261  0.0276  0.0620
21182W        W40716  11.568  17.283   2.007 -0.1377 -0.0327  0.1563
21183W        W40717   2.000   4.061   1.245  0.1575  0.0819 -0.3007
21184W        W40718   7.754  18.720   1.908 -0.2019 -0.0247 -0.4548
21185W        W40719  18.620  18.821  14.295 -0.0401 -0.1390  0.0837
21186W        W40720  11.511   1.204   4.124 -0.0303  0.0000 -0.1848
21187W        W40721  17.998  14.386  11.019 -0.1648  0.0027  0.0134
21188W        W40722  18.020   3.842  10.439  0.1797 -0.1450 -0.2488
21189W        W40723  13.497  19.080   0.329  0.1902 -0.2396  0.0203
21190W        W40724   8.191   2.765  12.026  0.1875  0.0545 -0.0786
21191W        W40725  15.657  10.043  11.257  0.1623  0.0358 -0.1143
21192W        W40726  11.628   3.290  10.236 -0.1059 -0.2578  0.2336
21193W        W40727   5.285   9.782  13.528  0.3114 -0.0770 -0.3148
21194W        W40728   6.229   1.259   3.158 -0.1319 -0.0240 -0.0720
21195W        W40729  16.165   1.679  11.927 -0.0843  0.0729  0.1430
21196W        W40730  15.319   7.801  12.908 -0.0702 -0.0062  0.1363
21197W        W40731  18.609   2.617   1.339 -0.0622  0.0553  0.0822
21198W        W40732  11.665  14.576  12.230  0.0043 -0.1758  0.2247
21199W        W40733  14.350  16.873   2.236 -0.0099 -0.2229  0.3642
21200W        W40734   8.550   2.985  12.994  0.1666  0.1048 -0.0652
21201W        W40735   8.118   0.665  10.959 -0.1379  0.3516  0.1938
21202W        W40736   1.868  17.729  12.363  0.0525 -0.1252 -0.0196
21203W        W40737  14.048   4.356   3.037  0.0123 -0.3451 -0.3097
21204W        W40738  10.588   9.592   2.893 -0.0684 -0.0377  0.0154
21205W        W40739   7.737  14.517   3.549  0.2039 -0.1418  0.0380
21206W        W40740  17.420   2.301   3.023 -0.4478  0.1019  0.0216
21207W        W40741  15.401  19.078   0.581 -0.0248  0.1430 -0.1124
21208W        W40742  14.417   3.439  10.520 -0.2180  0.0988  0.1679
21209W        W40743  10.555  16.352  10.741  0.1481 -0.0610  0.0428
21210W        W40744   0.328  12.823  13.170  0.2279 -0.1930 -0.2838
21211W        W40745  14.290   8.658  11.426 -0.0914 -0.0367  0.0147
21212W        W40746   9.866  12.774  14.471  0.1216 -0.0154  0.0271
21213W        W40747   2.835  16.714  12.119 -0.5376  0.2046 -0.0920
21214W        W40748  13.873   4.535  12.505 -0.0070  0.1712  0.2987
21215W        W40749   6.568  17.184   0.407 -0.1268  0.1497  0.0049
21216W        W40750  15.677  18.652  12.256  0.0685  0.2744 -0.3404
21217W        W40751  14.404  16.191   0.193 -0.0321  0.1331 -0.2411
21218W        W40752   8.627   7.307   1.761 -0.2027 -0.2891  0.0824
21219W        W40753   7.967   4.790   5.122 -0.0540  0.0738  0.0996
21220W        W40754   1.548   0.893  12.867  0.1386  0.3747 -0.0663
21221W        W40755   9.828  11.298  13.082  0.2049 -0.0940 -0.5456
21222W        W40756  11.186  12.049  12.687  0.0100  0.0105  0.1796
21223W        W40757  14.572  13.426  13.690 -0.0935 -0.0618  0.3523
21224W        W40758  14.996  17.011  11.004 -0.1032  0.0698 -0.1631
21225W        W40759  17.789   1.267   2.247 -0.0557 -0.0444  0.0190
21226W        W40760   4.179  14.954   0.604  0.0733  0.2179  0.0955
21227W        W40761   2.558  16.647  11.673 -0.2688  0.0043  0.1345
21228W        W40762   2.184   7.779  10.786 -0.0569 -0.2217 -0.0249
21229W        W40763  18.948   6.077  13.265 -0.1790  0.1244  0.1899
21230W        W40764  16.753  16.671  12.609 -0.4994  0.2672 -0.0038
21231W        W40765   2.421   9.065  11.370 -0.1893 -0.0793 -0.0270
21232W        W40766  16.024   5.649   3.406 -0.0337  0.0618 -0.1391
21233W        W40767   6.229  17.005  12.071  0.1933 -0.0695  0.0395
21234W        W40768  11.820  10.231  12.540  0.0158  0.1713 -0.3374
21235W        W40769  11.913   0.462  10.948 -0.2687 -0.0448 -0.1481
21236W        W40770   1.064   0.715   2.247 -0.2447  0.2426 -0.1734
21237W        W40771   6.420   0.932  13.009 -0.0807 -0.1856  0.0848
21238W        W40772   0.021  16.107   1.784  0.0182 -0.2185  0.1917
21239W        W40773   9.028   0.349   3.219 -0.1949  0.0477  0.2602
21240W        W40774  10.011   4.246  11.892 -0.0711 -0.1448 -0.1004
21241W        W40775   1.670   9.718  12.131 -0.0233 -0.1050 -0.1834
21242W        W40776   3.649  17.015  14.830  0.1883  0.2127 -0.0756
21243W        W40777   6.302  14.856  11.562  0.3375 -0.2200 -0.1572
21244W        W40778   6.392   6.406  14.059  0.0242  0.1155  0.1552
21245W        W40779   5.437  14.888  13.861 -0.0211 -0.0794 -0.1776
21246W        W40780   6.428  11.555   0.131  0.0488  0.0779  0.1394
21247W        W40781   4.561   3.773   4.108  0.0506 -0.2590  0.0669
21248W        W40782  12.269   3.316   2.435  0.1611 -0.3834 -0.0422
21249W        W40783   3.660   6.619   2.696  0.3598 -0.0922  0.0156
21250W        W40784  15.482  18.598  14.585 -0.1165 -0.2870 -0.3346
21251W        W40785  17.696  10.402  13.337 -0.1614 -0.0213  0.0179
21252W        W40786  16.912   9.440  13.887  0.1920  0.0305  0.3038
21253W        W40787   9.126   6.305   2.237 -0.1914  0.1496 -0.0628
21254W        W40788   0.922  13.740  14.665  0.2672  0.1992 -0.1709
21255W        W40789  11.359  11.457  14.696  0.0954 -0.1095  0.0477
21256W        W40790  12.558   6.905   0.512  0.0035 -0.0713  0.0418
21257W        W40791   7.976  10.183   1.024 -0.0327 -0.1477 -0.2371
21258W        W40792   7.417   5.860  13.957 -0.2162 -0.6623  0.0927
21259W        W40793   0.440   0.969  14.538 -0.1260 -0.1281 -0.1018
21260W        W40794  11.888  15.940   1.748  0.0270 -0.2339 -0.4272
21261W        W40795  16.993   2.772  13.737 -0.3517  0.1443  0.0461
21262W        W40796  16.374  14.490   0.632 -0.0893 -0.0435  0.0104
21263W        W40797   9.148  11.442   3.212 -0.0771  0.0658 -0.0725
21264W        W40798   7.705  17.466   0.188  0.0406 -0.0498 -0.0059
21265W        W40799   1.702   2.199   1.150  0.3614 -0.2096  0.1338
21266W        W40800  15.554  15.614  10.024  0.0430 -0.0191 -0.1288
21267W        W40801  16.420   5.226   1.843  0.0526  0.3089 -0.0532
21268W        W40802   9.935   9.905   3.097  0.0468  0.0100  0.0056
21269W        W40803  17.810   8.481  14.216  0.2251  0.0729 -0.2209
21270W        W40804   4.359   6.294   2.779  0.0581 -0.1858 -0.1934
21271W        W40805   5.823   7.682  14.624  0.2707 -0.4725  0.1473
21272W        W40806  13.605   3.860   4.744  0.0955  0.4819  0.2037
21273W        W40807   7.136  14.183  12.127 -0.4294 -0.1243 -0.0209
21274W        W40808  12.297  18.027  14.592 -0.1533  0.3568 -0.0240
21275W        W40809   6.612  16.334   1.938 -0.2334 -0.0443  0.0822
21276W        W40810   2.048  11.113  13.856 -0.1140  0.1918  0.2209
21277W        W40811  18.550  10.598  13.517  0.2215  0.1146 -0.1181
21278W        W40812   1.420  18.460   2.375 -0.0206  0.0412 -0.1845
21279W        W40813  13.954  11.479   2.732  0.0805 -0.2495 -0.0084
21280W        W40814  17.497   3.722  12.620 -0.1570 -0.2952  0.2939
21281W        W40815   5.098   2.532   1.705  0.0332 -0.1470  0.0659
21282W        W40816   8.954   7.312  14.460  0.0753 -0.3530  0.1949
21283W        W40817  12.509  17.627   3.276 -0.0563 -0.1064  0.0465
21284W        W40818   8.138  12.265   1.411 -0.1807 -0.1037 -0.0735
21285W        W40819  15.456   6.864   1.081 -0.1588  0.1341  0.1821
21286W        W40820  18.966  10.531   2.655  0.1887 -0.3055  0.0131
21287W        W40821   6.277   2.959   1.355  0.3780  0.2830 -0.4459
21288W        W40822  15.937   6.264   1.749 -0.2539  0.2367  0.1513
21289W        W40823   1.384   5.356  12.162  0.3523 -0.2406 -0.0612
21290W        W40824  17.013   8.070   2.422 -0.1769  0.1403  0.2276
21291W        W40825  13.820   5.343   2.478  0.0530  0.0847 -0.0306
21292W        W40826   7.477   6.463  11.136  0.0853  0.0920  0.1579
21293W        W40827   5.648  18.897   2.844  0.1263 -0.0387  0.0756
21294W        W40828   9.031  12.798  11.605  0.1055 -0.0348  0.2214
21295W        W40829  14.191   3.647  14.063  0.1477 -0.2898  0.1856
21296W        W40830  14.968  11.171   4.357  0.1406 -0.1943 -0.0522
21297W        W40831  17.613  16.589  12.974 -0.3722  0.1564  0.1905
21298W        W40832  11.676   2.754  10.904  0.1280  0.1357 -0.1259
21299W        W40833   0.922  16.733  13.894 -0.2040  0.1320  0.0327
21300W        W40834  18.772  18.564  11.074  0.2288 -0.1728 -0.0410
21301W        W40835   3.772  11.683   1.073 -0.0383  0.0363  0.0475
21302W        W40836  16.681  11.229  13.839  0.0513  0.0100  0.0017
21303W        W40837   4.538  13.719  13.837 -0.1116 -0.1051  0.0995
21304W        W40838   7.527   6.458   1.234 -0.1391 -0.1723 -0.3785
21305W        W40839  14.350   1.586  12.747  0.5165  0.2636  0.3911
21306W        W40840   4.936   3.385   0.330 -0.0588  0.0006 -0.2823
21307W        W40841   0.989   0.208  14.481 -0.0409 -0.2187  0.1811
21308W        W40842   5.511   3.270   3.490  0.0086  0.1341 -0.1447
21309W        W40843  12.469   1.446  10.724  0.0848 -0.0349  0.1365
21310W        W40844  15.288   8.143  13.943  0.1236  0.1828 -0.3016
21311W        W40845  12.734   0.637  11.994  0.1804 -0.0842 -0.0660
21312W        W40846  12.421  15.233   2.774 -0.0232 -0.0802 -0.1827
21313W        W40847   6.840  17.627  13.964 -0.1551  0.1107  0.0785
21314W        W40848   6.409  16.966   3.450 -0.2452  0.2909 -0.1635
21315W        W40849  10.742   0.430  13.020  0.0387 -0.4118 -0.2509
21316W        W40850   1.469  15.610   1.894  0.1812  0.4291 -0.1957
21317W        W40851   0.348   7.605   3.384 -0.1010 -0.1309  0.1057
21318W        W40852  11.859  16.052  11.910 -0.1343  0.2583  0.2713
21319W        W40853  18.868  12.649  10.436  0.0633 -0.1738  0.1959
21320W        W40854  17.469  10.127   4.621  0.0123  0.3208  0.2300
21321W        W40855  15.880   0.689   0.201  0.1044 -0.3588 -0.1290
21322W        W40856   8.618  17.651   1.529 -0.0482 -0.0421 -0.1546
21323W        W40857   5.286   7.257   2.931  0.2276 -0.1272  0.0163
21324W        W40858  12.919   9.347   0.639  0.4276  0.0681 -0.1366
21325W        W40859  16.672   0.444   3.337  0.0415 -0.0497  0.2669
21326W        W40860   9.705  12.356   0.816  0.4923 -0.0790 -0.0562
21327W        W40861   0.039   3.783  13.436  0.2740  0.2009  0.2034
21328W        W40862  16.404   4.916  10.815 -0.1108  0.1552  0.0908
21329W        W40863   4.336   2.205   1.798 -0.0219  0.2471 -0.0035
21330W        W40864  17.977   3.794   9.860 -0.2432  0.1367 -0.1826
21331W        W40865   2.500  17.164  11.633  0.2126 -0.1427  0.4251
21332W        W40866  12.506  14.213   2.662  0.2167 -0.0099  0.1253
21333W        W40867  17.951  18.238  13.739 -0.1032 -0.0151 -0.0043
21334W        W40868  11.173   9.325   0.866  0.1388  0.1548 -0.1909
21335W        W40869   6.887   1.271   9.810  0.0137 -0.0472 -0.1680
21336W        W40870   8.823   3.251   2.125  0.2525  0.0107  0.2406
21337W        W40871   2.911  16.034  13.008 -0.0225 -0.4516 -0.1643
21338W        W40872  15.202   0.208   9.716  0.1523 -0.2812 -0.0061
21339W        W40873  14.701   0.083   2.344  0.0804  0.2089 -0.1608
21340W        W40874  18.732  12.789  12.524 -0.1956 -0.0542  0.1325
21341W        W40875  10.043   2.244  11.659 -0.0707  0.1059 -0.0036
21342W        W40876   4.609  16.698   1.145 -0.1757 -0.1825  0.0134
21343W        W40877  10.306  14.655   3.315  0.3948  0.3390 -0.2243
21344W        W40878   7.692   7.397   0.017  0.2141 -0.1872 -0.1479
21345W        W40879  14.121  15.725  11.007 -0.1445  0.0595 -0.0705
21346W        W40880   8.121   3.146  14.341 -0.0762 -0.0600  0.2181
21347W        W40881   0.222  15.489   0.452 -0.0932  0.2565 -0.0331
21348W        W40882   3.354  12.732   4.223  0.0839 -0.3033  0.1402
21349W        W40883   8.703   9.983   0.435  0.0183 -0.1174 -0.1137
21350W        W40884   6.122  10.929   0.694  0.1253  0.0285  0.1543
21351W        W40885  17.434  10.377  10.310  0.0943 -0.1739 -0.1235
21352W        W40886  11.958  17.238  12.291  0.1187  0.1475 -0.0378
21353W        W40887   3.310  12.212   4.070  0.2158 -0.4474  0.0689
21354W        W40888   6.509   2.240   4.324  0.4604  0.1459 -0.1519
21355W        W40889   2.594  10.121  12.234 -0.1578  0.0947 -0.0480
21356W        W40890   3.772   8.397   2.651 -0.1076 -0.3522  0.1756
21357W        W40891  17.163  15.917   3.734  0.4742 -0.1880 -0.1037
21358W        W40892   8.709   3.300   4.438 -0.1782 -0.2644  0.1344
21359W        W40893  10.344   7.744   3.356 -0.2897  0.0726  0.0003
21360W        W40894   4.379  15.939  14.081  0.0008 -0.1339  0.0286
21361W        W40895   1.605   8.540  13.185 -0.2099  0.1054  0.1040
21362W        W40896  18.307   7.382   4.342 -0.0137  0.0406  0.0473
21363W        W40897  11.249  14.097   1.615  0.3740 -0.0397  0.0417
21364W        W40898   7.116   3.360  12.420 -0.0982 -0.3151 -0.1890
21365W        W40899  19.113  17.022   3.767  0.1942  0.3737  0.0735
21366W        W40900  16.791   0.227   0.263  0.3616 -0.3009 -0.1776
21367W        W40901  18.115  16.247   1.927 -0.2462  0.1982  0.0821
21368W        W40902   9.398   4.716  12.885 -0.3130 -0.0264  0.3049
21369W        W40903  11.922  15.429   2.498  0.0689 -0.0494 -0.2922
21370W        W40904  15.793  16.272   3.852  0.0674  0.1969  0.2901
21371W        W40905   1.640  12.696  11.709 -0.2396 -0.3103  0.0582
21372W        W40906   8.960  10.839  14.563  0.1307 -0.1116  0.0991
21373W        W40907  18.464  10.197  12.314  0.1226 -0.2698  0.0514
21374W        W40908  15.075  14.220  13.295 -0.1220 -0.2638 -0.0413
21375W        W40909  15.864   0.035   3.322  0.1342  0.0226  0.3509
21376W        W40910  13.494  14.755   1.306 -0.1494  0.1469 -0.1123
21377W        W40911   0.829   4.743   0.022  0.2931 -0.2917  0.0720
21378W        W40912   5.963   3.152   3.181 -0.0372 -0.0453 -0.1045
21379W        W40913   2.824  10.634  14.421  0.2519  0.0768  0.1653
21380W        W40914   7.139  17.449   0.287  0.0044  0.0219  0.0409
21381W        W40915   1.969  18.102   9.399 -0.3557  0.0512 -0.2028
21382W        W40916  13.879  15.290   2.014 -0.0618 -0.0189  0.1207
21383W        W40917  17.554  16.542  11.779  0.1138 -0.1481 -0.3283
21384W        W40918   9.483   5.639  13.114  0.1139  0.0511 -0.0480
21385W        W40919  13.714  17.392  13.408  0.0407 -0.2584  0.1415
21386W        W40920  12.185   3.217  13.573 -0.4123 -0.0277  0.3020
21387W        W40921   8.735   3.139  11.007  0.3428 -0.1499  0.0162
21388W        W40922   9.954  18.758   3.234  0.0761 -0.1430 -0.3021
21389W        W40923   5.907  15.121  11.818 -0.2613 -0.1553 -0.2057
21390W        W40924  10.688   9.280   0.510 -0.2988 -0.2596  0.0298
21391W        W40925   2.468   2.210  12.755  0.0527 -0.0834 -0.2924
21392W        W40926   2.403   1.176  10.887  0.1941  0.0786  0.1383
21393W        W40927  13.104  14.409   4.261  0.0313  0.0383 -0.1191
21394W        W40928  15.400   1.225  12.066  0.0884 -0.2931  0.1583
21395W        W40929  17.308   6.165  13.001 -0.2091 -0.0299 -0.1107
21396W        W40930   3.823   8.263   3.905 -0.0167  0.1473 -0.0342
21397W        W40931  14.945   1.018  14.699 -0.0898  0.0766  0.1278
21398W        W40932  10.085   4.108  13.321  0.0042  0.3045  0.2661
21399W        W40933   4.787  16.718   3.148  0.0109  0.0477 -0.0341
21400W        W40934   3.032   8.367   0.858  0.0522  0.0321  0.2756
21401W        W40935  13.958   2.387   0.203 -0.2096  0.0039 -0.2868
21402W        W40936   1.133  11.978   4.104  0.2714  0.4479  0.2702
21403W        W40937  13.551   9.398  10.254 -0.0543 -0.2616  0.0420
21404W        W40938   4.838  18.026  12.680  0.0994 -0.1372  0.0494
21405W        W40939  11.288   9.665  13.014  0.0434 -0.2865 -0.1557
21406W        W40940  15.819  16.545   0.299 -0.0773  0.0389  0.0558
21407W        W40941   9.472   3.994   3.215  0.3088  0.3502 -0.0676
21408W        W40942   0.215   4.811   3.283  0.1146 -0.0908  0.1460
21409W        W40943   8.204   2.203   1.796 -0.2555  0.2720  0.3116
21410W        W40944   5.652   7.006   2.064 -0.2931  0.0407 -0.1427
21411W        W40945   0.102   2.954  11.635 -0.1514 -0.1111  0.2258
21412W        W40946   5.022  15.562   2.552 -0.1525 -0.2485 -0.0817
21413W        W40947  13.382   5.918   2.991  0.0954  0.0567  0.0359
21414W        W40948   3.379   4.189   1.414  0.1006 -0.1547  0.1582
21415W        W40949  15.888  15.485   4.210  0.1191  0.3491  0.2290
21416W        W40950  13.047  13.608  11.683 -0.0697  0.1457 -0.0559
21417W        W40951  10.217   1.078   2.008 -0.2672  0.0442  0.1305
21418W        W40952   1.292   9.583   0.426 -0.3156  0.0167 -0.2295
21419W        W40953   9.320  10.569  13.170 -0.0064  0.2435  0.3479
21420W        W40954   9.501   4.036   1.918  0.3938  0.3342 -0.3036
21421W        W40955  15.601   3.922   3.828  0.3458 -0.2532 -0.2793
21422W        W40956  14.292  18.564   1.286 -0.1119  0.0171  0.0344
21423W        W40957   4.414   8.459   3.036  0.1550  0.1207  0.0051
21424W        W40958   8.303   7.327   2.143 -0.1783  0.3023  0.1565
21425W        W40959   4.443  11.416   3.804  0.0377  0.2099 -0.0118
21426W        W40960  16.380  10.766  13.861 -0.0716 -0.0134  0.0823
21427W        W40961  12.481  17.437   3.741 -0.1949  0.0706  0.0816
21428W        W40962   4.945  12.252   0.737 -0.0464 -0.4300  0.1204
21429W        W40963  10.639   2.382   0.489  0.0567 -0.0629  0.0527
21430W        W40964  15.148   8.691   3.789 -0.2890 -0.2399  0.3091
21431W        W40965   8.818   4.661   2.972 -0.1028  0.2242 -0.1461
21432W        W40966  13.203  16.161   1.061  0.3095 -0.1185 -0.1838
21433W        W40967   2.687  10.482  13.929 -0.2944 -0.2007  0.3482
21434W        W40968  16.784  12.614  10.809 -0.1135 -0.1388  0.2104
21435W        W40969   5.314   4.693  11.733 -0.1865 -0.4278  0.2396
21436W        W40970  12.503  16.932   9.893 -0.0332  0.0380 -0.1674
21437W        W40971  18.851  15.976  13.549 -0.0394 -0.0670 -0.0016
21438W        W40972   3.324  14.625  13.621  0.2575  0.0914 -0.1924
21439W        W40973  16.898  12.409   0.304 -0.0706  0.1544  0.2220
21440W        W40974   1.073  16.429   2.458  0.2582 -0.2895 -0.1180
21441W        W40975   8.000   2.304   0.056 -0.0356  0.1990  0.3315
21442W        W40976  13.219  11.464   1.807 -0.4937 -0.0373 -0.0145
21443W        W40977   0.768   3.249  11.538 -0.3517 -0.1606  0.1153
21444W        W40978  14.315  16.652   1.726  0.2921 -0.1879 -0.1256
21445W        W40979   1.767  17.445  11.351 -0.0424 -0.3671  0.4295
21446W        W40980   8.724  12.271   2.722 -0.2193  0.1897  0.0946
21447W        W40981   9.851   2.071  11.079  0.3619 -0.1681  0.0707
21448W        W40982   3.561   4.929  11.735  0.2629  0.0281  0.0085
21449W        W40983  16.089   3.991  12.610 -0.1980  0.0879  0.0088
21450W        W40984  15.573  14.139   1.732  0.0617  0.0362 -0.0707
21451W        W40985   3.988  10.232  13.554 -0.2491  0.1233  0.0657
21452W        W40986  18.483  15.967  14.778 -0.1212  0.2768  0.1166
21453W        W40987   9.546  11.640   2.507  0.1978 -0.0759  0.0815
21454W        W40988   0.554   5.815  12.205  0.2660  0.1339  0.0231
21455W        W40989   2.213  14.285  13.858 -0.0370  0.1635  0.2392
21456W        W40990   9.886   0.035   4.480  0.1426 -0.0971 -0.0599
21457W        W40991  15.571   0.897   4.003 -0.1591 -0.2670 -0.0094
21458W        W40992   9.064   5.452  12.912 -0.1399 -0.0341  0.0737
21459W        W40993   3.352   9.497   1.046  0.0208 -0.0103  0.3726
21460W        W40994  10.461   5.158   2.325 -0.0115  0.0372 -0.0045
21461W        W40995  18.154  17.086   0.890  0.3014  0.2983 -0.1187
21462W        W40996  11.338   7.459  11.319 -0.1173  0.1024 -0.3473
21463W        W40997  14.082  17.183   3.208 -0.1757  0.0229  0.3319
21464W        W40998  13.062   8.308  12.654 -0.2918  0.0965  0.3012
21465W        W40999   3.713  15.966  10.781 -0.1741 -0.0076 -0.0207
21466W        W41000   8.233   8.741  13.175 -0.1488  0.3439 -0.0785
21467W        W41001   7.395   2.657   4.635  0.1539 -0.3521 -0.0345
21468W        W41002   2.190   9.605  14.107 -0.2831 -0.0240  0.0606
21469W        W41003  11.051  10.750   3.685 -0.2491  0.0322  0.4821
21470W        W41004  17.188   6.449  11.444  0.0454 -0.0742 -0.0559
21471W        W41005  15.972  11.212  11.673 -0.1026  0.0324  0.4289
21472W        W41006  18.322  14.391  14.814 -0.0755  0.5629 -0.0571
21473W        W41007   4.805   0.351  11.633 -0.0380  0.3488 -0.0652
21474W        W41008  11.960   7.004  12.960 -0.1694 -0.1515 -0.1723
21475W        W41009   6.008   6.286   2.063  0.0109 -0.1344 -0.3051
21476W        W41010  13.244  11.595  10.492 -0.0556  0.0090 -0.0082
21477W        W41011   3.162   8.566  11.624 -0.2879 -0.2107  0.0049
21478W        W41012   6.347   8.636   2.575  0.1001 -0.1233 -0.0085
21479W        W41013   8.066  11.278   3.554 -0.2515  0.0853 -0.1340
21480W        W41014   4.518  12.179   3.609 -0.1570  0.0337 -0.0590
21481W        W41015   5.655  16.293  13.652  0.0580  0.0399  0.1329
21482W        W41016  17.792   1.355  13.519  0.3316 -0.1300  0.0846
21483W        W41017   4.443  18.623  10.660  0.2748  0.0700 -0.0540
21484W        W41018  17.712  18.655   1.176  0.2969 -0.1393 -0.2092
21485W        W41019   7.668   9.620  10.976 -0.1727  0.1497  0.1408
21486W        W41020  10.317   8.777   1.418  0.0546 -0.0437  0.0464
21487W        W41021  16.782  14.283  13.832  0.1980 -0.0600  0.1390
21488W        W41022   0.954  10.339  14.704 -0.2402  0.1585  0.2058
21489W        W41023   9.052   3.695   1.900  0.1131  0.3289 -0.1069
21490W        W41024  11.901   2.450   4.027 -0.0427  0.1176 -0.4102
21491W        W41025  14.304  15.023  14.185 -0.2013 -0.1187  0.1112
21492W        W41026  10.984   2.815   0.425  0.0435  0.0140 -0.1096
21493W        W41027  10.582   5.121   0.085 -0.0840 -0.3011 -0.1133
21494W        W41028  11.866   5.384   2.333  0.0796  0.0437  0.1764
21495W        W41029   5.300   0.992   2.166  0.2140 -0.1314 -0.4914
21496W        W41030  12.255  14.176   1.948 -0.0232  0.1046  0.2104
21497W        W41031   5.973  10.290   3.803  0.3306  0.2941  0.1272
21498W        W41032  15.894   7.068  12.621  0.0648 -0.2905 -0.1108
21499W        W41033   7.272   7.100   4.043  0.0250  0.1387  0.0584
21500W        W41034  18.654  10.902   4.360 -0.1196  0.4667  0.2420
21501W        W41035   3.489   3.843  12.716 -0.0582 -0.1115 -0.3254
21502W        W41036   2.135   0.856   3.546  0.0296 -0.2594 -0.3944
21503W        W41037   0.714   5.425   3.640  0.0415 -0.0005 -0.3220
21504W        W41038   7.777  14.120   4.921 -0.1180  0.0771 -0.2730
21505W        W41039  15.614   7.340  12.999  0.0299 -0.0908  0.0762
21506W        W41040   1.364  17.966  14.568 -0.0162  0.2044  0.1625
21507W        W41041   7.462  16.048   1.165  0.0901  0.0581  0.0743
21508W        W41042  15.949   0.090   2.020  0.0418 -0.0060  0.0676
21509W        W41043   9.409   0.097   2.378  0.1176 -0.0804  0.0040
21510W        W41044   9.993   5.453   3.023  0.2097 -0.0511 -0.0947
21511W        W41045   1.747   7.706  14.731  0.1945  0.2054 -0.0562
21512W        W41046   9.672  13.529  14.175 -0.1714  0.1862  0.4191
21513W        W41047   7.049   2.490  12.082  0.3170 -0.0406  0.1306
21514W        W41048   7.745  16.641   0.456 -0.2496  0.0040 -0.0105
21515W        W41049  19.076  18.021   1.525 -0.0719  0.0433  0.1495
21516W        W41050   7.295  13.193   2.819  0.1689  0.0633  0.4243
21517W        W41051  10.558   3.898  12.553 -0.0818  0.0586 -0.0407
21518W        W41052  17.237  15.925  12.592 -0.0867 -0.0694 -0.2555
21519W        W41053   0.619   7.414   1.140 -0.2471 -0.0180 -0.2301
21520W        W41054   7.474   2.194  13.520 -0.1997  0.0195  0.0579
21521W        W41055  15.481   7.558  14.142  0.0860 -0.0737 -0.2011
21522W        W41056  12.114   6.185  11.029  0.0505  0.4026  0.2860
21523W        W41057   2.110  10.243   0.568  0.0138  0.2866 -0.0609
21524W        W41058  17.046   6.528  14.285  0.3144  0.3394  0.3714
21525W        W41059   9.768   2.881  13.773 -0.0916  0.0255  0.0466
21526W        W41060  15.314  13.102  12.922 -0.0529  0.0472 -0.0104
21527W        W41061   2.198   2.453  13.124  0.3073 -0.1760  0.0170
21528W        W41062  16.396   7.341  13.777 -0.2196 -0.0805  0.1101
21529W        W41063   3.266   8.711  10.998 -0.2082 -0.0320 -0.0864
21530W        W41064   2.942   8.532  12.921 -0.0780  0.0994  0.1201
21531W        W41065   1.214   5.415  11.672 -0.0773 -0.1811  0.2540
21532W        W41066   8.117   9.664   3.469 -0.1096 -0.0294  0.0318
21533W        W41067  12.873   7.499   3.396 -0.1257  0.0409  0.0988
21534W        W41068   4.774   8.837  11.881 -0.3784 -0.0838  0.0902
21535W        W41069   0.212  10.780   2.131 -0.1855  0.2979  0.1303
21536W        W41070  17.588  13.146   3.005  0.1791  0.0217  0.3489
21537W        W41071   1.669  16.117   1.791 -0.3052 -0.1588  0.0320
21538W        W41072  17.695  17.875   1.933  0.0054  0.1797 -0.1665
21539W        W41073   0.155  17.969  11.244 -0.3762 -0.1039 -0.1086
21540W        W41074  17.015   1.765  14.130 -0.0006  0.0306 -0.0607
21541W        W41075  16.664  18.272  11.381  0.3461  0.4515 -0.2973
21542W        W41076  14.338   5.189  12.370 -0.3905 -0.1089 -0.2832
21543W        W41077   8.588   5.355  14.444  0.0235 -0.0192 -0.0565
21544W        W41078   0.490  18.620   4.163  0.2761  0.2797 -0.2702
21545W        W41079  18.245   8.305   1.573 -0.0965  0.0469  0.3250
21546W        W41080  11.144  19.033  14.545 -0.0157 -0.3330 -0.1831
21547W        W41081  15.263  11.391  12.176 -0.0768 -0.2356  0.2122
21548W        W41082   7.506   6.960   1.978 -0.0176  0.5065  0.1220
21549W        W41083   6.053  11.699  11.836  0.0198 -0.1762 -0.1065
21550W        W41084   8.096  19.089   1.970  0.2812  0.2304  0.1399
21551W        W41085  17.856  14.670  14.122  0.1568  0.2434 -0.1054
21552W        W41086   7.517  10.459   3.275  0.0206  0.0060 -0.2008
21553W        W41087  12.589   8.132   4.043  0.0488  0.0373  0.0697
21554W        W41088   9.962   4.066   1.610  0.2272  0.1177  0.2457
21555W        W41089  14.757  14.372  12.751  0.1120  0.2222 -0.2466
21556W        W41090  16.214   8.608   1.121 -0.0929 -0.1527 -0.1976
21557W        W41091  18.166   1.877   2.842  0.1826 -0.1217 -0.1713
21558W        W41092   6.399   8.643   3.946  0.3159  0.1632 -0.3185
21559W        W41093   9.670   3.598   0.894 -0.4364  0.2931  0.1878
21560W        W41094  13.680  10.361   3.877  0.2777 -0.1265 -0.0271
21561W        W41095   4.681   5.570  13.370  0.0530 -0.0635  0.3383
21562W        W41096   2.276  10.804  14.706 -0.0670  0.2410 -0.0488
21563W        W41097   2.988   0.586  12.126 -0.2508  0.1557 -0.2235
21564W        W41098  12.598   7.903   3.373 -0.2757  0.0462  0.2614
21565W        W41099  12.002  10.138   3.578  0.1353 -0.1136  0.1501
21566W        W41100   7.891   5.464  13.395 -0.2870  0.0568 -0.1379
21567W        W41101   8.380   9.189   5.556  0.3132  0.0670  0.3057
21568W        W41102  10.370  10.722   1.591  0.1812 -0.1290 -0.0881
21569W        W41103   4.612   0.901   1.648 -0.1640  0.4624  0.0902
21570W        W41104   1.430   3.013  10.222  0.2729  0.0296  0.0017
21571W        W41105  16.818   8.409   0.606 -0.2924 -0.1092 -0.3581
21572W        W41106  13.960   8.769  10.967  0.2043 -0.0669  0.1101
21573W        W41107  17.949   3.221   3.012 -0.2742  0.2097  0.1987
21574W        W41108  13.238   2.001   0.933 -0.2069 -0.2893  0.0999
21575W        W41109   3.994   9.476  14.142  0.2437 -0.1878  0.2151
21576W        W41110  15.318   7.361  12.123  0.0559 -0.2108  0.0358
21577W        W41111  14.299   9.618   3.979 -0.0838 -0.1845  0.0422
21578W        W41112  13.410   0.623  14.372 -0.1978  0.1468 -0.0305
21579W        W41113  16.580   6.562   4.274 -0.1518  0.0650 -0.0160
21580W        W41114  10.153   6.712   2.328  0.2375  0.0267 -0.0733
21581W        W41115  17.792   5.875  10.695  0.3243  0.3461 -0.1761
21582W        W41116   6.136   2.806  11.716 -0.0155 -0.1189  0.0283
21583W        W41117   4.542   6.069  12.691 -0.1434 -0.0610 -0.3125
21584W        W41118  13.956   5.038   0.051 -0.1570  0.0415 -0.0305
21585W        W41119   9.804   0.373  14.545 -0.3793 -0.1324  0.2513
21586W        W41120   1.553   4.232  10.615 -0.0952  0.0798  0.2794
21587W        W41121  11.757  14.081   2.068  0.0407 -0.0026 -0.3063
21588W        W41122  15.453  12.496   4.411 -0.2714 -0.2888  0.1310
21589W        W41123   8.162  14.692  11.470 -0.3167 -0.1166 -0.0721
21590W        W41124  18.208  17.856  13.920 -0.0363 -0.0596 -0.1526
21591W        W41125   0.003  18.787   0.715 -0.0328  0.0582  0.0117
21592W        W41126  15.382   5.933   0.835  0.0870 -0.2680 -0.0510
21593W        W41127   2.193   6.643   3.508 -0.1957  0.1549 -0.1457
21594W        W41128  16.191  18.563   2.582  0.0910 -0.1553 -0.2404
21595W        W41129   4.976   8.389  12.123  0.0635 -0.2201  0.0040
21596W        W41130   9.609   2.687   2.568  0.1284 -0.1059  0.1866
21597W        W41131  12.455   1.321  11.958  0.0355  0.0461  0.3601
21598W        W41132   3.483  18.785  13.887 -0.0502 -0.0114  0.0721
21599W        W41133   8.508   0.911  13.956  0.1615 -0.2438 -0.1815
21600W        W41134  15.765  15.707   3.230  0.0027  0.1704 -0.1683
21601W        W41135   5.664  17.166  10.739  0.2771 -0.0752  0.2575
21602W        W41136   5.761  10.884  14.503  0.2447 -0.0521 -0.0710
21603W        W41137  13.109   9.325   1.512  0.1532  0.2115 -0.0056
21604W        W41138   6.924  12.490   1.105  0.0278 -0.1945 -0.0416
21605W        W41139   0.662  10.405   2.228  0.0052 -0.3577  0.0258
21606W        W41140   8.761   5.636   4.354 -0.1068  0.1425  0.1903
21607W        W41141  16.673  14.947   3.586  0.0572  0.0643  0.0022
21608W        W41142   5.774  14.034  11.287 -0.3368 -0.0281 -0.0334
21609W        W41143   0.115   6.907  13.233  0.3271 -0.1773 -0.0049
21610W        W41144   2.484  18.699   3.161 -0.2606  0.0279 -0.1066
21611W        W41145   1.062  13.472  14.047 -0.3594 -0.0293  0.1600
21612W        W41146   4.608  13.090   2.256 -0.4167  0.0868 -0.0197
21613W        W41147   6.198   2.491  10.729 -0.0620  0.1896 -0.0128
21614W        W41148   2.030  14.561  12.319 -0.1995  0.0322 -0.0316
21615W        W41149  12.792   1.187  12.351 -0.1258 -0.0782  0.0530
21616W        W41150  15.516  13.806  11.263 -0.1368  0.0482  0.0384
21617W        W41151  18.119  17.384  14.182 -0.0252 -0.1066 -0.1402
21618W        W41152  13.755   9.122   3.602 -0.1565 -0.0533  0.2051
21619W        W41153   7.019  15.978  11.373 -0.3335 -0.0801  0.0545
21620W        W41154  12.972   7.832  12.521 -0.1943 -0.0043 -0.0332
21621W        W41155   7.554   8.413  13.770 -0.0590 -0.1358 -0.3029
21622W        W41156  18.198  10.992  12.267  0.2087 -0.1779 -0.1213
21623W        W41157  17.679   4.932  11.124 -0.0934  0.1403  0.2206
21624W        W41158  10.965  11.946  11.893  0.1299 -0.3667  0.4024
21625W        W41159   9.343  12.054   0.636  0.3031 -0.2097  0.1826
21626W        W41160   9.798   7.596   4.200 -0.3096  0.0893 -0.1655
21627W        W41161   6.764  17.601   1.788 -0.0835  0.1839  0.1683
21628W        W41162  12.832   5.281   4.103 -0.3330 -0.0565 -0.0835
21629W        W41163   8.773  16.041   4.371  0.2069 -0.2033  0.2457
21630W        W41164   3.656  16.084   1.925  0.1718  0.2485  0.0544
21631W        W41165   0.635   6.679   3.037  0.2074 -0.1972 -0.1261
21632W        W41166  14.048   0.641  13.091 -0.3188  0.0589 -0.2606
21633W        W41167  12.868  14.842  11.432  0.1813 -0.2508 -0.1182
21634W        W41168   8.355   8.804   3.699  0.3272  0.1109  0.2334
21635W        W41169  18.286  18.379   2.653 -0.3592  0.2586 -0.1514
21636W        W41170  18.601   9.768  12.528 -0.0247  0.1237 -0.3927
21637W        W41171   3.819   2.253   1.167 -0.2363  0.2352  0.1708
21638W        W41172  10.032   2.662   5.408  0.0200  0.3373  0.1280
21639W        W41173  13.147  16.207  13.831  0.2082 -0.0758  0.1474
21640W        W41174  12.859   0.921   4.078  0.3024  0.1256  0.1256
21641W        W41175   7.503  18.002  12.257  0.1654  0.3460  0.1765
21642W        W41176  14.960   8.813   3.341  0.0287  0.3046 -0.3438
21643W        W41177   8.999  10.923  13.132 -0.0982  0.1204  0.1273
21644W        W41178   0.247   5.362   3.364  0.2062 -0.0755 -0.0908
21645W        W41179   9.573  17.099  13.585  0.1390 -0.0108 -0.0687
21646W        W41180   7.261   8.022   3.056  0.0492 -0.2055  0.0497
21647W        W41181   4.702   6.526   2.531  0.0254 -0.0130  0.2473
21648W        W41182   2.256  11.270   3.373  0.0547  0.0517 -0.3813
21649W        W41183   2.123  15.802  13.669 -0.2552 -0.1263 -0.0175
21650W        W41184  12.395   2.012   0.588 -0.0395  0.0290  0.1702
21651W        W41185   8.833   8.679  11.094  0.0397 -0.0620 -0.2188
21652W        W41186   4.843   0.040   0.358  0.0790  0.0314 -0.1310
21653W        W41187  11.815   5.319   3.256 -0.1074 -0.0346  0.1275
21654W        W41188  14.875  18.848  13.678  0.1492  0.2214 -0.2008
21655W        W41189  12.785   1.166   1.580  0.1642 -0.0466 -0.2282
21656W        W41190   6.752  10.360  14.689 -0.2053  0.2870 -0.0310
21657W        W41191   9.963   7.771  14.497 -0.0642 -0.2950 -0.0063
21658W        W41192   0.650   9.746  13.192 -0.0760 -0.1198  0.1651
21659W        W41193   6.187   0.552  13.368 -0.0227 -0.1054 -0.2353
21660W        W41194   5.293  10.426   1.392  0.1184 -0.0493  0.0519
21661W        W41195   4.552  13.308  13.173  0.1062 -0.1907 -0.1612
21662W        W41196   2.934  10.028  13.798  0.0270  0.3779 -0.0187
21663W        W41197  17.941   8.525  10.587  0.1923  0.2609 -0.0759
21664W        W41198  17.034   0.429  14.135 -0.0228 -0.0019  0.1587
21665W        W41199  11.943  17.994   2.603 -0.1735 -0.3030  0.1728
21666W        W41200  11.620   0.679  14.831  0.3303  0.0700  0.4083
21667W        W41201   6.744   7.582   2.425  0.1282 -0.0602  0.0161
21668W        W41202  14.519  18.099  14.476  0.0361  0.1658 -0.3693
21669W        W41203  16.399  16.273   3.809  0.0085 -0.0360 -0.0803
21670W        W41204  16.394  17.368  11.556  0.0348 -0.0260  0.0982
21671W        W41205   4.614  10.544   2.720 -0.0205 -0.2072 -0.0528
21672W        W41206   0.578   8.263  12.577  0.1407  0.2849  0.0950
21673W        W41207   9.685   2.146   2.621  0.2261 -0.2262  0.1419
21674W        W41208   1.083   4.540  11.915 -0.3533 -0.0661  0.0032
21675W        W41209  11.172  15.620   4.415  0.1432  0.1617 -0.1187
21676W        W41210  11.077  13.957   0.881 -0.1207 -0.0736  0.2717
21677W        W41211  10.492   8.605   3.855 -0.0064 -0.0922 -0.1612
21678W        W41212  18.210  17.363   1.718  0.4169 -0.2996  0.2280
21679W        W41213  10.025   4.088  12.388  0.5681  0.1535  0.1415
21680W        W41214   5.082  15.587   1.013  0.1777  0.2183 -0.1024
21681W        W41215   4.208   0.599   1.833  0.0099 -0.3052  0.0819
21682W        W41216  11.780  11.073   1.665 -0.0381  0.3252 -0.0343
21683W        W41217   0.107   7.734   3.754  0.2847 -0.1974  0.0649
21684W        W41218  15.637  18.433  13.258 -0.1333 -0.2916  0.2701
21685W        W41219   2.548  14.717   3.616 -0.0351  0.2712  0.0921
21686W        W41220   6.096   8.870  13.668  0.1899 -0.0195 -0.2916
21687W        W41221   8.742  15.908  10.522 -0.2702  0.3525 -0.0180
21688W        W41222  16.829  15.656  12.640 -0.0555 -0.2156  0.0479
21689W        W41223   4.116   2.108  14.395  0.2004 -0.1033 -0.1654
21690W        W41224  14.074   8.560  10.549 -0.0846 -0.3071  0.2154
21691W        W41225   1.755   8.424   1.816  0.2378 -0.2795 -0.2168
21692W        W41226   0.649  12.524  13.992 -0.0712 -0.1516 -0.1413
21693W        W41227   5.666  14.446   5.236 -0.0185  0.0548  0.2473
21694W        W41228   0.356  16.006   0.305 -0.0754  0.1356  0.0936
21695W        W41229   4.432   1.621   0.661 -0.0746 -0.1256 -0.1469
21696W        W41230   4.111  15.917   2.228  0.2713 -0.1549  0.2037
21697W        W41231  15.215  13.660  14.411  0.0218  0.0389  0.0584
21698W        W41232   5.661  18.181   5.379 -0.1630  0.0941 -0.2768
21699W        W41233   6.957   5.878  13.761 -0.3584 -0.2590 -0.2340
21700W        W41234   2.830   8.386   3.941  0.0783 -0.1483 -0.0326
21701W        W41235   7.932  11.337  13.589  0.0912 -0.2529  0.1716
21702W        W41236  12.644  13.214  13.704  0.1978  0.0415 -0.1907
21703W        W41237   5.111   4.348  12.335  0.0202 -0.0885 -0.0596
21704W        W41238   3.720  13.172   1.959  0.0436  0.2303  0.1232
21705W        W41239   5.654   2.890  10.516 -0.0947  0.1042 -0.1845
21706W        W41240  18.500  15.632   0.335  0.4061  0.1296  0.0841
21707W        W41241  15.170  10.116  11.013  0.3886  0.1323  0.1736
21708W        W41242  15.129  14.880  14.093  0.2315 -0.0538  0.2052
21709W        W41243  11.113   5.859   0.062  0.0689 -0.0533  0.2033
21710W        W41244   0.901  14.201  13.347 -0.1451 -0.0381  0.1064
21711W        W41245   8.422   0.888   1.014  0.1412 -0.1404 -0.2756
21712W        W41246   3.023   2.094   0.649  0.0223  0.1171  0.0947
21713W        W41247   2.698   9.832  13.229 -0.0708  0.2368  0.0885
21714W        W41248   3.507   2.015   2.364  0.2793 -0.0729  0.0811
21715W        W41249   7.106  10.000   4.704  0.1528  0.0942  0.1389
21716W        W41250  14.168   4.940   4.176 -0.2455 -0.1675 -0.0836
21717W        W41251  18.990  15.070  12.587 -0.2672 -0.1320 -0.0381
21718W        W41252   0.065   4.775   2.787  0.0976  0.0846 -0.3199
21719W        W41253  18.809   8.768   1.005  0.0529 -0.3751 -0.1097
21720W        W41254   8.276  13.512  11.722 -0.0272 -0.0410  0.0205
21721W        W41255   8.261  14.982   2.174 -0.1771 -0.0865  0.2299
21722W        W41256  17.606  13.202  10.521 -0.0291  0.2766  0.0369
21723W        W41257   4.362   2.836  10.337 -0.0160  0.2067  0.0389
21724W        W41258   3.027  14.423   3.167 -0.2608  0.0515  0.2727
21725W        W41259  18.561  12.478   3.905 -0.0640 -0.1124  0.3070
21726W        W41260   0.885   8.849   3.114  0.0040  0.3623 -0.1629
21727W        W41261  11.100  15.971  13.179  0.0687 -0.0862  0.0121
21728W        W41262  17.633   4.781   1.802  0.2214 -0.0955  0.2236
21729W        W41263  12.126   7.569   1.673  0.0051  0.1099 -0.0086
21730W        W41264  16.777  13.291   3.367  0.2331  0.1360 -0.0725
21731W        W41265   2.327   7.487   3.852 -0.1331 -0.1686  0.0412
21732W        W41266  15.747  17.355  13.335  0.2356  0.0181  0.1867
21733W        W41267   7.743  18.556   0.994  0.1003  0.1679  0.1425
21734W        W41268   4.092   7.587  14.583  0.0485  0.0244 -0.0777
21735W        W41269  12.308   2.628   0.082  0.1967 -0.0647  0.3039
21736W        W41270  17.389  13.569  14.435  0.0077  0.5512 -0.1398
21737W        W41271   6.786  13.966   1.033 -0.0082 -0.1765  0.0296
21738W        W41272   7.539  10.138   0.606  0.2555  0.1358  0.1135
21739W        W41273   0.428  19.078  13.438 -0.4516 -0.3041  0.0827
21740W        W41274   0.595   8.441   0.950  0.0642 -0.1300 -0.1403
21741W        W41275  10.868  11.691   2.639  0.4047  0.0618 -0.1267
21742W        W41276   2.426   8.105   3.802 -0.3902 -0.0568  0.2606
21743W        W41277  18.000   2.195   1.737  0.0177 -0.2784 -0.0458
21744W        W41278  18.321  12.287  13.796 -0.0356  0.1521 -0.0635
21745W        W41279   7.387  12.091  11.014  0.1373  0.1349  0.2917
21746W        W41280  17.173  18.186  12.334 -0.0656 -0.0835 -0.0433
21747W        W41281   1.952  17.156  13.273 -0.2452 -0.1315 -0.5696
21748W        W41282   8.793   3.542  14.656 -0.2210 -0.0219  0.2001
21749W        W41283  11.939   7.217   1.150  0.0200 -0.2153  0.0855
21750W        W41284   4.715  17.069   0.095  0.1255  0.2707  0.1132
21751W        W41285  14.013  16.404  11.766 -0.1280 -0.1058 -0.0327
21752W        W41286  12.519  18.129  11.666 -0.3100  0.1737  0.1081
21753W        W41287  10.576  15.143  12.004  0.0546 -0.1020  0.2844
21754W        W41288  16.483   6.322  14.095  0.0555  0.0774 -0.1008
21755W        W41289  13.311   5.542  12.420 -0.0016  0.1423 -0.0363
21756W        W41290  13.339   7.034  10.015  0.2468 -0.1708  0.1358
21757W        W41291  13.759   2.782  10.798 -0.2064 -0.0313 -0.2593
21758W        W41292  14.243  11.909  11.944 -0.1136 -0.1175  0.0350
21759W        W41293  12.717   3.206   2.021  0.0670  0.2467 -0.2767
21760W        W41294   3.357   0.774   1.134  0.0516 -0.4068  0.2100
21761W        W41295   8.775   7.163   3.967 -0.1473  0.2863 -0.0606
21762W        W41296   0.716   7.485  13.155  0.0360  0.4451 -0.2478
21763W        W41297  10.462  18.978   5.353  0.0084 -0.1333 -0.3052
21764W        W41298   5.579  13.033   3.887  0.0936  0.0693 -0.1088
21765W        W41299  13.280   4.152   4.146 -0.2641 -0.0905  0.1783
21766W        W41300  12.030  13.694   1.946  0.0303  0.0540  0.2884
21767W        W41301   8.529   3.162  11.909  0.1122  0.2283  0.2362
21768W        W41302  16.874  12.593   1.650  0.2345 -0.0995  0.0150
21769W        W41303  18.663  10.756  12.157 -0.0205  0.2042  0.3233
21770W        W41304  15.902   9.582   2.296 -0.2334  0.2499 -0.0975
21771W        W41305  12.346  11.795   1.625 -0.2957  0.0877  0.2734
21772W        W41306  15.732  13.733  14.365 -0.2604 -0.2344  0.1305
21773W        W41307  10.351  14.640  12.103  0.0533  0.1570  0.3280
21774W        W41308  15.960  10.861   3.512 -0.3764  0.2159  0.0707
21775W        W41309  16.097  17.576  14.371  0.0778  0.4157 -0.2750
21776W        W41310   6.067   4.767   1.123 -0.2618  0.1536  0.0560
21777W        W41311   1.465  15.865  12.476  0.5132 -0.1542 -0.1736
21778W        W41312   5.158   2.653  10.497 -0.1740  0.1470  0.1168
21779W        W41313   1.929   8.884  12.363  0.2462 -0.2230 -0.2003
21780W        W41314  16.619   6.240  11.680 -0.0817  0.0374  0.0759
21781W        W41315   1.586   3.140   2.362  0.2339 -0.3494  0.1983
21782W        W41316   3.492  18.780   1.007  0.0707  0.1975  0.0537
21783W        W41317  15.784   7.564   3.920  0.0727 -0.0972 -0.0999
21784W        W41318  13.396  10.030  13.631  0.1498 -0.2204 -0.0755
21785W        W41319  10.231  18.227  14.218  0.1220 -0.0107 -0.1025
21786W        W41320  12.407   8.875  14.235 -0.2880 -0.2223  0.1249
21787W        W41321   3.582   5.579  10.627 -0.2573 -0.3722 -0.0959
21788W        W41322  11.477  18.121   3.821  0.0539  0.0756  0.0039
21789W        W41323   9.147   1.367   4.792  0.0830  0.0838  0.0176
21790W        W41324  10.702   4.661  11.290  0.0396  0.0634 -0.1644
21791W        W41325  13.162   5.610   3.853 -0.0207  0.0276 -0.2556
21792W        W41326   0.355  17.049   0.871  0.0465 -0.0384  0.3313
21793W        W41327   3.693  16.606   3.823 -0.0277 -0.0327  0.0945
21794W        W41328   8.238   8.639  10.999  0.0725  0.1428 -0.1768
21795W        W41329  15.120  10.383  14.772 -0.0503  0.0929  0.0126
21796W        W41330  16.421  11.518   0.448  0.2109 -0.0611  0.3783
21797W        W41331  12.195   3.079   5.529 -0.2143 -0.1161  0.0345
21798W        W41332  15.071  14.892   5.030 -0.1363  0.0858 -0.0902
21799W        W41333   5.608   9.227  13.051 -0.2031 -0.0091 -0.3399
21800W        W41334  16.127   8.807   2.898  0.0380 -0.0641  0.1122
21801W        W41335  17.196  10.525  13.162  0.0345  0.2463  0.3208
21802W        W41336  17.778   7.849   1.186  0.0443  0.5897  0.1134
21803W        W41337  15.843  18.408   3.343 -0.0887  0.3954  0.1038
21804W        W41338   5.643  14.913   2.841  0.2177  0.1845 -0.1394
21805W        W41339  14.853   9.542  14.261  0.0379 -0.0115  0.0095
21806W        W41340   2.287   5.981   0.044 -0.1586 -0.0607  0.1073
21807W        W41341  11.456   8.231   5.429 -0.3233 -0.0308  0.1383
21808W        W41342   5.457  18.591   0.551 -0.0994  0.0058 -0.2487
21809W        W41343  14.726   2.598   2.451  0.0653  0.1387  0.0712
21810W        W41344  18.064   9.626   1.823 -0.0625 -0.3888 -0.3643
21811W        W41345  11.588  14.941   2.509 -0.1993  0.2035 -0.0304
21812W        W41346   7.873   9.348  11.371 -0.1750  0.1163  0.0533
21813W        W41347   9.888  12.266  14.674  0.1198  0.0461  0.1686
21814W        W41348   0.117   4.355   3.086 -0.3958 -0.0132 -0.2468
21815W        W41349   0.981  11.998   3.134 -0.0522 -0.1413  0.2069
21816W        W41350   1.109   1.791   3.618 -0.1707  0.0830  0.1320
21817W        W41351  12.365   3.390   4.460 -0.2041 -0.0639 -0.0117
21818W        W41352   8.166  18.323  11.224 -0.1517  0.1688  0.0811
21819W        W41353   0.894  17.853   2.916 -0.1067  0.0464 -0.0518
21820W        W41354  13.697  11.007   1.560 -0.0233 -0.3137 -0.0325
21821W        W41355  12.623  15.126   0.353 -0.0112 -0.1151  0.0742
21822W        W41356  11.577   7.810   3.135  0.1214  0.2363 -0.0391
21823W        W41357   2.014   3.784  14.008  0.1648  0.1359 -0.0895
21824W        W41358   8.227  17.085  12.333 -0.2001  0.1409  0.1291
21825W        W41359  15.260   1.939   0.364 -0.0718 -0.0036 -0.0152
21826W        W41360   6.683   2.832   3.547 -0.0335 -0.0227 -0.0410
21827W        W41361  16.421   1.296  12.858 -0.1859  0.1694  0.2251
21828W        W41362   8.953  18.056   1.910  0.2247 -0.2798 -0.0439
21829W        W41363   8.286  14.188   4.147 -0.0643 -0.2620 -0.2142
21830W        W41364  10.411  13.120   1.737 -0.1127 -0.0036 -0.1107
21831W        W41365   0.954  12.198   0.771  0.0877  0.2733  0.2364
21832W        W41366   8.725  12.339   1.027  0.1807  0.2162 -0.1205
21833W        W41367   1.508   9.523   3.757  0.2763 -0.1677 -0.0863
21834W        W41368  16.517   4.694   3.089  0.1046 -0.0031  0.0357
21835W        W41369  11.244  15.583   1.096  0.2829 -0.1584  0.3433
21836W        W41370  18.179   1.460  14.268  0.0143  0.1724  0.3652
21837W        W41371  11.002   8.184   0.704  0.0824  0.1995 -0.1142
21838W        W41372   9.465   6.931  11.035  0.0058 -0.0219  0.0515
21839W        W41373   9.286  16.772   2.942  0.0451  0.0088  0.1928
21840W        W41374   2.910   3.378   1.196 -0.0851 -0.2590 -0.1309
21841W        W41375  15.543  12.383  11.825 -0.0103 -0.0391  0.1333
21842W        W41376   0.416  12.276   0.954 -0.1311 -0.1104  0.2687
21843W        W41377  18.355   4.243   1.241 -0.2298  0.0483 -0.1472
21844W        W41378   5.817  16.955  14.574 -0.2762 -0.0559 -0.1644
21845W        W41379  16.725  17.535   0.227  0.6479 -0.3249 -0.1284
21846W        W41380  17.997  14.236   3.809 -0.1003  0.0296  0.3134
21847W        W41381  16.870  16.556  13.100  0.1838  0.1218  0.3291
21848W        W41382   4.219   5.409  11.508  0.2472  0.0369 -0.2060
21849W        W41383   5.998  10.512   2.711 -0.3133 -0.1001 -0.1687
21850W        W41384  15.115   5.070   1.385  0.0849 -0.0556 -0.1159
21851W        W41385  12.391  14.752  11.682 -0.1671 -0.0760 -0.3148
21852W        W41386  17.697   5.593   3.129 -0.1737 -0.0848  0.0427
21853W        W41387   5.890   1.641   3.143 -0.1318 -0.0337  0.0245
21854W        W41388   9.468  15.262   0.098 -0.3763  0.0624  0.2395
21855W        W41389  13.967   6.673  11.518 -0.0866  0.0930  0.2610
21856W        W41390  10.164   2.656  13.931  0.0372 -0.1895  0.3941
21857W        W41391  15.445  12.318   1.761  0.0505  0.0111  0.0273
21858W        W41392  14.404  13.372   1.460 -0.1295 -0.1562 -0.3675
21859W        W41393  17.523   0.845  12.283 -0.0745 -0.2790  0.0999
21860W        W41394   6.657  17.895   2.189 -0.0540  0.1142  0.2022
21861W        W41395  12.366   9.790   2.639 -0.1544 -0.1079 -0.1768
21862W        W41396  14.405  14.709   1.014 -0.0102 -0.1859  0.3342
21863W        W41397   8.201   8.279  13.130 -0.0079 -0.0845 -0.2587
21864W        W41398   9.847   4.796   3.532  0.0399  0.2017 -0.1888
21865W        W41399  17.304  17.937   2.309 -0.1018  0.1494  0.0729
21866W        W41400   9.311   9.895   1.765  0.1413 -0.0091  0.0611
21867W        W41401  17.872  14.779   2.718  0.1033  0.1007 -0.0151
21868W        W41402   7.237  18.115   3.203  0.0031  0.1089  0.0762
21869W        W41403   8.516   1.504   1.154  0.1847  0.0633  0.0863
21870W        W41404  11.008  17.393  12.471 -0.0378  0.0666  0.0682
21871W        W41405   2.637   8.047  12.088 -0.1596  0.1296 -0.1104
21872W        W41406  15.156   8.889  11.346  0.1059 -0.0184  0.0412
21873W        W41407   1.124   6.741   3.064 -0.2270  0.2186  0.2155
21874W        W41408   5.078  13.153   2.459 -0.3445 -0.2580 -0.1152
21875W        W41409  12.674   4.549   1.078 -0.0741  0.1117 -0.2813
21876W        W41410  15.632   3.835  11.112 -0.0211 -0.1106  0.2235
21877W        W41411  13.882  13.471  10.029 -0.1404 -0.0467  0.1789
21878W        W41412  10.737   3.118   2.032 -0.0204 -0.1382  0.0528
21879W        W41413  11.271   4.422  12.598 -0.2457 -0.0686 -0.1696
21880W        W41414   3.347   9.376   4.553 -0.3216 -0.0871 -0.1324
21881W        W41415  10.626   3.620   4.247  0.2430  0.0266 -0.0792
21882W        W41416   0.739   9.679  11.925  0.1800 -0.0019 -0.1500
21883W        W41417   0.630   8.665   1.384  0.0660 -0.0046 -0.0083
21884W        W41418   4.919   7.439  11.766  0.4873  0.4505  0.1557
21885W        W41419  13.886  16.002   3.318  0.1085  0.2586 -0.0004
21886W        W41420  15.865   2.532   1.489  0.0328 -0.1847 -0.1381
21887W        W41421  11.469  10.232  10.671 -0.2039  0.0203  0.0495
21888W        W41422   8.374  14.473   2.051 -0.1175  0.0389 -0.2504
21889W        W41423  17.420   3.446  11.028  0.0963  0.1751 -0.2317
21890W        W41424  11.348  17.976  13.114  0.0310  0.2664  0.1857
21891W        W41425  12.319  17.302  12.735 -0.3463  0.1128  0.0338
21892W        W41426  10.317   2.488  13.208 -0.2287 -0.0004 -0.2842
21893W        W41427   7.149  10.415  12.225  0.1077  0.1216  0.2196
21894W        W41428  12.117  15.325   1.127 -0.0115 -0.1811  0.1180
21895W        W41429   5.695  10.865   0.980  0.1158  0.1781  0.2507
21896W        W41430  13.345   8.045  13.551  0.0009 -0.1604  0.0627
21897W        W41431   2.315   8.391  14.394 -0.0545  0.2598  0.2041
21898W        W41432   6.695   6.853  12.981 -0.3062  0.1694  0.3730
21899W        W41433  17.165   4.172  11.520 -0.0350  0.2290 -0.1569
21900W        W41434  15.858   5.450  12.173  0.0728  0.1291  0.0639
21901W        W41435   0.116  11.516   3.015  0.2259  0.0204  0.0630
21902W        W41436   0.787   5.557  11.874 -0.2562 -0.2437  0.4311
21903W        W41437  12.625  18.151   0.773 -0.1113  0.0831  0.1905
21904W        W41438   1.557  14.486  12.219 -0.1467 -0.0151 -0.2253
21905W        W41439   3.589  17.799  13.457  0.1596  0.0464 -0.1799
21906W        W41440   9.492   5.421   2.259 -0.3386 -0.0221  0.0635
21907W        W41441  17.398  10.197   0.877 -0.0484 -0.0478 -0.1324
21908W        W41442   7.168  14.506  11.731  0.2004 -0.1183  0.2372
21909W        W41443  11.848  16.656   1.347 -0.1966 -0.2637  0.0069
21910W        W41444  17.123   3.620   3.073  0.0155 -0.0670  0.2399
21911W        W41445   6.834  13.591   0.445 -0.1565 -0.1119 -0.0496
21912W        W41446  17.911   9.384  12.716 -0.0483  0.1554 -0.0318
21913W        W41447   9.340   1.323   0.747  0.1230  0.3001 -0.0954
21914W        W41448   4.294   2.034  11.754  0.0885  0.5092 -0.0535
21915W        W41449   1.745   7.941  14.003  0.1915  0.3796 -0.0870
21916W        W41450   3.763   6.278   4.205 -0.2210 -0.0925 -0.0684
21917W        W41451   0.522   7.131  12.693 -0.1009  0.0597  0.3602
21918W        W41452   7.757   0.509   2.817 -0.1264 -0.1427 -0.1044
21919W        W41453   4.239   1.198  13.635  0.1215 -0.4209 -0.0064
21920W        W41454   2.278  15.157  11.055  0.2116  0.1446 -0.0269
21921W        W41455   8.756  14.674   0.073 -0.0780  0.1683  0.3180
21922W        W41456   3.460  17.271  11.215 -0.2376 -0.1580 -0.1707
21923W        W41457  14.263   9.291  12.134 -0.2314 -0.0148 -0.0257
21924W        W41458   8.160   0.615  11.599  0.0642  0.3754 -0.0922
21925W        W41459   9.928   7.636   3.085 -0.0306 -0.1781  0.0990
21926W        W41460   3.632   6.668   1.125  0.1207 -0.0813 -0.0852
21927W        W41461   8.565  17.798   3.931  0.0200 -0.1246  0.0710
21928W        W41462  13.945  17.207   1.340  0.2387 -0.0894  0.2334
21929W        W41463   6.956   4.153  11.479  0.4169 -0.0812  0.2159
21930W        W41464  13.265   3.390  14.201  0.2122  0.1111  0.0239
21931W        W41465   0.773   9.738   0.613  0.2618  0.2390 -0.1579
21932W        W41466   5.237  17.806   0.495 -0.0079 -0.0567 -0.2276
21933W        W41467   9.276   5.814   2.490 -0.2215  0.0287  0.0086
21934W        W41468  14.618  18.336  12.585  0.1656  0.2069  0.5158
21935W        W41469   0.113  12.053   3.237 -0.0937 -0.1958  0.0527
21936W        W41470  17.089   1.238  11.258  0.0291  0.1012 -0.0266
21937W        W41471  13.122   7.377   3.844  0.0313  0.0231 -0.1050
21938W        W41472  18.499  18.994   2.822 -0.0315 -0.2192  0.1082
21939W        W41473   5.821   4.683  11.797  0.0525  0.2319 -0.0313
21940W        W41474   1.383   0.529   4.212  0.0737  0.2562  0.0410
21941W        W41475   2.141  11.877  13.996 -0.1408  0.1716 -0.0974
21942W        W41476   6.868  12.150  12.025 -0.3423  0.1203  0.3311
21943W        W41477  13.768   9.334  13.197  0.0894  0.1407  0.1677
21944W        W41478   0.163   9.374   2.751  0.0297 -0.2688  0.1253
21945W        W41479  13.869   3.458  11.170 -0.0832  0.0955  0.0111
21946W        W41480  12.464  11.956   2.110  0.2135  0.1009 -0.0622
21947W        W41481   4.912   6.512  12.755  0.0608  0.0397 -0.0722
21948W        W41482   1.654  14.160   3.738 -0.0834  0.0636  0.0240
21949W        W41483  12.876   6.677  11.100 -0.1704  0.1657  0.2086
21950W        W41484   8.112   1.736   0.891 -0.2082 -0.1280  0.3724
21951W        W41485  18.156  14.251   0.669  0.0046 -0.3257 -0.0496
21952W        W41486  16.648   9.634   2.981  0.0335 -0.3074  0.2174
21953W        W41487   2.810   5.025   1.023 -0.1512  0.0049  0.0342
21954W        W41488  14.657   8.863  12.284  0.1513 -0.0754  0.2381
21955W        W41489  16.386  14.442   0.112 -0.2143  0.1638  0.1571
21956W        W41490  13.990   2.396  12.096 -0.4319  0.1773 -0.1044
21957W        W41491  18.455   7.729  13.359  0.0417 -0.0823  0.0388
21958W        W41492   3.140  12.800   0.344  0.0801  0.0233  0.0800
21959W        W41493  10.821   1.905  14.217 -0.1220  0.0596 -0.1766
21960W        W41494   3.889   6.224   1.004  0.1057 -0.3377 -0.1125
21961W        W41495  13.941  13.545  10.548  0.2624  0.0821 -0.1145
21962W        W41496   8.527  15.699  12.831  0.1598  0.0432  0.1303
21963W        W41497   4.364  14.848   4.049  0.0544  0.3290 -0.1183
21964W        W41498   9.056  11.895   5.303  0.0746 -0.0847 -0.0903
21965W        W41499   9.315  19.001  11.238  0.2924  0.0456 -0.0737
21966W        W41500   7.980  17.829  14.715  0.0510  0.0738  0.2209
21967W        W41501  14.404  16.692   0.915  0.0222  0.1789  0.1336
21968W        W41502  14.418  15.106   3.512  0.1235  0.0842 -0.0395
21969W        W41503  16.174   0.529   0.565 -0.1736 -0.6942 -0.0455
21970W        W41504   2.037  14.207   3.301  0.1596  0.2578  0.1941
21971W        W41505   8.542  15.079   2.540 -0.1650  0.2016 -0.1442
21972W        W41506   3.073  16.732  13.917 -0.1275 -0.2830  0.0334
21973W        W41507   7.958   5.171   0.553 -0.1929 -0.0692  0.1331
21974W        W41508   0.767  16.676   0.977 -0.0022 -0.0465 -0.0750
21975W        W41509  12.407   8.487   0.547  0.1849 -0.1379 -0.0090
21976W        W41510  15.416   2.970  14.242 -0.3461 -0.3108  0.0175
21977W        W41511  13.185  18.035  14.146 -0.0163  0.2395 -0.1215
21978W        W41512   7.514   8.988  14.487  0.3468  0.1466  0.1171
21979W        W41513  13.769   0.743   1.856  0.1474 -0.0754  0.1441
21980W        W41514   5.951   2.439   5.640 -0.1287  0.0820 -0.0934
21981W        W41515  14.708   9.591  13.747  0.5530  0.2659 -0.0182
21982W        W41516   0.243   8.178   4.167  0.3037 -0.1054 -0.2354
21983W        W41517  11.221  19.030  12.539  0.1714  0.2271  0.0273
21984W        W41518  16.354   5.256  14.794  0.3036  0.2158 -0.0673
21985W        W41519   1.144   4.623  14.004  0.1263 -0.0967 -0.0672
21986W        W41520   9.772   1.076   0.793 -0.1265 -0.0429  0.2909
21987W        W41521  13.951  13.415   1.267  0.0257 -0.3103  0.0143
21988W        W41522  12.886  16.815  13.371  0.1194  0.0979 -0.1028
21989W        W41523   8.462  13.943   1.292  0.0725 -0.2664 -0.0919
21990W        W41524   2.157  10.721  11.731 -0.4022 -0.2852 -0.0490
21991W        W41525  11.734  15.083  12.094 -0.1088 -0.0535  0.1407
21992W        W41526   0.356   4.837   1.342  0.2794 -0.1220 -0.0888
21993W        W41527  12.490  12.922  14.130 -0.0616  0.1065  0.3517
21994W        W41528  11.908   6.721   1.060  0.2100 -0.0049 -0.1275
21995W        W41529   5.851   4.111   4.137  0.4369 -0.0454 -0.3047
21996W        W41530  11.413  11.287   2.964 -0.2423 -0.0606  0.0218
21997W        W41531   5.735   6.933  13.740 -0.2748  0.1588  0.0728
21998W        W41532  12.603  15.573  11.734  0.2258  0.0010  0.1031
21999W        W41533  11.351   9.685   0.578 -0.0082 -0.1269  0.1637
22000W        W41534  16.189   4.901   0.517  0.0284 -0.1059 -0.1510
22001W        W41535  14.379   9.685   3.258  0.0534  0.2594 -0.3164
22002W        W41536  17.850  12.760   2.833 -0.1421 -0.1434 -0.0952
22003W        W41537  19.113  14.447   1.704  0.1349 -0.1843 -0.2860
22004W        W41538  18.092   3.767  14.031  0.1916  0.0584 -0.3024
22005W        W41539  14.993   7.204   2.231 -0.2048 -0.3956  0.0403
22006W        W41540  15.027   7.385   2.969  0.0861  0.0007  0.1351
22007W        W41541  18.503   0.963  12.502 -0.3486 -0.0330  0.0945
22008W        W41542   9.300  18.455   1.703  0.1308 -0.1166 -0.0601
22009W        W41543   1.271   2.395  11.128 -0.1735  0.2458  0.0299
22010W        W41544   0.458  16.353   1.582  0.1185  0.1194 -0.1461
22011W        W41545  16.807  10.100   0.680  0.1377  0.1901 -0.0569
22012W        W41546  17.209  17.403  11.637  0.1907 -0.1040  0.0188
22013W        W41547   7.168   9.538  13.858 -0.1698  0.0440  0.4446
22014W        W41548  18.122  13.774   3.642 -0.0736  0.2002 -0.1403
22015W        W41549   7.311  13.034  14.470  0.2655 -0.0940  0.1288
22016W        W41550  17.038   7.067  14.366 -0.1605  0.2423  0.0108
22017W        W41551  14.774  18.956  11.139  0.2482  0.1948  0.0703
22018W        W41552  10.074   3.405  13.239 -0.0815  0.0229  0.2076
22019W        W41553   3.037  10.484  13.485 -0.0409 -0.1168  0.1744
22020W        W41554  11.575  13.960  11.434 -0.0802 -0.3500  0.3005
22021W        W41555  17.417   8.681  13.852 -0.1659  0.0248  0.1596
22022W        W41556  14.451   1.448  13.198  0.3098  0.0550 -0.0440
22023W        W41557   5.289  17.639  11.873  0.1736  0.3718 -0.1305
22024W        W41558   2.640   5.494   1.843 -0.1059  0.0217 -0.1307
22025W        W41559   3.418   6.521  10.999 -0.0765  0.1341 -0.3112
22026W        W41560  18.774   5.362  14.238  0.0629  0.2139 -0.0590
22027W        W41561  15.360  13.308   3.470 -0.3182 -0.0943 -0.0369
22028W        W41562  10.893  15.016  14.248 -0.0588  0.2372  0.1886
22029W        W41563  14.292  11.746   2.927  0.3147  0.1680 -0.0065
22030W        W41564   8.448  10.900   2.845  0.0728 -0.1916 -0.0623
22031W        W41565  13.729   8.690  14.108 -0.1016  0.0493 -0.0446
22032W        W41566   7.101  17.949   0.985 -0.1339  0.0099 -0.1898
22033W        W41567  19.112   4.513   0.635 -0.1459  0.3696  0.1466
22034W        W41568   6.551  14.239   0.050 -0.0272 -0.0593  0.0344
22035W        W41569  10.848  14.433   3.670  0.0462  0.0154  0.2095
22036W        W41570  16.302  11.092   3.812  0.3657  0.0346 -0.1393
22037W        W41571  10.090   0.717   0.063 -0.0202 -0.1439  0.0606
22038W        W41572  12.878   6.708   2.993 -0.0847  0.3273 -0.2940
22039W        W41573   3.339  12.407   1.007  0.2788 -0.1970  0.2085
22040W        W41574  18.347   6.597  14.286 -0.0428  0.0723  0.1537
22041W        W41575  15.249   3.940  11.400 -0.0365  0.0175 -0.0099
22042W        W41576  18.909   0.606  12.482 -0.0243  0.0709  0.3740
22043W        W41577  18.894   7.494  12.714  0.1321  0.3105 -0.2352
22044W        W41578   2.337   5.625   2.174  0.1558 -0.0234  0.1760
22045W        W41579   0.862  18.477   2.452  0.0132 -0.0120  0.6218
22046W        W41580   0.980   4.666  11.016 -0.1681  0.0684  0.1600
22047W        W41581   7.767   2.547  10.839  0.0227 -0.1009  0.0516
22048W        W41582   9.536  12.760   2.045 -0.0248  0.0313  0.2955
22049W        W41583  12.449   5.023   3.888 -0.1661  0.2749 -0.0538
22050W        W41584  19.076   1.859  10.173  0.0770 -0.0069 -0.2001
22051W        W41585   5.092   4.215  13.533 -0.0073  0.1480 -0.0944
22052W        W41586  11.808   8.892  11.850  0.0751  0.2077  0.0618
22053W        W41587  14.715  17.584  14.471  0.3933  0.2178 -0.0783
22054W        W41588   2.489  16.484   2.649  0.1188  0.0912  0.3045
22055W        W41589  15.950   1.402  11.540  0.0363  0.2452  0.3565
22056W        W41590  16.444   4.453   0.746 -0.1853 -0.1172  0.0525
22057W        W41591   9.702   9.641   2.525  0.2687  0.1286 -0.1520
22058W        W41592   4.453  18.987  13.651  0.1620 -0.2810 -0.2969
22059W        W41593  17.102  15.895   2.058  0.3844  0.2636  0.0125
22060W        W41594  14.818   6.636   4.393  0.0799 -0.2717 -0.1263
22061W        W41595   1.262  15.458  12.716 -0.2126 -0.0835  0.1680
22062W        W41596   1.130  18.744  12.823 -0.1984 -0.2013  0.2147
22063W        W41597   1.935   6.577  12.068 -0.0623  0.1113 -0.0812
22064W        W41598   6.405  13.348  12.021 -0.0782 -0.2778 -0.0249
22065W        W41599  11.897  16.592   0.016 -0.0569 -0.0738  0.1869
22066W        W41600   4.876   3.401  12.958  0.2067 -0.1346 -0.1827
22067W        W41601  11.247  18.665   1.011  0.0581  0.0647 -0.1366
22068W        W41602  14.957   8.457  10.009 -0.3326 -0.4920 -0.2731
22069W        W41603   9.479  18.069   2.983  0.0913  0.3977 -0.1349
22070W        W41604  14.860   8.480   0.778  0.0685  0.0981  0.2762
22071W        W41605   2.340  12.209  13.096 -0.2614 -0.1663  0.0268
22072W        W41606  13.893  18.919   2.539 -0.0169 -0.1135  0.0693
22073W        W41607  14.985   1.963   3.781  0.1164 -0.2395 -0.3014
22074W        W41608  10.710   6.933   2.298 -0.2137  0.2219  0.0018
22075W        W41609  14.857  14.440   1.045  0.2101  0.1507  0.1356
22076W        W41610  11.382   8.750   0.197  0.0925 -0.1349 -0.1290
22077W        W41611   8.054  14.231  11.742  0.1453  0.1430 -0.1406
22078W        W41612  15.895   6.090  14.244  0.0349  0.2010 -0.1584
22079W        W41613  18.542   6.378   1.516  0.0018  0.0696 -0.2588
22080W        W41614   9.735   5.328   0.732  0.4018 -0.0527  0.1942
22081W        W41615   9.356  18.083  14.642 -0.1601 -0.0864  0.0129
22082W        W41616   6.740   0.861   0.347  0.2888 -0.0521  0.0957
22083W        W41617   1.283  14.492   0.131 -0.3341  0.0318  0.1988
22084W        W41618  16.992  15.788  14.038  0.1034  0.1122 -0.0649
22085W        W41619   8.190   9.656  12.398  0.0848  0.1593  0.2228
22086W        W41620   5.538  12.272   0.730 -0.0696 -0.2559  0.3555
22087W        W41621  14.816  12.099  12.509  0.2198  0.0236 -0.2223
22088W        W41622  15.551  16.002   4.122  0.2022  0.2393 -0.0011
22089W        W41623  18.574  16.864   1.653  0.0996  0.4801 -0.1376
22090W        W41624  16.151  14.182  14.455 -0.1895  0.3206 -0.1803
22091W        W41625   1.075   5.303   1.067 -0.4359  0.1628  0.0116
22092W        W41626  10.152  14.228  14.410  0.2672  0.0321  0.1321
22093W        W41627   4.980   1.780   1.896 -0.0444 -0.1442 -0.0114
22094W        W41628  15.378  11.300  10.780  0.0094  0.0894 -0.0419
22095W        W41629   5.606  11.463  11.130  0.0617  0.1981 -0.0874
22096W        W41630  11.868  14.563   3.715  0.2343 -0.0202  0.0029
22097W        W41631  10.238  17.599   4.523  0.1928  0.3702  0.0970
22098W        W41632  17.260  11.631   1.213  0.3528 -0.1373  0.2860
22099W        W41633   1.624  13.431   0.447  0.1240  0.2589  0.2543
22100W        W41634   8.545  14.682   4.156 -0.2466 -0.0405 -0.1635
22101W        W41635  17.866   2.292   0.480 -0.3376 -0.0566  0.1451
22102W        W41636   5.983   3.106   1.820 -0.2006  0.1242  0.2388
22103W        W41637  18.257   4.973  12.402 -0.2912 -0.0364 -0.1963
22104W        W41638   8.936   4.623  13.535  0.0200  0.0957  0.4713
22105W        W41639  10.181  16.696   2.777 -0.2169 -0.3538  0.2215
22106W        W41640  16.407  18.371   9.729 -0.2974  0.1330  0.0351
22107W        W41641  13.791  14.195  10.718  0.2675  0.0838  0.2488
22108W        W41642  10.471   8.559   2.732  0.0340  0.0975  0.0231
22109W        W41643   0.399  14.702  11.711  0.2215  0.1427  0.0610
22110W        W41644   3.751   4.276  10.882 -0.1734  0.0531  0.0455
22111W        W41645  11.462   0.173  11.709  0.0486  0.0179 -0.2570
22112W        W41646   1.158  10.979   5.485 -0.1454 -0.2943 -0.0701
22113W        W41647  17.189   0.325   3.990 -0.2482 -0.0618  0.1078
22114W        W41648  15.631   1.505   4.381  0.3746 -0.2409  0.0981
22115W        W41649   2.418  17.717  12.491 -0.1459 -0.4107  0.2021
22116W        W41650  14.460   0.811  14.824 -0.1002 -0.0672 -0.0854
22117W        W41651  12.588   7.046  12.926 -0.1969 -0.2310 -0.2602
22118W        W41652   4.527   7.670  12.608 -0.0970 -0.2325  0.1554
22119W        W41653   8.516   3.453   1.792 -0.1612  0.1606 -0.2667
22120W        W41654   3.374  14.605   0.138 -0.0280 -0.1009 -0.1374
22121W        W41655  13.968  16.260   1.677  0.2276  0.0404  0.0530
22122W        W41656   7.653  15.983   3.031 -0.1026 -0.0002 -0.0910
22123W        W41657  13.554   4.114   0.972  0.1333  0.2194  0.0866
22124W        W41658  15.034  18.613   1.665  0.0954  0.0206  0.0014
22125W        W41659  10.719   5.813   0.668  0.1600 -0.0097  0.2096
22126W        W41660   5.062  17.868  14.251  0.3333 -0.1890  0.2264
22127W        W41661  14.105   3.130  12.552  0.0999 -0.0366  0.1334
22128W        W41662   1.945  15.645  13.153  0.1988 -0.2839  0.0278
22129W        W41663   0.713  14.835  11.235  0.0063 -0.0083  0.1157
22130W        W41664   5.484   3.243  12.548  0.0551  0.1023  0.0676
22131W        W41665  15.097   1.645  11.732  0.1094 -0.0564 -0.0230
22132W        W41666  14.537   4.522  11.563 -0.0910 -0.1745  0.1468
22133W        W41667  13.351   5.247   2.552 -0.0110 -0.4205 -0.0148
22134W        W41668   9.756   4.320  13.620 -0.0791 -0.0646 -0.3623
22135W        W41669  12.049  12.108   1.803  0.2164  0.3075 -0.4307
22136W        W41670   4.906   8.644   2.169  0.4701  0.2702  0.1114
22137W        W41671   1.130   3.857   0.168 -0.0345 -0.1793 -0.0256
22138W        W41672   6.948  10.485   3.422 -0.2667  0.3100  0.4712
22139W        W41673   4.253   7.873   0.668 -0.0095  0.0656 -0.1777
22140W        W41674   4.317   1.604  12.013 -0.0793  0.0133 -0.0127
22141W        W41675  12.939   3.224  12.651  0.0166  0.0686  0.1111
22142W        W41676   7.085   8.987  14.808  0.2353  0.0335 -0.1439
22143W        W41677  12.454  15.086   4.176 -0.0701  0.2046  0.0188
22144W        W41678   4.400   9.517  14.506  0.0688 -0.0263 -0.0363
22145W        W41679  15.499   4.871  11.097 -0.0454 -0.0565 -0.2937
22146W        W41680  18.637   0.961  11.389  0.3331  0.0892  0.0195
22147W        W41681   4.337  14.642   2.616 -0.2033  0.3368 -0.1675
22148W        W41682  16.967  17.836   2.690  0.0686  0.0712 -0.0993
22149W        W41683  13.333   9.288   0.413  0.1215 -0.3448  0.2179
22150W        W41684   5.673   5.509  13.476  0.0537  0.0815  0.0086
22151W        W41685   1.582   7.250  11.952 -0.2894  0.1181  0.0689
22152W        W41686  12.349   4.588  14.162 -0.1938  0.2594  0.0019
22153W        W41687  11.947  11.564   1.784  0.2853  0.0953  0.0837
22154W        W41688  18.573   9.829  13.109 -0.0708 -0.0910 -0.1782
22155W        W41689  17.993   0.322   3.653  0.1055 -0.1880  0.0762
22156W        W41690   6.124   0.752  12.120  0.1580 -0.2621  0.1267
22157W        W41691  14.344   0.451  11.607 -0.2225 -0.0856 -0.1016
22158W        W41692   5.831   3.928  13.667 -0.0678 -0.3502 -0.0716
22159W        W41693  10.081   4.933   3.115  0.1762  0.1480 -0.1245
22160W        W41694   6.299  17.665   1.918 -0.1239 -0.1941 -0.0549
22161W        W41695   9.183  17.632  11.315  0.2027 -0.1614  0.2154
22162W        W41696   2.201   4.624   9.956  0.0025  0.0707 -0.1228
22163W        W41697  14.288   2.234   4.102  0.2147  0.0201 -0.0301
22164W        W41698   6.903   1.527   3.227 -0.1947  0.0170 -0.2950
22165W        W41699   5.246   2.244  13.579  0.2865 -0.0325 -0.0324
22166W        W41700   8.816  11.335   2.116  0.0076 -0.0763 -0.2682
22167W        W41701   4.281  16.772   3.178  0.1575  0.1397 -0.2123
22168W        W41702  13.410   0.557   2.937  0.2439 -0.3823 -0.2506
22169W        W41703  17.197   3.528   2.549 -0.1353  0.1064  0.0353
22170W        W41704   8.809   9.526   3.601 -0.1843  0.1117 -0.0092
22171W        W41705  17.165  17.238  14.255 -0.0844 -0.3779  0.0101
22172W        W41706  17.656   7.282  11.205 -0.1995  0.0588 -0.1890
22173W        W41707  11.873   1.953   3.979 -0.0132 -0.1321 -0.2685
22174W        W41708  10.454  18.338   1.956  0.1504  0.4525  0.2634
22175W        W41709   6.654   2.162  12.329  0.1299  0.0615  0.0001
22176W        W41710   4.432  10.943  13.717  0.0222  0.1886 -0.0644
22177W        W41711  16.402  15.497   0.722  0.2084  0.0680  0.0217
22178W        W41712  12.118  12.576  13.349 -0.1456 -0.0939  0.0650
22179W        W41713   3.343  18.939   3.658 -0.1838  0.2336 -0.0806
22180W        W41714   6.781   0.310   9.868 -0.0155 -0.4857 -0.0518
22181W        W41715   6.795   3.412  12.032  0.2720 -0.1433  0.2513
22182W        W41716   1.490  18.063  12.348  0.2752 -0.1677  0.1031
22183W        W41717   4.113  13.059  13.325  0.0137 -0.1549  0.3116
22184W        W41718   6.190  13.368   1.033  0.2022 -0.1744  0.0209
22185W        W41719  11.407   6.977  11.507  0.0780 -0.0981  0.0506
22186W        W41720  15.155  11.672  11.306 -0.0244  0.0785  0.2402
22187W        W41721   9.432   3.428   3.296 -0.4990 -0.0524 -0.0557
22188W        W41722   2.020   6.234   1.116 -0.1420 -0.4004  0.4540
22189W        W41723  16.121  13.493   9.443  0.2018  0.2662 -0.3269
22190W        W41724   5.511   5.858   1.240 -0.1584 -0.0070 -0.2754
22191W        W41725  17.826  10.039   1.612  0.0444  0.3288  0.1537
22192W        W41726   3.129   8.282  13.898 -0.0677  0.1790  0.3328
22193W        W41727   1.823  13.458  10.963  0.1451 -0.1137 -0.0285
22194W        W41728  16.697   6.855  12.121 -0.2649  0.2287 -0.4653
22195W        W41729   5.137  15.614  11.402  0.0831 -0.4710  0.0492
22196W        W41730  10.911   4.990   0.442 -0.1288  0.3044  0.2140
22197W        W41731   1.493  15.543   4.322 -0.2239 -0.2059 -0.2617
22198W        W41732  13.900  16.827  11.542  0.0748 -0.0815  0.2103
22199W        W41733   3.994   5.954  12.310  0.3354 -0.3137  0.1346
22200W        W41734   0.989  17.912  13.181  0.0104 -0.1602 -0.1823
22201W        W41735   1.014   2.959   2.480 -0.1714 -0.0888 -0.0866
22202W        W41736  14.873   2.860   3.850  0.1310 -0.1355  0.0369
22203W        W41737   2.633  10.572   0.552  0.5116 -0.0492  0.1686
22204W        W41738  15.610   8.002  10.427  0.0830 -0.0350 -0.2634
22205W        W41739  14.296   1.724   0.993 -0.3234  0.3462 -0.0449
22206W        W41740   3.192   2.372   3.736  0.0380  0.1561  0.0770
22207W        W41741   7.705   5.862  10.739  0.2864 -0.2278 -0.1598
22208W        W41742  16.702   5.452  13.684 -0.0630 -0.1183 -0.0409
22209W        W41743   8.346  15.557  13.566 -0.2701 -0.2313  0.3123
22210W        W41744   5.398  12.895   4.387  0.1140 -0.3197 -0.0700
22211W        W41745   4.740  11.086   0.644 -0.0922 -0.1126  0.1452
22212W        W41746  10.207   7.777   3.884 -0.2246 -0.1953 -0.0119
22213W        W41747   9.811  11.665  11.279  0.0698  0.0200  0.0410
22214W        W41748  16.181  10.985   2.962  0.0131  0.2365  0.0157
22215W        W41749  10.826  13.942  12.172  0.3643  0.0754 -0.0908
22216W        W41750   6.123   6.865   3.439  0.0024  0.2380  0.4265
22217W        W41751  16.033   2.243  12.743  0.1199  0.1466  0.1512
22218W        W41752   0.033   9.121   0.095 -0.1796  0.0472 -0.3122
22219W        W41753  10.364  13.414   3.092 -0.3471  0.0845 -0.3189
22220W        W41754   1.249  12.761  12.014  0.0908  0.3058  0.3518
22221W        W41755  13.616  11.797   1.887  0.0106 -0.0361 -0.1966
22222W        W41756   7.071   7.343  10.886  0.1852 -0.1174  0.2245
22223W        W41757  12.132   7.643   0.114 -0.0471  0.0468  0.3232
22224W        W41758   7.458  14.352  11.006  0.0021  0.0563 -0.1978
22225W        W41759  13.381  12.152  14.430  0.0440  0.1084 -0.0136
22226W        W41760   2.911  11.167  13.518  0.2774  0.0408 -0.1192
22227W        W41761   6.403  18.686   1.083  0.1223 -0.0624  0.3574
22228W        W41762   4.697   3.473   0.805  0.0550 -0.0128  0.0598
22229W        W41763   5.705  12.780   3.017 -0.0048  0.0690  0.1041
22230W        W41764   2.626  11.122  12.337  0.0176 -0.0484 -0.3626
22231W        W41765   9.381   9.366  14.303  0.1957 -0.3397 -0.0288
22232W        W41766  18.942   3.648  14.265  0.0885 -0.0360 -0.2578
22233W        W41767   3.289  11.845   0.908 -0.1694  0.3632 -0.1512
22234W        W41768   3.696  11.072   3.909 -0.0063  0.6235 -0.1363
22235W        W41769  10.326   0.317   0.186  0.1043  0.1933  0.1696
22236W        W41770  16.535  11.287   1.583 -0.0865  0.2644 -0.1019
22237W        W41771  12.649   4.502   1.604  0.0443  0.0544 -0.4700
22238W        W41772   4.901  16.578  14.061 -0.2888 -0.1231 -0.1265
22239W        W41773   1.724  15.429   1.481  0.2686  0.0078 -0.0913
22240W        W41774   1.843   0.221  14.654 -0.0106  0.1292  0.3559
22241W        W41775   0.076   5.780   0.160  0.0871 -0.0570 -0.0826
22242W        W41776   8.544  17.659  11.901 -0.1389 -0.2631 -0.2177
22243W        W41777  15.683   5.326  11.215 -0.2521  0.1846 -0.2220
22244W        W41778   2.421   0.571  12.177 -0.0801 -0.2408 -0.0944
22245W        W41779  19.033  12.719   0.276  0.0670 -0.1298 -0.0993
22246W        W41780  13.387  15.474   0.224  0.1771 -0.2304 -0.4599
22247W        W41781   5.494  15.284  14.168 -0.0952 -0.0888  0.0930
22248W        W41782  16.128  18.883   1.701 -0.0699 -0.0715 -0.3209
22249W        W41783   4.513   4.753   2.208  0.1409 -0.2691  0.1527
22250W        W41784  15.589  12.774  13.258 -0.0009 -0.1336 -0.4035
22251W        W41785   1.108   2.821   9.420 -0.1867 -0.2335  0.0004
22252W        W41786   9.862   9.365   4.321  0.0135 -0.0300 -0.0027
22253W        W41787   8.543   9.253  12.031 -0.2386 -0.4335  0.1116
22254W        W41788  13.962   9.216   1.117 -0.1597 -0.3175  0.0578
22255W        W41789   3.790  12.070  13.158  0.2733 -0.3261 -0.0904
22256W        W41790  18.223  17.624  12.689 -0.1646 -0.1702  0.2786
22257W        W41791   3.217   1.229   4.025  0.1187 -0.1444 -0.2975
22258W        W41792  11.368   2.986  10.631  0.0072  0.0680 -0.0075
22259W        W41793   7.307  12.505   2.508  0.2558  0.1404 -0.2214
22260W        W41794  15.808  17.460  10.722  0.1932 -0.1139 -0.0759
22261W        W41795  16.901  16.245   0.667 -0.1662  0.2144  0.1138
22262W        W41796  13.521  15.497  10.888  0.0179  0.3954  0.0666
22263W        W41797  16.577   5.805   0.940  0.0109 -0.1329  0.0862
22264W        W41798  12.073   8.450  12.739 -0.0941 -0.4508 -0.3034
22265W        W41799   5.324  18.207   3.353  0.3021  0.0263  0.0631
22266W        W41800   3.515  16.212   4.253 -0.0583 -0.0060  0.1112
22267W        W41801  11.208   1.921  11.538 -0.2992  0.0652  0.2351
22268W        W41802  15.104  17.862  14.542  0.0236  0.0728  0.1914
22269W        W41803  12.993  17.741  13.705 -0.1756  0.1744  0.2720
22270W        W41804   5.291   8.359  13.351 -0.2488 -0.0420 -0.1724
22271W        W41805   8.890   2.402  12.647  0.0028  0.1578 -0.3192
22272W        W41806  14.271  17.272  11.548 -0.0282  0.0001  0.0229
22273W        W41807   5.329  18.959   4.372  0.0855  0.0231 -0.0495
22274W        W41808  17.577   2.145   1.998  0.2815 -0.2008  0.0503
22275W        W41809  15.808  12.521   2.540 -0.2319  0.0057  0.2444
22276W        W41810   0.398   4.037   2.032  0.3184 -0.0373 -0.0561
22277W        W41811  15.245   0.021  13.880  0.0539 -0.0417 -0.2195
22278W        W41812  15.235   3.721  13.062 -0.2960 -0.2093  0.2621
22279W        W41813  15.563  15.737  11.421  0.0859 -0.1235 -0.1330
22280W        W41814   4.166   8.123  12.771 -0.1668  0.2877 -0.1036
22281W        W41815  18.005  15.094   2.214  0.2029 -0.3474 -0.1598
22282W        W41816   2.480  10.106   0.830  0.1210 -0.1439  0.2296
22283W        W41817   9.973   7.370  11.089 -0.2188  0.4418  0.1037
22284W        W41818   8.061  14.811   1.752 -0.0732 -0.0904 -0.0478
22285W        W41819   9.400  12.584   0.438 -0.2096  0.1332  0.0272
22286W        W41820   6.985  12.131  14.079 -0.1240 -0.1905  0.0381
22287W        W41821   0.879   4.710   4.744  0.0824  0.4537  0.0618
22288W        W41822   2.214   9.856  13.137  0.0213 -0.3187  0.3661
22289W        W41823  15.333   0.178   3.188 -0.0077 -0.4001 -0.0169
22290W        W41824  16.926  19.068   1.323 -0.1816 -0.3012 -0.0661
22291W        W41825  13.100  12.577   9.881 -0.1750  0.2981 -0.0723
22292W        W41826  18.514   8.232  11.946 -0.2815  0.0076  0.0817
22293W        W41827   5.331   1.089  14.310 -0.1649 -0.0491 -0.0036
22294W        W41828   9.599   6.619  12.234 -0.1825  0.0154 -0.0737
22295W        W41829   0.875   9.996   2.524  0.2846 -0.2909  0.2853
22296W        W41830  14.769  13.481   3.870 -0.0097  0.0745 -0.0612
22297W        W41831   8.480   7.801   2.210 -0.1320 -0.0777  0.0822
22298W        W41832   2.269   0.850   0.816 -0.0779 -0.3055 -0.1613
22299W        W41833  17.857   7.566   1.549  0.2335  0.0098 -0.2646
22300W        W41834   9.054   2.728   2.643  0.2225 -0.0037  0.1890
22301W        W41835   4.187  13.139   2.604 -0.1957  0.0459 -0.0000
22302W        W41836   7.241   6.197   3.528 -0.1196 -0.2627 -0.2491
22303W        W41837  13.900   8.209   0.372  0.1720  0.0803 -0.0642
22304W        W41838  18.853   9.130  13.280 -0.2189 -0.0373 -0.1034
22305W        W41839   4.784  11.009  14.037  0.3382  0.0647  0.0948
22306W        W41840  11.911   9.683   2.846 -0.4032  0.0668  0.0188
22307W        W41841  14.485   7.038  10.850 -0.4227 -0.1799 -0.1870
22308W        W41842  16.520  11.043  14.313 -0.1077  0.1261  0.0177
22309W        W41843  10.427  12.957  12.398  0.0761  0.1046  0.0226
22310W        W41844   5.436   2.201  11.737 -0.1760  0.3229  0.0722
22311W        W41845   7.114   5.770   4.240 -0.3011 -0.1824 -0.0092
22312W        W41846   9.686   4.150  10.540  0.0485  0.0434  0.0043
22313W        W41847  10.136  11.775   1.062 -0.0195 -0.0160  0.1756
22314W        W41848   3.932   9.546   5.127 -0.0587 -0.0981 -0.1471
22315W        W41849  12.985  15.610   2.507  0.3178 -0.0471  0.0361
22316W        W41850   7.260   1.445  14.703 -0.1862  0.2432  0.0352
22317W        W41851   1.336   6.333   0.953  0.3947 -0.3498 -0.2525
22318W        W41852  17.361   7.210   2.730 -0.0353  0.1752 -0.1412
22319W        W41853  10.485   5.468  14.234 -0.3963 -0.2371 -0.0277
22320W        W41854  15.822   7.519   0.349  0.1070 -0.2999  0.2029
22321W        W41855   2.236   3.196   0.200  0.1037  0.0137  0.1951
22322W        W41856   1.281  12.803  13.334 -0.1746 -0.1230  0.0074
22323W        W41857  17.718  15.743  13.511  0.0280  0.0457 -0.3449
22324W        W41858   9.923  10.492  11.267  0.2423  0.1869 -0.3783
22325W        W41859   4.411   9.449   4.117  0.2270  0.3187  0.0807
22326W        W41860   6.155   5.628  13.495 -0.5348 -0.1256 -0.1227
22327W        W41861   1.762  11.280   1.271 -0.0673  0.3508 -0.2393
22328W        W41862  17.757   3.334   2.545  0.1366 -0.1354 -0.0535
22329W        W41863   1.679  10.769   4.376 -0.1447 -0.1258  0.0119
22330W        W41864  18.762  17.682  10.660 -0.1525  0.3921  0.1813
22331W        W41865  13.923  15.896  11.958 -0.0991 -0.3089 -0.3534
22332W        W41866  12.034   5.183   4.127  0.0863  0.0301 -0.0224
22333W        W41867   9.415  12.856   2.862  0.0730 -0.1814 -0.1041
22334W        W41868  10.049  13.940   0.780 -0.0390  0.0491  0.0593
22335W        W41869   8.420  18.707  10.244  0.1024  0.2299  0.0033
22336W        W41870  16.608  10.656  12.413  0.2438 -0.1461  0.0728
22337W        W41871  16.580   4.584   4.302 -0.2618  0.0276 -0.3507
22338W        W41872  15.962  12.906  12.174 -0.4890 -0.0833  0.0061
22339W        W41873   7.693   1.727  14.776  0.1342 -0.3771  0.1070
22340W        W41874  15.712  18.756   3.634 -0.0557  0.1679 -0.2101
22341W        W41875  11.836  14.933   3.350  0.0997  0.2831 -0.0588
22342W        W41876  10.611   6.873   2.829  0.3582  0.0673 -0.1361
22343W        W41877  16.803   5.562   9.398 -0.0810 -0.0503 -0.2302
22344W        W41878  14.709  17.262   2.076  0.0048  0.2263  0.2310
22345W        W41879  13.108   6.642  13.196 -0.1334 -0.0991 -0.2139
22346W        W41880  17.518  12.096   0.979  0.1008 -0.1179  0.0121
22347W        W41881   7.637  10.924  14.583  0.1560 -0.2416 -0.0183
22348W        W41882   9.479  11.475  12.679 -0.2652 -0.0978 -0.3269
22349W        W41883  17.473   6.758   0.445  0.2325 -0.4795 -0.0377
22350W        W41884  16.744  10.337  14.119 -0.1384 -0.0672  0.2028
22351W        W41885  12.305   9.884   0.817 -0.2541 -0.4389 -0.0894
22352W        W41886   7.833   2.287  11.671  0.0393 -0.2320  0.1721
22353W        W41887   0.865   0.953   0.507 -0.0991 -0.1529  0.0285
22354W        W41888  14.325  17.518  12.882  0.4530 -0.0877 -0.1973
22355W        W41889   4.580   1.538  13.745 -0.0788  0.2747  0.1021
22356W        W41890  12.227   1.688   3.207 -0.0128  0.1423 -0.3338
22357W        W41891  18.872   3.554  12.596 -0.0570  0.2670 -0.0033
22358W        W41892  10.096   6.193   4.394  0.0216 -0.0551 -0.0306
22359W        W41893  13.001   7.196   0.503  0.0989  0.0077  0.0985
22360W        W41894  16.197   9.026   0.369 -0.0155  0.0624  0.1557
22361W        W41895   7.152  14.883  14.555 -0.2965  0.0680  0.0413
22362W        W41896   0.690  18.885  14.443  0.2081  0.2359 -0.2108
22363W        W41897   2.968  18.505   2.343 -0.2529  0.1256 -0.2800
22364W        W41898   7.493  12.593   1.917  0.1323 -0.2636 -0.2355
22365W        W41899   1.651   7.968   3.469 -0.2333 -0.1344 -0.0838
22366W        W41900  11.067   2.125  12.015  0.1998 -0.1443  0.0029
22367W        W41901  15.713  17.979  12.980 -0.1889 -0.0272  0.0345
22368W        W41902  12.612  15.822  10.515  0.1113 -0.1607  0.3827
22369W        W41903   0.270  16.251   5.215  0.2561  0.2509  0.0990
22370W        W41904  13.134  16.765   0.235  0.1367  0.0896 -0.3301
22371W        W41905   3.337  12.159   1.894 -0.0934  0.0824 -0.1942
22372W        W41906   4.145  18.128   3.835  0.1872  0.0812  0.0253
22373W        W41907   3.896  16.705   1.797  0.3168 -0.1316  0.0297
22374W        W41908  13.248  10.916   2.546 -0.2377  0.2170 -0.0130
22375W        W41909   2.191   1.567  12.862  0.1815 -0.1085 -0.0294
22376W        W41910   5.507  14.693   0.990 -0.3006 -0.1420  0.1261
22377W        W41911   5.971  13.228   3.434  0.1669 -0.1334  0.2514
22378W        W41912  14.781   1.343   3.562  0.0578  0.0836 -0.0235
22379W        W41913  12.871   5.143  13.779 -0.0559 -0.0689 -0.1833
22380W        W41914  14.137  18.770  13.174 -0.1607  0.1206 -0.0872
22381W        W41915   9.180   2.661   1.020 -0.0074 -0.2414  0.1511
22382W        W41916  17.662  13.712  10.900  0.0518  0.3269  0.2493
22383W        W41917  15.915   1.441  10.679  0.1643 -0.0903 -0.1674
22384W        W41918  14.643   8.233   1.134  0.1906  0.1426 -0.0036
22385W        W41919  10.424   8.540  11.058  0.0773 -0.2367 -0.0066
22386W        W41920  14.861  17.732   1.433  0.1925 -0.0494 -0.2589
22387W        W41921  12.112   0.681  11.859  0.0217 -0.2629  0.0196
22388W        W41922  16.906   6.724  14.711  0.2102 -0.2804  0.2041
22389W        W41923   3.273  17.205   2.681  0.1759  0.0928  0.1346
22390W        W41924   5.069   7.207   1.590  0.2658  0.3560 -0.0984
22391W        W41925   3.898  15.774  14.211  0.0251  0.0058 -0.1778
22392W        W41926  18.847   2.898   2.108 -0.0793  0.1224 -0.0446
22393W        W41927  16.251   0.987   2.044 -0.1551  0.2207 -0.0166
22394W        W41928   0.222  10.621   0.371  0.2509 -0.0140 -0.0315
22395W        W41929   0.857   8.284  11.441  0.3840  0.1034 -0.2113
22396W        W41930   6.197  13.827   1.838 -0.0996  0.1694  0.1226
22397W        W41931  13.230   2.473  12.414  0.0253 -0.0207  0.0010
22398W        W41932  10.445   5.691   3.031  0.1074 -0.1622 -0.0831
22399W        W41933   2.811   7.956   4.196 -0.1354  0.0592  0.0367
22400W        W41934  18.673  11.917   0.315  0.0939  0.2804  0.1482
22401W        W41935   5.203   9.951  13.073 -0.0331  0.0249  0.0753
22402W        W41936   3.341   1.919  13.544 -0.2688 -0.1745  0.2995
22403W        W41937  10.807  14.820   3.220 -0.4889  0.0412 -0.0162
22404W        W41938  17.500   5.850  12.627 -0.1268 -0.1630  0.1434
22405W        W41939   1.491  11.438  11.730 -0.1103 -0.0549 -0.1640
22406W        W41940   1.764   6.512  11.554 -0.2444  0.1897 -0.3522
22407W        W41941  14.027   5.385   1.147 -0.1234  0.0482  0.1290
22408W        W41942  13.453  10.741  10.512  0.0859  0.1819 -0.1353
22409W        W41943   6.934  14.733   1.997  0.2799  0.0951  0.3541
22410W        W41944   4.115   8.607   1.081 -0.0555 -0.4260  0.0997
22411W        W41945   8.335  17.005  14.739 -0.0536  0.0416 -0.1648
22412W        W41946  15.857  14.947   5.278 -0.0879 -0.1185  0.0567
22413W        W41947  14.928  15.072   3.658 -0.1306 -0.0924  0.3023
22414W        W41948  14.264  13.320  12.304  0.2029 -0.3556 -0.0086
22415W        W41949  14.153  11.089   0.189 -0.2246 -0.0379 -0.0625
22416W        W41950   0.802  17.731  13.877 -0.0086  0.3505  0.1326
22417W        W41951  14.697   3.571  13.208 -0.0778 -0.0719  0.1582
22418W        W41952   8.760  13.573   0.880  0.0784  0.0797  0.3527
22419W        W41953   0.409   3.837   0.140 -0.0260 -0.2699  0.2693
22420W        W41954   1.479  13.326   2.399 -0.0443 -0.0975 -0.0178
22421W        W41955   0.379   8.625   0.461  0.2131  0.0459 -0.1496
22422W        W41956   7.339  15.299  14.757  0.1018 -0.1835  0.4148
22423W        W41957  10.983   2.062   2.127  0.1348  0.1934  0.1607
22424W        W41958   8.680  11.953   0.731 -0.1678  0.1364  0.2087
22425W        W41959   9.610   3.284  14.097  0.2159 -0.0506  0.2010
22426W        W41960   6.116   4.730   3.013 -0.1222 -0.1871 -0.5826
22427W        W41961   1.566   9.512   0.021 -0.1004 -0.4667  0.0178
22428W        W41962   4.312   0.090   3.895  0.1751 -0.0597 -0.0077
22429W        W41963   3.506  16.438  13.753 -0.0999 -0.2598  0.0529
22430W        W41964   0.079   5.720  14.084 -0.0955 -0.0758  0.2752
22431W        W41965  12.657   0.979   0.087 -0.2115 -0.1807 -0.0521
22432W        W41966   4.829   2.643  12.133  0.2612  0.2202  0.3719
22433W        W41967  14.251  12.892  11.924 -0.3121 -0.1740  0.2064
22434W        W41968   8.143   3.322   2.739  0.0151  0.1059 -0.0340
22435W        W41969   7.700  16.687  11.350 -0.0200 -0.0132 -0.2264
22436W        W41970  11.461   1.716   2.539 -0.4878 -0.1430 -0.1931
22437W        W41971   6.564  13.830  11.018 -0.3619  0.0314  0.0909
22438W        W41972   5.793  18.266   2.166  0.2233 -0.1658  0.0950
22439W        W41973   0.062  11.970   1.921 -0.1238 -0.0776 -0.1077
22440W        W41974   2.603   5.983  13.066  0.3491 -0.2283 -0.0189
22441W        W41975  17.702   9.906  13.381 -0.0635  0.3984 -0.0003
22442W        W41976  14.784  10.027   3.248 -0.2217 -0.0451 -0.1057
22443W        W41977   1.125   9.997   1.628 -0.1720  0.0617 -0.3140
22444W        W41978  12.473   7.010   2.000  0.1760 -0.0982  0.1577
22445W        W41979   7.952  10.284   3.542 -0.1737 -0.2825 -0.2268
22446W        W41980   4.779   6.967  12.023 -0.0135 -0.0996 -0.1870
22447W        W41981  17.178   1.978   1.720 -0.0567 -0.3242  0.2706
22448W        W41982  15.695   4.600  14.183 -0.1999 -0.1435 -0.2208
22449W        W41983  11.329  13.629  14.146  0.1640 -0.0444  0.0563
22450W        W41984  16.901   0.909   3.437 -0.0467 -0.1300 -0.0879
22451W        W41985   6.008  15.848   0.669  0.4209 -0.2816  0.0311
22452W        W41986   4.649   4.567   3.071  0.0916  0.1830 -0.0362
22453W        W41987  14.354  11.752  14.605 -0.0969 -0.1963  0.0860
22454W        W41988  17.979   6.577  11.774  0.2220 -0.2330  0.0649
22455W        W41989  12.640   1.495  11.200 -0.0599  0.0216  0.2597
22456W        W41990   5.654  18.736   1.911 -0.1195  0.0839  0.0681
22457W        W41991  13.020   1.934   3.145 -0.1384  0.1214 -0.1613
22458W        W41992   8.062  10.601  10.898 -0.1208 -0.3965  0.1239
22459W        W41993   3.422  17.853   0.045 -0.0239 -0.0038 -0.1206
22460W        W41994  18.969   2.102  13.011  0.1322 -0.1096 -0.0452
22461W        W41995  10.274  12.097   0.099  0.2262 -0.0800  0.1964
22462W        W41996   0.807   3.744   2.021  0.0651  0.0219 -0.1254
22463W        W41997  14.393   5.113  14.000  0.2824 -0.0901  0.2179
22464W        W41998  13.406   2.345  11.946 -0.1537  0.0011 -0.2545
22465W        W41999  10.132  18.017  12.524  0.2009 -0.0365 -0.2655
22466W        W42000  17.505  16.703   0.194 -0.0173 -0.0785  0.3167
22467W        W42001  16.634  11.105   2.780  0.2282 -0.0071 -0.3658
22468W        W42002   0.757  15.553   4.555  0.0256 -0.1231  0.0656
22469W        W42003  13.219  14.185  10.972  0.1341  0.3238 -0.2307
22470W        W42004   2.951  18.796   2.755 -0.1104  0.0655 -0.2125
22471W        W42005  18.781  14.976  13.098 -0.1103  0.2271  0.2756
22472W        W42006  18.434  10.528   0.026 -0.2672 -0.1965  0.0253
22473W        W42007   2.741   7.669  12.778  0.1228  0.1488 -0.0505
22474W        W42008   1.884   9.073  14.776  0.1943 -0.0566  0.1197
22475W        W42009  15.838  15.319  13.458 -0.0011  0.2924 -0.0689
22476W        W42010  18.189  10.150  10.581  0.1069 -0.0712  0.0093
22477W        W42011   7.351  13.812  10.805  0.1506  0.0260 -0.3749
22478W        W42012  17.793  14.356  10.132 -0.0175  0.0022 -0.2320
22479W        W42013  17.038  16.699   0.433 -0.0511  0.1762  0.1215
22480W        W42014  16.452  17.830  14.708  0.1249  0.2089  0.3209
22481W        W42015  18.434   2.714  11.915  0.0499 -0.0755 -0.1015
22482W        W42016   0.646  11.672  10.276  0.0803  0.1194 -0.1642
22483W        W42017   8.663   8.642   1.266  0.1783 -0.2228  0.1312
22484W        W42018  12.081  14.812   1.151  0.2837  0.2276  0.1974
22485W        W42019  13.088   2.797   4.246 -0.1463 -0.0000  0.0722
22486W        W42020   1.993   3.557   1.188 -0.1137 -0.2030 -0.0531
22487W        W42021   1.164   6.471  13.107  0.1533 -0.0543 -0.0318
22488W        W42022  12.374   3.593   5.381 -0.0442 -0.1641 -0.2795
22489W        W42023   1.213  13.035  11.583 -0.0291  0.1626  0.0478
22490W        W42024  17.091   9.955  12.229  0.1987 -0.3100  0.2601
22491W        W42025   7.564  18.031   2.367 -0.0581 -0.1750 -0.0126
22492W        W42026  13.393   7.029  13.601  0.0268  0.0028 -0.0986
22493W        W42027   0.368  13.846  13.313  0.0486 -0.0103 -0.2667
22494W        W42028   8.589  11.452  12.425  0.4199 -0.2692 -0.2953
22495W        W42029  14.401  12.901   0.177 -0.0073  0.0727  0.1117
22496W        W42030   9.143   6.444  13.322  0.2201 -0.0122 -0.0407
22497W        W42031   0.678  16.808   1.945  0.1797 -0.2727  0.0148
22498W        W42032  11.688  14.282  10.970  0.0257  0.2714  0.2791
22499W        W42033   1.014   2.345  13.719 -0.0505 -0.5187  0.0307
22500W        W42034  14.597  17.232   5.431  0.2905  0.2333 -0.2761
22501W        W42035   7.118   5.718   3.132 -0.3111  0.2056  0.2768
22502W        W42036  15.667   5.910  10.837 -0.1730  0.0880  0.0525
22503W        W42037  16.753  14.677  11.608 -0.0354 -0.0310  0.2597
22504W        W42038  14.515   0.678   3.993 -0.2294 -0.0094  0.0396
22505W        W42039  11.605   0.736   1.659  0.2998 -0.0086  0.0151
22506W        W42040   0.522   3.024  12.429 -0.0240  0.1853  0.1734
22507W        W42041   1.520  18.609  10.200 -0.0116 -0.0979  0.0325
22508W        W42042   3.414   2.552  11.393 -0.2694  0.3448  0.3434
22509W        W42043  15.749   6.340  13.249  0.0322  0.0614  0.2728
22510W        W42044  12.506   0.495  14.137 -0.2661 -0.1478 -0.0245
22511W        W42045   9.409   0.539   3.989  0.2414  0.1591  0.3695
22512W        W42046  13.215  12.075  10.667  0.1709 -0.1060  0.2408
22513W        W42047  10.084   9.986  12.119  0.1860  0.2651  0.3219
22514W        W42048   8.830  15.333   0.647 -0.4033  0.1189  0.0179
22515W        W42049  14.713   6.949  13.154  0.2068 -0.3975  0.2427
22516W        W42050   3.274  14.982  12.061 -0.0254  0.0113  0.0939
22517W        W42051  10.826   4.901   0.976  0.0375  0.0297 -0.2227
22518W        W42052   5.266  13.380  11.669  0.1528  0.2630  0.0114
22519W        W42053  14.703  15.364   0.813  0.0321  0.0613 -0.1718
22520W        W42054  10.366   8.890  12.681  0.0461 -0.1240 -0.1072
22521W        W42055   6.653   8.577  11.256 -0.2576  0.1320  0.2161
22522W        W42056  13.547   4.336  11.618 -0.0275  0.0820  0.4185
22523W        W42057  13.097   1.514  11.207  0.3469 -0.2831 -0.2785
22524W        W42058  19.013  14.298  10.776  0.2548  0.0913 -0.1252
22525W        W42059  10.315   0.755  13.074  0.1053 -0.1167 -0.1276
22526W        W42060  11.724   3.640  11.417  0.3644  0.0167 -0.1673
22527W        W42061  17.900   9.846  10.132  0.1733  0.1326  0.0896
22528W        W42062   8.773  12.152  10.926  0.0890  0.0931  0.1072
22529W        W42063  18.412   6.132   4.992 -0.0875 -0.2564  0.0018
22530W        W42064   7.534   7.356  13.324  0.1717  0.3336  0.1936
22531W        W42065  11.243   2.476   5.457 -0.4349  0.2016  0.1586
22532W        W42066  14.184   2.270  10.669 -0.0424 -0.0713 -0.1439
22533W        W42067   8.720  17.314   0.059 -0.1071 -0.3914 -0.0535
22534W        W42068  15.492  13.199   0.322 -0.0380 -0.2734  0.2153
22535W        W42069  11.712  17.149   3.568  0.2443 -0.1426  0.2824
22536W        W42070   2.553   7.442   2.307 -0.0759  0.2084 -0.1248
22537W        W42071  14.964   9.319   0.291 -0.2430 -0.0862 -0.0843
22538W        W42072  13.829   6.122   3.131  0.1694  0.2864 -0.0643
22539W        W42073   0.483   5.542   4.497 -0.1983 -0.2629  0.0730
22540W        W42074   3.459  11.452   9.950 -0.1697  0.2146  0.2167
22541W        W42075  18.637  14.859  14.685 -0.0765  0.2441 -0.1816
22542W        W42076   8.960   9.016   2.473  0.1379 -0.0319 -0.1222
22543W        W42077   8.902  15.613   3.215  0.0495  0.0370 -0.1596
22544W        W42078  12.692   7.146  14.081  0.1479  0.0560  0.0010
22545W        W42079   7.423  11.362  12.369  0.2481  0.0138  0.1474
22546W        W42080  19.009   3.933   3.487 -0.0823  0.3610  0.0016
22547W        W42081   3.585  14.339   3.571 -0.2289  0.0285  0.1103
22548W        W42082   3.740   8.355   1.327  0.2588  0.0625 -0.0497
22549W        W42083  10.832  13.306  14.745  0.0441 -0.2321  0.2301
22550W        W42084   9.975  16.400  10.922 -0.1256  0.0076 -0.0048
22551W        W42085  10.717  17.482   1.275  0.0199 -0.0056 -0.3009
22552W        W42086   3.799   0.654  12.032  0.1807 -0.1308 -0.1726
22553W        W42087   2.211  15.636  14.674  0.0047  0.0610 -0.0375
22554W        W42088  12.270  15.094  10.093 -0.2189 -0.0410  0.3557
22555W        W42089   8.719   5.633   0.042 -0.4211 -0.0997  0.0563
22556W        W42090  15.211  14.805   4.523 -0.0245  0.2317  0.2880
22557W        W42091  18.591  18.912   3.886 -0.1170 -0.2210 -0.1764
22558W        W42092   4.982  13.551   2.183 -0.0127  0.0223 -0.0887
22559W        W42093   5.868   2.363   3.366 -0.3662 -0.2007  0.1921
22560W        W42094  15.560  16.856  14.797 -0.1306  0.0267 -0.1176
22561W        W42095   9.653  17.397  13.131  0.3781 -0.1784 -0.2831
22562W        W42096   7.700  14.535   4.229 -0.0425 -0.1318  0.1764
22563W        W42097  18.825  11.491   0.770 -0.1748  0.3756  0.0809
22564W        W42098   9.233   7.570  12.263 -0.1530 -0.1262  0.3460
22565W        W42099  15.414   3.331   3.200 -0.0102 -0.0536  0.0601
22566W        W42100  16.109  14.223   1.037 -0.0195  0.1278  0.0505
22567W        W42101   4.739  15.812  14.489  0.0007  0.0874 -0.2542
22568W        W42102  13.330   1.195   4.013  0.1092  0.1206 -0.1760
22569W        W42103  13.554   8.430   1.413 -0.0005  0.1615 -0.2824
22570W        W42104  16.709   2.763  13.198 -0.2154 -0.2419 -0.2533
22571W        W42105  17.061   0.651  12.101 -0.1112  0.0635 -0.0450
22572W        W42106   1.425   2.466  14.031  0.0804 -0.2962 -0.2601
22573W        W42107   5.650  13.371  11.396  0.2427 -0.1474  0.2507
22574W        W42108   0.868   8.086  10.964 -0.1676 -0.4063  0.2991
22575W        W42109   0.776   4.140   2.411  0.0598 -0.1646 -0.2481
22576W        W42110   4.601  17.817   3.930  0.0162  0.3060 -0.1410
22577W        W42111  15.262  15.990  11.744 -0.2447 -0.1186 -0.0678
22578W        W42112  11.567   0.697  11.893 -0.2866 -0.0588  0.3742
22579W        W42113  13.038  13.977  14.112  0.2035 -0.2327  0.1883
22580W        W42114   1.827  13.681  13.326  0.0556  0.0298 -0.2170
22581W        W42115   5.974   1.526  14.643 -0.1020  0.1628 -0.2211
22582W        W42116   6.544  17.337   1.446  0.0827 -0.1521 -0.1221
22583W        W42117   1.864  14.453   0.143 -0.1390 -0.0138 -0.2649
22584W        W42118   5.520  11.211   2.472  0.0150 -0.4134 -0.0926
22585W        W42119  11.998   7.135   1.847  0.1635  0.0534 -0.0019
22586W        W42120  10.975   3.045   2.439  0.1656 -0.0203 -0.2572
22587W        W42121   0.871   5.894  14.618 -0.2274 -0.1789 -0.2314
22588W        W42122   2.206   5.228  11.309  0.0201 -0.3432  0.0235
22589W        W42123  13.443   5.895  12.017 -0.0629 -0.2055  0.2332
22590W        W42124   8.896  18.525   0.176  0.5908 -0.0056  0.0146
22591W        W42125  16.870  14.620   3.954  0.0215  0.1678 -0.3723
22592W        W42126   8.016  12.914  12.938 -0.2654  0.0565 -0.0650
22593W        W42127  19.051  17.901   2.337  0.2926  0.0516  0.0752
22594W        W42128   7.146  11.613   4.116 -0.0966  0.2207  0.2285
22595W        W42129   3.461  13.741  10.650  0.1977 -0.0975  0.2378
22596W        W42130  14.573  17.059   3.062  0.1656  0.1715 -0.0250
22597W        W42131   2.397  16.762  12.569 -0.2487 -0.0894 -0.0473
22598W        W42132  12.395   6.056  12.256  0.3764  0.0159  0.2555
22599W        W42133   0.883   6.279  11.263 -0.1815 -0.1141  0.0149
22600W        W42134   0.466  14.327  13.529 -0.1898 -0.0581  0.4183
22601W        W42135   1.496  14.675   4.288  0.2090  0.0972 -0.2852
22602W        W42136  18.239   8.575  11.684 -0.0684  0.1141  0.0779
22603W        W42137   5.814   1.143   2.237 -0.2276 -0.0116  0.1490
22604W        W42138   3.677   4.867   1.455 -0.2056 -0.0009 -0.1774
22605W        W42139   2.188  16.871  14.516  0.0299  0.0838 -0.1866
22606W        W42140   5.775  10.016  14.610  0.1680 -0.0572 -0.2379
22607W        W42141  19.073  17.716   4.194 -0.0540  0.0550 -0.0227
22608W        W42142  13.763  18.383  14.813 -0.0832  0.3525 -0.1411
22609W        W42143  16.376  16.736   2.358  0.1095  0.0046 -0.0752
22610W        W42144   4.664  17.560   1.313 -0.3488 -0.2654 -0.2355
22611W        W42145  16.118  15.422  12.407  0.2587  0.0686  0.0740
22612W        W42146   2.532   8.912   2.864  0.1408 -0.2155  0.2341
22613W        W42147  10.484  12.002  12.077 -0.0443  0.0508  0.0712
22614W        W42148   0.506   0.423  13.062 -0.0121 -0.4392  0.3010
22615W        W42149  11.876   2.072  11.625 -0.0236  0.0080 -0.1251
22616W        W42150  10.220  17.329  11.574 -0.0381 -0.0763 -0.0567
22617W        W42151  14.762  11.205   1.997 -0.2567  0.1387 -0.0965
22618W        W42152   7.373  14.868  10.895  0.2491 -0.0026  0.0285
22619W        W42153   9.494  17.088   1.129  0.2958 -0.2376 -0.0120
22620W        W42154  16.744   0.622  13.800 -0.0339  0.0476  0.0010
22621W        W42155   4.678   8.100  13.021 -0.1424  0.1006 -0.1663
22622W        W42156   0.964   5.819   0.393  0.2439  0.3234 -0.0090
22623W        W42157  15.047   6.317  12.285  0.0866 -0.0160  0.1070
22624W        W42158   1.130  17.077   3.443 -0.0676  0.2810 -0.1358
22625W        W42159   8.414  17.547   3.478 -0.2717 -0.1708 -0.2913
22626W        W42160  13.915   0.987  11.715 -0.0194 -0.2511  0.2975
22627W        W42161   6.970   6.404   0.299 -0.0758  0.0149 -0.0540
22628W        W42162  16.260   0.325   2.792  0.0552  0.0264 -0.0560
22629W        W42163  17.399   5.926  13.820 -0.2020 -0.0888  0.1901
22630W        W42164  18.063   1.488   3.159 -0.0625  0.3161 -0.2691
22631W        W42165   3.534  14.780   5.318 -0.0046  0.1205 -0.2125
22632W        W42166  15.715  12.525   3.092 -0.2089  0.0242  0.2317
22633W        W42167  14.535   9.282  12.847  0.2210  0.3419  0.4065
22634W        W42168  17.690   1.524   2.842  0.1889  0.1042 -0.1164
22635W        W42169   8.831   6.376   0.940 -0.0771  0.2688 -0.1412
22636W        W42170  18.363   1.156   1.246 -0.3980 -0.1416 -0.1241
22637W        W42171   6.823   4.385   4.091  0.1585  0.0810  0.0370
22638W        W42172   9.411   0.040  11.810 -0.3889  0.0149 -0.0058
22639W        W42173   3.034  11.416   0.759  0.0967  0.3343 -0.0686
22640W        W42174  18.668  16.275   2.597 -0.0407  0.3404  0.0556
22641W        W42175   0.038   6.774   1.482 -0.1608  0.0346  0.0490
22642W        W42176  16.988   2.533  14.544 -0.1439  0.2519  0.0079
22643W        W42177   1.556   4.315  12.818  0.0068  0.2827  0.1502
22644W        W42178   9.346  15.062  11.965  0.0687 -0.2043 -0.3402
22645W        W42179  17.858   4.001   3.240 -0.4172 -0.0157  0.0240
22646W        W42180   4.511  16.278   2.309 -0.0402  0.0420  0.4674
22647W        W42181  11.324  18.232  14.305 -0.3051 -0.1765  0.0818
22648W        W42182  18.283  16.666   2.479  0.1134 -0.1560  0.1532
22649W        W42183   0.736   0.513   1.525 -0.1068 -0.1155 -0.2466
22650W        W42184   5.962   6.194   2.592 -0.0405  0.0159  0.0690
22651W        W42185   6.273   7.122  11.313  0.0437 -0.0296  0.1240
22652W        W42186   8.993   6.869  11.260 -0.1346  0.1075  0.2610
22653W        W42187   7.145  12.505   1.605 -0.1718 -0.0396 -0.0485
22654W        W42188  13.244  12.629  10.917 -0.1378  0.2235 -0.2596
22655W        W42189   7.399   5.413  12.933 -0.1711  0.0653 -0.0630
22656W        W42190  15.731   8.572  10.388  0.1430  0.1838  0.1324
22657W        W42191  16.052   8.539   2.290 -0.2852 -0.3418  0.0495
22658W        W42192  16.849   1.710  10.519  0.0822 -0.1774  0.0519
22659W        W42193  13.997  15.020  13.037 -0.0000  0.1036 -0.0020
22660W        W42194   5.707   1.525   3.608 -0.0720  0.0179 -0.3875
22661W        W42195  13.969  10.207  11.957 -0.1204  0.1592  0.0043
22662W        W42196  11.095   5.086  12.176 -0.0210  0.1028  0.1790
22663W        W42197   8.577  10.314  10.937 -0.0758 -0.0736 -0.1670
22664W        W42198   0.011   6.231  14.082  0.0897 -0.0800  0.0316
22665W        W42199  10.963   8.002  12.599  0.1451  0.0170 -0.0935
22666W        W42200   5.707   7.721   1.568  0.0590 -0.3119  0.0218
22667W        W42201   4.688   2.101   2.173  0.0204 -0.0514  0.1921
22668W        W42202  18.644   2.221  14.692 -0.1885  0.0556 -0.0393
22669W        W42203  18.746   8.625   2.882 -0.0808 -0.1097 -0.0805
22670W        W42204   5.178   0.734  12.491  0.0857 -0.0564 -0.3995
22671W        W42205   2.461  18.712  14.242 -0.1388 -0.1345  0.0410
22672W        W42206  16.727   4.092  10.147 -0.0004 -0.0817 -0.1724
22673W        W42207   1.127  18.840  14.620  0.1052  0.1995  0.0207
22674W        W42208  10.935  12.121   0.372 -0.1553 -0.1888  0.0974
22675W        W42209  15.853   8.575  14.394 -0.1313  0.1817  0.1034
22676W        W42210  16.963   5.900  13.314 -0.0088  0.3451 -0.0199
22677W        W42211  15.986   3.528   1.312  0.1182  0.1503 -0.2776
22678W        W42212   1.265   1.355   1.551 -0.2136 -0.2167 -0.2009
22679W        W42213  10.631   8.608  12.109 -0.0231  0.2217 -0.2442
22680W        W42214   9.943   6.800  10.980  0.0980 -0.0140 -0.1339
22681W        W42215   8.171  16.120   4.393 -0.2332 -0.2351  0.0332
22682W        W42216   9.301   5.886  12.725 -0.2319  0.3244  0.0764
22683W        W42217  10.825  18.820   4.395 -0.2603  0.0612  0.0060
22684W        W42218  11.209   1.192   1.034 -0.0264  0.2483 -0.0674
22685W        W42219   5.036  11.282   1.672  0.0130 -0.1506 -0.3164
22686W        W42220  11.956  18.266   3.882 -0.2742  0.2255 -0.0078
22687W        W42221   0.404  18.040   3.312 -0.0938 -0.0290 -0.2358
22688W        W42222   7.313  15.799   0.331 -0.1977  0.1840 -0.0107
22689W        W42223   2.225   1.024   1.363  0.0021 -0.2468  0.4760
22690W        W42224  12.177  15.880   0.909  0.0302  0.0523  0.1405
22691W        W42225  18.307   4.177   2.960  0.2544 -0.0857 -0.0596
22692W        W42226  18.468  17.703  12.060 -0.0971 -0.0000  0.0891
22693W        W42227   1.415  18.541  11.773  0.1756 -0.1466 -0.1015
22694W        W42228   9.005  14.121  12.009 -0.2116 -0.1444  0.0390
22695W        W42229  13.667   4.599  14.497  0.0392  0.0676  0.1576
22696W        W42230  12.341  13.116   0.679  0.3937 -0.0934  0.0265
22697W        W42231  15.199   5.965   0.354  0.0274 -0.1190 -0.0580
22698W        W42232   0.724   2.027   1.392 -0.0215 -0.3015  0.0143
22699W        W42233   3.799   3.871   1.902 -0.2582  0.1392  0.0774
22700W        W42234  10.390   7.384  12.116  0.1661 -0.0596  0.0322
22701W        W42235   5.789   4.217   2.442 -0.2845  0.0156 -0.3884
22702W        W42236   6.105   9.562  13.783  0.1814 -0.2040  0.0016
22703W        W42237  10.143  16.220   4.021  0.0649  0.2597  0.3992
22704W        W42238   5.426   6.556   1.641 -0.0006 -0.1257 -0.1512
22705W        W42239  10.437  12.836  11.896  0.1110  0.0686 -0.1757
22706W        W42240  10.687   5.533  14.722  0.2162  0.1063  0.1481
22707W        W42241   1.919   1.940  13.120  0.0462 -0.2264 -0.1688
22708W        W42242   9.097   9.559   2.474  0.0277 -0.0089 -0.3168
22709W        W42243  11.842  16.971   4.028 -0.0109  0.0674 -0.0356
22710W        W42244  16.808   3.849  11.373 -0.1407 -0.0373  0.0840
22711W        W42245   5.634   4.431   0.207 -0.0556 -0.2225  0.1912
22712W        W42246   4.610   3.132   1.932  0.1957 -0.0554  0.0508
22713W        W42247  10.954   7.161   0.526 -0.1422  0.2616  0.2101
22714W        W42248   5.619  13.995  12.319 -0.2256  0.1100  0.2381
22715W        W42249  13.622  12.304  10.823  0.1720  0.1582  0.0159
22716W        W42250  16.066   1.958   0.675  0.3985  0.1660 -0.3152
22717W        W42251   7.666  16.138   2.112 -0.2052 -0.2762  0.3308
22718W        W42252  16.622   7.585   0.196 -0.3631 -0.0825 -0.2868
22719W        W42253   0.044  14.778  14.497 -0.1251  0.2368  0.1722
22720W        W42254  14.911   3.127  11.512  0.1823 -0.0068 -0.0761
22721W        W42255  13.053   0.174   0.091  0.1463 -0.0395  0.1282
22722W        W42256  18.791   5.085  12.006  0.1787 -0.0261 -0.0698
22723W        W42257   9.508  18.388  13.019 -0.1173  0.1008 -0.1769
22724W        W42258   8.551   8.563   4.265 -0.0065  0.1492  0.1991
22725W        W42259  10.373   2.756   2.099  0.1246  0.3852 -0.4070
22726W        W42260  16.925   0.193  12.735  0.0336 -0.2967  0.1030
22727W        W42261  17.923  17.510   3.063 -0.2681  0.0329 -0.1273
22728W        W42262  10.269   4.995   3.686  0.1784 -0.0539  0.2904
22729W        W42263   9.107   8.649  13.647  0.3364 -0.3426  0.0934
22730W        W42264  14.942  12.381   1.929 -0.2513 -0.2297  0.0754
22731W        W42265   0.186   3.195  10.225 -0.0575  0.4856 -0.1590
22732W        W42266  10.465   4.201  14.233  0.1339  0.1093  0.2666
22733W        W42267  12.420   0.470  12.568  0.2739  0.2111  0.1385
22734W        W42268   0.700  12.528   0.010 -0.0850  0.0340  0.2475
22735W        W42269   5.804  10.609  12.674 -0.1285  0.2804  0.0130
22736W        W42270  12.398  12.063  11.257  0.0528  0.0870  0.0846
22737W        W42271   5.800  17.272   2.736 -0.1827  0.2720 -0.1012
22738W        W42272   7.983   8.774   2.482 -0.0934 -0.0771  0.3095
22739W        W42273   3.665   0.697  14.252 -0.3033  0.0473  0.1155
22740W        W42274  17.438  14.726   1.148 -0.5520 -0.1949  0.4129
22741W        W42275  10.455  19.092  10.412 -0.1032 -0.1156 -0.1486
22742W        W42276  12.923   2.866   2.958  0.0844 -0.2869  0.0447
22743W        W42277   6.777   8.351  14.287  0.1088  0.0950  0.1544
22744W        W42278  17.802   0.096  11.736  0.2022  0.1757 -0.0224
22745W        W42279  18.407  18.174   0.183  0.0784 -0.2074  0.0024
22746W        W42280   2.223   3.894  12.375 -0.1840  0.0432  0.1277
22747W        W42281   6.758  17.605  12.606  0.2195 -0.1806  0.2272
22748W        W42282  11.449   5.367   0.448 -0.1726 -0.1713  0.0684
22749W        W42283  12.377   1.568   0.791 -0.5046  0.2510  0.1038
22750W        W42284   2.399   8.559  12.422 -0.0192  0.0456 -0.1855
22751W        W42285   0.082  17.126   2.550 -0.2312  0.1836  0.1290
22752W        W42286   6.215   0.283  12.311  0.3145  0.2317  0.0417
22753W        W42287   2.690   1.562   2.500 -0.0098 -0.0653 -0.2226
22754W        W42288   3.999  16.551  12.422  0.1688 -0.0275  0.0957
22755W        W42289   4.868   4.918  11.777 -0.0173 -0.0815 -0.2409
22756W        W42290   8.118  14.892   3.320  0.2043  0.1151  0.2482
22757W        W42291  13.532  11.837   3.320 -0.1241 -0.0362  0.1366
22758W        W42292  11.317   9.249  12.759  0.0460  0.1531 -0.0914
22759W        W42293   2.720  14.349   2.707 -0.2501  0.2738 -0.0139
22760W        W42294   7.642   0.248  13.316  0.0693 -0.0915 -0.1762
22761W        W42295  11.330  16.864  11.043 -0.2893 -0.2294 -0.3438
22762W        W42296   5.174   9.287  11.618 -0.1617  0.0242  0.2712
22763W        W42297  10.366  16.079   0.058 -0.1683 -0.4124  0.0491
22764W        W42298   1.630  14.813   2.853 -0.0129  0.4090  0.2724
22765W        W42299   3.872   5.916  11.313 -0.0793  0.1505  0.3327
22766W        W42300  10.141  14.685  14.547  0.2322  0.0494 -0.1920
22767W        W42301  12.397   1.380  14.338 -0.0104  0.1475  0.0793
22768W        W42302  12.328  17.835   1.904  0.0926  0.2679 -0.0831
22769W        W42303  12.829   4.498   2.183  0.0748 -0.0273 -0.1950
22770W        W42304  14.027   1.665   1.859  0.0201  0.0860 -0.0781
22771W        W42305  17.480  10.558   3.922 -0.0787 -0.0622  0.2398
22772W        W42306   5.771   3.313   2.225 -0.3918  0.1515  0.0151
22773W        W42307  13.565  13.793  11.030 -0.1378 -0.1471 -0.0040
22774W        W42308   2.710  18.338  10.667  0.1614  0.0698  0.0328
22775W        W42309   4.469  16.492  13.800  0.0358 -0.1657 -0.0420
22776W        W42310   6.026  17.697   0.923  0.0554  0.3611  0.0956
22777W        W42311  15.300  15.952  13.624 -0.2389 -0.1119 -0.4799
22778W        W42312   9.866   3.787  13.609  0.2929  0.0112  0.0502
22779W        W42313  12.549   9.334   3.207  0.2220 -0.0550  0.1532
22780W        W42314  11.681   9.246   2.795  0.0798 -0.0063  0.0817
22781W        W42315  18.849  11.425   0.215 -0.0530 -0.2651  0.3747
22782W        W42316   2.267   6.706  12.456  0.1773 -0.1975 -0.3660
22783W        W42317   2.343   0.492  10.302  0.3478  0.0111  0.0006
22784W        W42318   7.606  15.231  11.493  0.0117  0.0003 -0.2156
22785W        W42319  17.457  18.312   0.839  0.0443  0.2236  0.1188
22786W        W42320   7.958   6.656   1.890 -0.3453 -0.3428  0.2104
22787W        W42321   2.094   1.385  11.214  0.0086 -0.1058 -0.2209
22788W        W42322  11.042   1.030   4.029  0.1174 -0.0858 -0.1765
22789W        W42323   3.649   9.838  13.348  0.2286  0.2121 -0.0205
22790W        W42324  17.241  19.051  14.495  0.1489  0.2523 -0.1700
22791W        W42325   1.972   4.961  14.632 -0.0057  0.0575  0.0749
22792W        W42326   3.822   8.492   0.500 -0.2674 -0.3107  0.1477
22793W        W42327   0.776  12.512  11.221  0.3183 -0.0375  0.1323
22794W        W42328   0.145  10.371   3.942  0.2594 -0.1198 -0.0479
22795W        W42329   9.849  18.389   0.237  0.0878 -0.1702  0.0469
22796W        W42330   7.791  15.415   2.238  0.3136 -0.1664  0.2783
22797W        W42331   1.155   9.212   2.656 -0.2347  0.3958 -0.0494
22798W        W42332  11.729   1.938  13.153 -0.0486 -0.1429  0.0722
22799W        W42333   6.833   9.915  11.021 -0.0961  0.3177  0.4345
22800W        W42334   7.210   2.131   3.799 -0.2685 -0.0951 -0.0200
22801W        W42335  14.850   8.658   1.286 -0.3072 -0.3317 -0.0378
22802W        W42336  13.594   9.328   1.437  0.0178  0.0430  0.2053
22803W        W42337  13.463   8.829   1.751 -0.1643 -0.1273 -0.1228
22804W        W42338  15.952   7.631  10.645 -0.0239 -0.0843  0.2031
22805W        W42339   9.797   4.508   1.914  0.2401  0.2802  0.0533
22806W        W42340   3.984   3.592  12.037  0.1274 -0.2433  0.0310
22807W        W42341  10.765   3.484   3.700  0.1855  0.0773  0.0220
22808W        W42342   9.384  18.957  13.595  0.2730 -0.3621  0.2020
22809W        W42343  14.130   8.206  13.670 -0.5801  0.2035 -0.1669
22810W        W42344   2.918  12.479   4.104  0.1529  0.0372 -0.0851
22811W        W42345   3.566  18.988  11.715 -0.1922 -0.0230 -0.0526
22812W        W42346   4.762   8.849  10.852  0.1650 -0.0918  0.2058
22813W        W42347   7.715   0.830  11.905  0.2731 -0.2470 -0.1875
22814W        W42348   8.914  14.093  12.848 -0.2207  0.1048  0.2113
22815W        W42349  11.653  17.401   4.375 -0.0561  0.0530 -0.2827
22816W        W42350  16.734   7.297   3.002  0.0466  0.1306 -0.0020
22817W        W42351  14.430  11.040  11.196  0.2674  0.3242  0.1072
22818W        W42352   1.609  13.087  11.317 -0.4733  0.3394 -0.1152
22819W        W42353  12.533  12.292   2.564 -0.0462 -0.0241  0.3172
22820W        W42354   8.862  11.539   1.632 -0.1826 -0.0080  0.1132
22821W        W42355  11.336  12.473  12.996  0.0599 -0.1334  0.1873
22822W        W42356   4.521   2.818   3.156 -0.0817 -0.1286 -0.0174
22823W        W42357  16.775   9.706   1.900  0.2040 -0.1173 -0.3104
22824W        W42358   5.002  12.597  14.739 -0.3851 -0.4119  0.1539
22825W        W42359   4.656   1.149  12.099  0.1626 -0.0999 -0.1305
22826W        W42360   6.623   0.552  11.012 -0.1357 -0.1264 -0.1583
22827W        W42361   0.186   9.125  12.293 -0.0252 -0.0359  0.0885
22828W        W42362   6.827   9.881   4.294 -0.0788 -0.1431  0.1444
22829W        W42363  17.053   2.308  11.120  0.2227  0.0516  0.3507
22830W        W42364  17.469   2.500   0.884 -0.1137 -0.3747  0.1077
22831W        W42365  12.646  14.378  10.871  0.2416 -0.1321 -0.1886
22832W        W42366   5.184  18.591   1.753 -0.0839  0.0223 -0.0877
22833W        W42367   7.703   3.338   1.495 -0.0338 -0.2285  0.1879
22834W        W42368   3.485  18.341   4.706 -0.0229  0.1337  0.0509
22835W        W42369   6.133  10.936   1.289  0.1435  0.0069  0.1222
22836W        W42370   5.420   0.683   0.817  0.0494  0.2732 -0.0192
22837W        W42371   8.074   1.508   4.566 -0.1196 -0.0688  0.2673
22838W        W42372   5.489   6.077  12.229 -0.1053  0.2469  0.0358
22839W        W42373   8.681   2.157   3.816  0.0268 -0.1479  0.0189
22840W        W42374   3.077  14.893   0.474  0.1216  0.3360 -0.1719
22841W        W42375  14.419   6.063  13.082  0.0584  0.0815 -0.0552
22842W        W42376   3.555  10.768  12.099 -0.1391 -0.3083  0.1664
22843W        W42377  12.667   0.855  13.243 -0.0413 -0.1218 -0.0565
22844W        W42378  19.101  14.585   2.633  0.1582  0.0677 -0.0129
22845W        W42379   3.475  14.172  13.086  0.3129 -0.2230 -0.2823
22846W        W42380  10.000  10.916  11.465  0.4354 -0.3195  0.2346
22847W        W42381  17.363  15.999   0.816  0.0187  0.2502 -0.0870
22848W        W42382   8.836   3.891   3.485 -0.0953  0.2375 -0.2090
22849W        W42383   5.721   2.687   2.918 -0.0520 -0.0156 -0.0401
22850W        W42384   6.921   4.913   3.347  0.0473  0.3941  0.0921
22851W        W42385  18.118  10.970   1.917  0.4024  0.4252 -0.1282
22852W        W42386   9.571  18.894   2.797 -0.0466  0.0349 -0.1939
22853W        W42387  13.369  10.317  10.840 -0.0446  0.4619 -0.0813
22854W        W42388   5.301   4.167   2.106 -0.0588 -0.0490  0.1674
22855W        W42389  17.541  15.234   1.959  0.1562  0.0775  0.2046
22856W        W42390   9.146  13.986  14.568  0.1810  0.1390 -0.1701
22857W        W42391   9.098  18.353  12.089 -0.0912 -0.2360 -0.5590
22858W        W42392  16.612  10.788   2.376 -0.1467 -0.0549  0.0404
22859W        W42393   3.784  10.764   1.161  0.1270  0.0175  0.0895
22860W        W42394  10.620   1.323   2.272  0.1023 -0.2326 -0.1411
22861W        W42395  10.834   0.165   5.375  0.0948  0.1004  0.0596
22862W        W42396  17.689  17.306  13.413  0.2841 -0.1117 -0.1667
22863W        W42397  16.882   3.007  14.295 -0.1316  0.2160 -0.1283
22864W        W42398  11.114   4.325  13.060  0.0666 -0.3032 -0.0634
22865W        W42399  17.406   3.961   3.992 -0.0242  0.1665  0.0346
22866W        W42400   2.101  13.096  14.704  0.1210  0.1482  0.0884
22867W        W42401  11.264  16.355  12.644 -0.1968 -0.0837  0.1632
22868W        W42402   9.946   8.368   1.354  0.0076 -0.0319 -0.1985
22869W        W42403  17.899  11.377  10.653  0.0186  0.0089 -0.1943
22870W        W42404  10.715   2.226  14.562 -0.0581  0.1569  0.0320
22871W        W42405   2.574   9.590  12.216  0.0598 -0.1332 -0.0543
22872W        W42406   4.802   7.086   1.037  0.1670  0.1866  0.0574
22873W        W42407   5.631  18.415  13.579 -0.0062  0.2153  0.2034
22874W        W42408   5.926   0.803  13.004 -0.2018 -0.5034  0.1752
22875W        W42409   1.045  12.106  11.260 -0.3554  0.2838  0.1283
22876W        W42410  17.037  16.309  14.210 -0.0737 -0.0738 -0.0497
22877W        W42411  15.985   7.238   1.663 -0.3471 -0.0609 -0.0706
22878W        W42412  15.808  15.543  14.321 -0.1824 -0.2138 -0.2443
22879W        W42413   2.957   5.141  14.702  0.1575 -0.3576 -0.2899
22880W        W42414  16.446  13.889   2.784 -0.2725 -0.1772 -0.3334
22881W        W42415  17.556  13.901  13.281  0.0186  0.0399 -0.0177
22882W        W42416   7.502  10.373   3.779 -0.2289  0.1808  0.0754
22883W        W42417  17.411   1.679  13.531  0.1702  0.1111  0.2415
22884W        W42418   4.054  10.507   2.009 -0.0672  0.1757 -0.3217
22885W        W42419  10.389   6.259   3.967  0.3962 -0.0907 -0.1070
22886W        W42420   3.156  18.863  11.961  0.2261 -0.0318 -0.1265
22887W        W42421  12.906   6.922  10.644  0.1978  0.3285 -0.2689
22888W        W42422   9.846  12.028  10.652  0.3321  0.0751  0.3964
22889W        W42423   2.373  12.717   0.818 -0.0373  0.0040  0.0337
22890W        W42424   9.839   0.547   1.039  0.1519  0.0901 -0.1630
22891W        W42425   5.468   0.009  12.149  0.1232  0.1112  0.0438
22892W        W42426   9.120   6.324   4.396  0.0297 -0.0923 -0.0361
22893W        W42427  15.456   1.948   4.065  0.2144  0.4710 -0.0677
22894W        W42428  16.892  14.509  13.409  0.1792  0.0653 -0.1764
22895W        W42429   6.320   2.171   2.793  0.0326 -0.0723 -0.0579
22896W        W42430   3.048   0.158  10.518  0.1297  0.1687  0.2201
22897W        W42431  15.887  11.046  12.175  0.1907  0.0165  0.2389
22898W        W42432  15.914   8.025   0.470  0.0025 -0.0865  0.1744
22899W        W42433   9.081   2.996   0.513  0.0517  0.1961  0.0350
22900W        W42434  11.449   2.389   4.092 -0.1838 -0.2046  0.1964
22901W        W42435   7.341  17.968  11.783  0.0349  0.1629  0.0211
22902W        W42436  11.389  11.258  10.729 -0.3572  0.0615 -0.2893
22903W        W42437   4.145  18.676   4.631 -0.0621 -0.1108  0.0906
22904W        W42438   9.523   5.028  12.434  0.3586  0.0033 -0.0980
22905W        W42439  14.502  11.184   4.066 -0.1699 -0.2108 -0.1386
22906W        W42440  14.017  12.570   3.667  0.0738 -0.0287  0.1418
22907W        W42441   8.435   3.837   4.227  0.3491 -0.4502  0.1212
22908W        W42442   0.050   4.492  12.483 -0.1025 -0.0011  0.0147
22909W        W42443  14.821   6.280  11.817  0.1820  0.0927 -0.3155
22910W        W42444   5.940   8.377   2.769  0.0695 -0.3577 -0.0686
22911W        W42445  10.849   2.077   0.979 -0.1518  0.1232  0.0670
22912W        W42446  14.849   5.134   3.605 -0.1901 -0.0277 -0.4186
22913W        W42447   0.125   3.320  13.500 -0.1780  0.1585  0.0411
22914W        W42448   9.932  17.502  13.560  0.2897  0.1180  0.0925
22915W        W42449   5.599  10.746  13.560  0.0602 -0.0933  0.3128
22916W        W42450  11.781   4.038   1.502 -0.1576  0.0539 -0.2029
22917W        W42451   0.892   3.849  12.274  0.1060 -0.4018 -0.1302
22918W        W42452   7.183   4.400   3.216  0.1561  0.1607  0.1137
22919W        W42453  10.657   3.642   2.338  0.0369 -0.2882  0.0851
22920W        W42454   0.295  11.603  13.869 -0.2634  0.3070  0.0181
22921W        W42455   7.449  12.662  12.164 -0.3121 -0.1249  0.3732
22922W        W42456   5.395  10.184  11.854  0.0952  0.2627 -0.3573
22923W        W42457   3.580   6.517   2.199  0.1248 -0.1007  0.2009
22924W        W42458   7.051   5.831   4.744 -0.1041 -0.0113  0.1872
22925W        W42459   3.730   0.312  12.438 -0.2878  0.4396  0.0529
22926W        W42460   2.156  18.390   0.777 -0.2045 -0.0527 -0.0011
22927W        W42461   2.288   6.654   2.269  0.2607  0.1732 -0.5861
22928W        W42462   3.036  13.939   1.997 -0.0326  0.0840  0.1308
22929W        W42463  15.291  18.893   1.343  0.1722  0.0940 -0.1769
22930W        W42464  13.795  11.961   1.441 -0.3409 -0.2567  0.1092
22931W        W42465  13.830  13.456   2.397  0.2330  0.0888 -0.2202
22932W        W42466  11.309   0.904  13.122 -0.0131  0.1011  0.0716
22933W        W42467   2.537  12.074   1.483 -0.0940 -0.0504 -0.1754
22934W        W42468   5.431   5.594  11.946  0.5303 -0.0377 -0.1736
22935W        W42469   8.021  13.347  10.683  0.1614  0.1599  0.1215
22936W        W42470   5.269   8.098  10.863 -0.1967  0.1006 -0.2130
22937W        W42471  10.959   6.742  12.265  0.0295 -0.1251  0.0390
22938W        W42472  11.425   9.679  14.025 -0.0509  0.0846  0.0697
22939W        W42473   9.292   8.774   3.870 -0.3478 -0.1007  0.2156
22940W        W42474  16.381  14.669  11.275  0.3996 -0.3064 -0.3283
22941W        W42475  10.493   0.143  12.346  0.1237  0.0410 -0.0771
22942W        W42476   1.047  10.478  12.758  0.1424  0.0251 -0.3431
22943W        W42477  13.062   1.684   0.121 -0.0106  0.0942  0.4550
22944W        W42478   1.630  14.520   3.324 -0.1711  0.1347 -0.0639
22945W        W42479  14.747   6.591  13.686 -0.1428 -0.1294  0.0368
22946W        W42480  15.202  10.034  11.513  0.0094 -0.2136 -0.0213
22947W        W42481   7.261  11.121   4.282  0.3273  0.0896 -0.1099
22948W        W42482  10.783   6.499  13.678  0.0679  0.1868  0.2886
22949W        W42483  14.969  13.143   0.312 -0.2312 -0.1454 -0.0859
22950W        W42484   6.722  14.267   1.484 -0.1424  0.0031  0.0419
22951W        W42485   0.008   2.065   2.535 -0.0677  0.2979 -0.0855
22952W        W42486   8.280  17.526   0.239  0.1208  0.0563 -0.3348
22953W        W42487   0.935   0.339   1.045 -0.1380  0.2000 -0.1671
22954W        W42488   9.162  14.200  13.748  0.2658 -0.0087 -0.1740
22955W        W42489  10.881  19.121  13.822  0.0505  0.1256 -0.1260
22956W        W42490  18.235   1.391   3.704 -0.2514 -0.2236 -0.0556
22957W        W42491   8.511   3.505  14.180 -0.1416  0.2330 -0.1861
22958W        W42492  12.413   6.240   3.704  0.1132  0.4662 -0.0530
22959W        W42493   7.226   9.608   1.447  0.3039 -0.2837  0.2704
22960W        W42494   8.613  10.366   3.424 -0.3131  0.2353  0.0790
22961W        W42495   0.115   7.575   1.154  0.1765  0.0789 -0.0483
22962W        W42496  17.310   0.214  11.971  0.2289  0.0796  0.1107
22963W        W42497   0.855  19.045  10.886 -0.1148 -0.0128  0.0004
22964W        W42498   9.557   6.217   3.158 -0.1333  0.4482 -0.2304
22965W        W42499  12.162  17.438  13.206  0.1731 -0.1095 -0.4170
22966W        W42500   7.178  10.287  10.914 -0.0116  0.0374 -0.2623
22967W        W42501  12.761  13.253   1.458 -0.0824  0.0897  0.0914
22968W        W42502  16.888   5.424   3.228 -0.2010 -0.0396  0.0922
22969W        W42503   2.249  13.295   0.743  0.0889  0.1643  0.0205
22970W        W42504  11.133   9.767   4.028  0.0792  0.1265 -0.1201
22971W        W42505   3.709   7.394   1.678 -0.2286  0.0490 -0.1080
22972W        W42506  17.903  14.654  12.708  0.0654 -0.1922  0.0321
22973W        W42507  14.603  11.654  11.604  0.1177  0.0517 -0.0154
22974W        W42508  10.316  14.034  11.417  0.2870 -0.1640 -0.4867
22975W        W42509   0.585   1.535  10.832 -0.0734  0.0962  0.0302
22976W        W42510   0.576   7.746  13.924 -0.2317 -0.1393 -0.1502
22977W        W42511   2.056  15.440   3.153  0.0096 -0.0427 -0.3008
22978W        W42512   3.138   6.787  12.592 -0.3270  0.2603 -0.1879
22979W        W42513   1.401  10.397   3.485  0.2465 -0.0999  0.3512
22980W        W42514  12.138  11.053  12.255 -0.1204 -0.1695 -0.0592
22981W        W42515  10.724   5.232  13.471  0.0464 -0.0024  0.1564
22982W        W42516  11.680   2.695   1.582  0.3506 -0.0624  0.0263
22983W        W42517   3.137   5.820   3.879 -0.1137 -0.1258 -0.2674
22984W        W42518   1.451  18.685   3.992 -0.1319  0.2955  0.0566
22985W        W42519   1.132   8.894   3.590 -0.1121 -0.1360 -0.0716
22986W        W42520  15.125  11.081  13.100 -0.0005  0.4379  0.0469
22987W        W42521   2.878   5.587  13.170 -0.0522  0.0756 -0.0034
22988W        W42522   4.594  10.314  14.274  0.1142 -0.3286  0.1290
22989W        W42523   5.922   4.922   0.039  0.1103  0.1005  0.1888
22990W        W42524   4.755  16.189   1.176 -0.2070 -0.3033  0.1309
22991W        W42525   1.603  14.152  11.573  0.1737 -0.0952  0.0780
22992W        W42526   8.294  14.415   3.341  0.1489 -0.0657 -0.2452
22993W        W42527  18.732   1.582   3.801 -0.2620  0.3181 -0.1459
22994W        W42528   5.641  18.145   0.704  0.0373  0.0423  0.1721
22995W        W42529  17.316   5.987  11.104 -0.0636 -0.1344  0.0581
22996W        W42530   6.670  12.539   3.474 -0.2339 -0.4933  0.0598
22997W        W42531   2.761   9.819   3.218 -0.0866 -0.0425  0.1758
22998W        W42532   4.013  18.553  12.310  0.1618 -0.0915 -0.3333
22999W        W42533  11.590   8.059  13.839 -0.1655 -0.1421  0.1377
23000W        W42534   4.588   5.789   1.683 -0.0801 -0.0209 -0.1783
23001W        W42535   5.851   1.810   0.618  0.1849 -0.3430  0.1343
23002W        W42536   9.187   3.805  12.145 -0.2333  0.0020 -0.0232
23003W        W42537   3.102  17.486  11.901 -0.1813 -0.0412 -0.1425
23004W        W42538   5.160  16.735  12.735  0.3712  0.3140 -0.2385
23005W        W42539   2.125   9.772   2.553 -0.0508  0.3023  0.0806
23006W        W42540   8.864   1.136   2.229  0.1151  0.1324 -0.1499
23007W        W42541   6.541   0.392   0.322  0.2866 -0.2727 -0.0785
23008W        W42542  17.803  19.103  11.262 -0.0952  0.1032 -0.0305
23009W        W42543   6.595  12.992  11.680  0.0959  0.3465  0.1433
23010W        W42544   4.223  13.767  12.528 -0.0915  0.2579  0.3053
23011W        W42545   9.276  16.259   0.857  0.0496  0.0683 -0.4514
23012W        W42546   4.936  15.082  12.359  0.0252 -0.0321  0.4017
23013W        W42547   3.113  14.022   2.868  0.0335  0.1405 -0.2703
23014W        W42548  17.894  16.149   5.241 -0.3763  0.3647 -0.1387
23015W        W42549  15.221  17.423   3.729 -0.0974 -0.0310  0.1870
23016W        W42550   6.186   5.747   1.477  0.0846  0.0869 -0.3467
23017W        W42551   1.911  14.440   4.185  0.0533 -0.0285 -0.1075
23018W        W42552  12.013   6.268  12.019 -0.0778 -0.1468  0.0775
23019W        W42553  14.659   3.596  11.645  0.0109  0.2040 -0.2887
23020W        W42554  18.604   4.651   1.365 -0.1459  0.1565 -0.0378
23021W        W42555  14.450   1.131  10.436 -0.0177 -0.1510 -0.1629
23022W        W42556   3.819   6.592   4.659  0.1190 -0.1557 -0.2724
23023W        W42557  17.313  13.233  12.037 -0.1337 -0.3000  0.1782
23024W        W42558   1.956  15.694   1.889  0.0212 -0.1915 -0.2652
23025W        W42559   5.610  14.410  13.855 -0.2438  0.0958  0.1950
23026W        W42560   8.120   6.103  14.430  0.1440 -0.2517 -0.3958
23027W        W42561  13.956   6.084   5.256 -0.0839 -0.1742 -0.1268
23028W        W42562  15.326   7.380   0.287  0.0095  0.0582  0.1374
23029W        W42563  11.221   0.254   2.725  0.2950  0.1832 -0.1622
23030W        W42564   4.284  10.973   2.067  0.1746  0.3107  0.1480
23031W        W42565  12.531  16.352  11.378 -0.1058 -0.1134 -0.0859
23032W        W42566  12.832  11.798   2.955  0.1457 -0.2313  0.1394
23033W        W42567   6.843  13.133   3.552  0.3556  0.4238 -0.1947
23034W        W42568   1.701  13.769   4.789 -0.1670  0.1793 -0.0309
23035W        W42569  10.256  16.991  11.220 -0.1429 -0.1645 -0.1174
23036W        W42570  17.959  19.122  13.243  0.0413  0.1244 -0.0223
23037W        W42571  16.423  16.315  12.440  0.2797  0.1687  0.1097
23038W        W42572  10.227   9.143  14.066 -0.1302 -0.2304  0.1808
23039W        W42573   2.426   8.362   4.313 -0.0662 -0.0523  0.0006
23040W        W42574   3.715  13.729   1.027  0.0902 -0.3604 -0.0944
23041W        W42575   5.378   8.208   9.770  0.2438 -0.3723  0.0737
23042W        W42576   7.165   5.419  14.808 -0.0130  0.0882  0.0167
23043W        W42577  15.024  16.164   2.239 -0.2530 -0.0944 -0.4088
23044W        W42578  15.545  17.454  13.842 -0.2720  0.0028  0.2596
23045W        W42579   6.455   8.032   1.329  0.1454  0.2707 -0.3655
23046W        W42580   6.650  11.416   2.285  0.4226 -0.0815 -0.2518
23047W        W42581   0.554   0.908  11.800 -0.0507  0.1178  0.1175
23048W        W42582  18.229  16.188   0.924  0.3769  0.3651  0.1221
23049W        W42583   3.738  11.069  13.150  0.2110 -0.0349 -0.0804
23050W        W42584   7.946   6.659  14.102  0.0641 -0.1604  0.2562
23051W        W42585   5.253  17.279  11.527 -0.1838 -0.2489  0.2077
23052W        W42586   0.160   6.002  11.951  0.1666  0.0235  0.0442
23053W        W42587  11.949   0.494  14.550  0.0337 -0.1226 -0.1498
23054W        W42588   4.762  14.059  10.957  0.2320  0.0043 -0.1861
23055W        W42589   5.867   2.933  13.966 -0.0099  0.1594  0.3061
23056W        W42590  17.961  12.435   2.259 -0.1396  0.0002  0.2058
23057W        W42591   2.262   4.111  14.457 -0.3023  0.0641 -0.3257
23058W        W42592   3.583   5.558  11.624  0.1086  0.0200  0.0798
23059W        W42593  15.630  12.125   2.169 -0.1459 -0.1930  0.0211
23060W        W42594   7.767  11.067  12.748  0.0355  0.0973  0.0014
23061W        W42595  10.688   9.058  13.656 -0.3045 -0.0599  0.1428
23062W        W42596  13.539   7.002  14.502  0.1122 -0.2573  0.3449
23063W        W42597   6.855   9.695  12.064  0.0329  0.0300  0.0490
23064W        W42598   8.094   6.413  12.094  0.0799 -0.2843  0.0883
23065W        W42599   8.872   2.672  14.440 -0.1702  0.0423  0.1291
23066W        W42600  11.317   8.128   1.941  0.0533 -0.2329 -0.1017
23067W        W42601   8.633  11.771   2.433  0.0918  0.0306  0.0865
23068W        W42602  10.305  11.030   0.568 -0.2604 -0.1145 -0.0855
23069W        W42603  17.551   3.224  11.518  0.0882  0.2264 -0.0318
23070W        W42604  15.355   3.748  10.721  0.1958  0.1271  0.1128
23071W        W42605  13.611   1.647  11.241  0.1405 -0.0180  0.3742
23072W        W42606  17.220  10.341   4.280 -0.0204  0.1633  0.0050
23073W        W42607   1.778   4.437   0.907 -0.2594  0.3014  0.3024
23074W        W42608   1.520  11.668   3.878 -0.2166 -0.2893  0.0139
23075W        W42609   4.555  12.942   1.719  0.0527 -0.0160 -0.0942
23076W        W42610  12.670  12.925   9.691  0.2121 -0.1378  0.1448
23077W        W42611  10.603  12.118   1.322  0.2654 -0.3228  0.0155
23078W        W42612  18.139  13.922  14.560 -0.0498 -0.0699 -0.0856
23079W        W42613   7.107  19.107  13.940 -0.3833  0.0082 -0.2557
23080W        W42614  14.675   1.919   0.656  0.0375 -0.3362  0.1327
23081W        W42615   1.697  10.693   0.450  0.0499  0.1369 -0.0548
23082W        W42616   3.433   9.607   1.941 -0.2966 -0.0623  0.3978
23083W        W42617  13.844  13.278  14.285 -0.1057 -0.1593 -0.1791
23084W        W42618  11.916   5.459  11.469  0.1974  0.0210  0.2093
23085W        W42619  17.008  15.094   3.919  0.3514 -0.3301 -0.2575
23086W        W42620   9.505   3.835  13.261 -0.1026 -0.0050 -0.0095
23087W        W42621  10.967   2.269   1.447  0.0348  0.0423 -0.1200
23088W        W42622   5.796   9.609  14.262  0.1549  0.2779  0.3295
23089W        W42623   3.668   6.034  13.781  0.0522 -0.2092 -0.0704
23090W        W42624   2.426  18.197  10.236 -0.2360  0.0542  0.0607
23091W        W42625  15.547  18.422   4.377 -0.1205  0.1394 -0.0451
23092W        W42626   0.601   5.874  14.200 -0.0684 -0.3031  0.0371
23093W        W42627  17.138  12.705   3.668 -0.2426 -0.3070  0.0980
23094W        W42628   2.577   5.444   0.830 -0.1208 -0.0192 -0.0543
23095W        W42629   5.742   9.233   2.361  0.0460 -0.1689  0.0188
23096W        W42630   5.005  14.244  13.761 -0.2091 -0.2133  0.2934
23097W        W42631  17.272  13.781  11.257  0.1447  0.0224 -0.1240
23098W        W42632  12.133  11.837  10.739  0.2162  0.0595  0.1235
23099W        W42633  10.948  10.884   4.167 -0.1278 -0.1268 -0.2917
23100W        W42634   2.989   6.827  11.084  0.3513 -0.1105 -0.0616
23101W        W42635   7.299  18.667  14.502  0.1897 -0.0329 -0.3512
23102W        W42636  11.408   4.057   0.397  0.0028  0.1652 -0.2481
23103W        W42637   9.308   6.366   0.631 -0.1276  0.0512 -0.0847
23104W        W42638  11.893  11.281  14.537 -0.3227 -0.5227  0.1015
23105W        W42639  16.553  14.317  13.057 -0.3135  0.1953 -0.5018
23106W        W42640  10.565   5.128   1.830 -0.0154  0.1195  0.1899
23107W        W42641  12.888  13.700  14.522  0.0071  0.0902  0.0913
23108W        W42642  15.078   9.301   2.572  0.0321  0.1413 -0.0964
23109W        W42643   2.934  14.797   2.345  0.0398  0.1850 -0.0523
23110W        W42644  12.856   1.110   2.942 -0.2744 -0.3655  0.0013
23111W        W42645  10.407  12.132   1.845  0.1383  0.0467 -0.3877
23112W        W42646   1.191  16.524   4.400 -0.1072  0.2316  0.2336
23113W        W42647   0.052  17.587   1.790 -0.1075  0.0182  0.0194
23114W        W42648   5.578   5.649  10.251 -0.2416  0.3103 -0.3713
23115W        W42649  11.462  11.097  14.034  0.1398 -0.0284  0.0216
23116W        W42650   5.906  10.687   9.539 -0.1269 -0.0065 -0.0186
23117W        W42651   6.348  14.676   4.128  0.1582  0.1537  0.2679
23118W        W42652   2.315  15.380   0.256  0.3982  0.0576  0.3827
23119W        W42653  13.797  10.638  13.050 -0.1031 -0.0322  0.1025
23120W        W42654   3.236  14.531   2.738  0.1769  0.0659  0.2686
23121W        W42655  18.206  16.770   3.424 -0.1947 -0.0450 -0.1096
23122W        W42656  18.102  15.973   4.092  0.0305  0.1472  0.0385
23123W        W42657   8.532   9.032  10.977  0.4399  0.0750  0.0419
23124W        W42658   2.822   7.169  14.654  0.0425 -0.0441  0.2196
23125W        W42659  11.352   3.066   2.857  0.3314 -0.1121 -0.2179
23126W        W42660  10.768   1.063   4.493 -0.1495 -0.3599 -0.0245
23127W        W42661   6.337  10.900   3.042  0.2100  0.0276 -0.0886
23128W        W42662  18.040  13.998  13.366  0.1923  0.0006  0.0519
23129W        W42663  16.180   2.070   0.186  0.1894 -0.3610 -0.1587
23130W        W42664  14.848   5.827   0.859 -0.2810 -0.0345  0.1346
23131W        W42665   3.141  17.393  12.920  0.0807  0.3009 -0.1950
23132W        W42666   2.014   1.016  13.015 -0.1324 -0.0026 -0.1985
23133W        W42667   2.309  11.488  11.365 -0.0107  0.3811  0.1732
23134W        W42668   0.035  14.939   0.635  0.0752  0.1980 -0.0234
23135W        W42669  16.085   0.557   3.259 -0.3608 -0.2051  0.1541
23136W        W42670   3.547   1.281   2.782 -0.0844  0.1769 -0.4428
23137W        W42671  17.705  17.679  12.640  0.0006 -0.1201  0.1498
23138W        W42672   4.464   8.979   1.223 -0.1130 -0.0066 -0.1160
23139W        W42673  13.850   9.725   2.024  0.1517 -0.1070  0.1251
23140W        W42674   4.263   9.564   2.590 -0.1946 -0.3572 -0.2084
23141W        W42675   8.428  12.936   3.993 -0.1226  0.1502  0.0806
23142W        W42676   3.463   7.617   0.686  0.2608  0.0447 -0.1326
23143W        W42677   2.678  12.457   9.970  0.0496 -0.0676  0.0922
23144W        W42678  15.519   4.406   2.978  0.1936  0.1573 -0.2327
23145W        W42679  17.453  13.354  13.417 -0.2283  0.3121 -0.1054
23146W        W42680   2.482  13.919   0.116 -0.0809 -0.0510 -0.1194
23147W        W42681  16.395   1.874  13.040 -0.1557  0.2029  0.1738
23148W        W42682   3.872  12.390   0.961 -0.0316 -0.1075 -0.0585
23149W        W42683  12.144   5.331   3.636 -0.0275 -0.0165  0.0588
23150W        W42684  11.226   4.151  14.731  0.1745 -0.0954  0.1755
23151W        W42685  10.911  15.291   0.403 -0.1591 -0.2030 -0.7169
23152W        W42686   4.755   5.939  14.183  0.1149 -0.1301 -0.1465
23153W        W42687   3.713   4.299  11.892  0.2799  0.0352  0.0456
23154W        W42688   2.418   2.238   4.032  0.0042 -0.0406  0.1756
23155W        W42689   0.394   0.409   9.824 -0.0739 -0.2294 -0.1053
23156W        W42690   1.929  13.351   3.983  0.0414  0.0415  0.0392
23157W        W42691   1.216   6.667   3.761 -0.0336  0.2735 -0.1108
23158W        W42692  13.873  14.804  12.514 -0.1610 -0.0904 -0.1519
23159W        W42693  17.620   2.782   3.105  0.1059  0.1744 -0.1190
23160W        W42694  14.205  11.705  12.994  0.0439 -0.3129  0.1633
23161W        W42695  18.767  18.023   3.913 -0.0749  0.1349  0.2883
23162W        W42696   0.667   5.310  14.207 -0.1591 -0.4442 -0.1543
23163W        W42697  12.747   4.781  11.981  0.0170  0.1075  0.3475
23164W        W42698   9.209   0.050  12.741  0.0560 -0.0170  0.0641
23165W        W42699   9.839  16.422   0.834 -0.2544  0.2416  0.1261
23166W        W42700  18.714   9.534  11.461 -0.0763  0.0818  0.2150
23167W        W42701  10.167  13.016   0.261 -0.0502  0.1123 -0.1572
23168W        W42702  13.375  15.485   3.793  0.1799  0.1164  0.1821
23169W        W42703  17.930  19.023  12.676  0.0363  0.3267  0.1844
23170W        W42704   8.442  11.754  13.771  0.0819 -0.1604  0.3430
23171W        W42705  18.702   4.062  14.304  0.0102 -0.1002  0.2055
23172W        W42706  19.058   2.651   3.390  0.0635 -0.1959  0.0488
23173W        W42707  15.963  18.731   4.141 -0.1620 -0.3850  0.0160
23174W        W42708   5.589   8.623  12.363 -0.0152 -0.0844 -0.1379
23175W        W42709  17.424  19.094   0.964  0.0524  0.1340  0.0263
23176W        W42710  10.222  10.794   1.003 -0.1108 -0.0286  0.0346
23177W        W42711  16.685   6.525   1.624 -0.0273 -0.1717 -0.4380
23178W        W42712   6.254   4.724  13.568  0.2955  0.1100 -0.1804
23179W        W42713  17.904   0.324   1.763 -0.1548  0.2519 -0.0451
23180W        W42714   7.556  11.709  14.110 -0.1573 -0.2041 -0.3336
23181W        W42715   9.181   3.115  13.835  0.1870  0.0773 -0.0128
23182W        W42716  16.480  14.634  14.218 -0.1565  0.1683 -0.0190
23183W        W42717  14.473  17.281   3.535 -0.0599 -0.0043 -0.1921
23184W        W42718   7.988  16.359  11.699  0.2641 -0.0543 -0.0467
23185W        W42719   3.079   7.347   3.556  0.3179 -0.4809 -0.0804
23186W        W42720  11.393  17.689  14.515  0.0304  0.1041 -0.1867
23187W        W42721  17.289  16.878  13.336  0.1370 -0.0150 -0.1118
23188W        W42722  10.921  12.570   2.942  0.1738  0.3169  0.1133
23189W        W42723   2.462   5.055  14.782 -0.1554 -0.1584  0.2754
23190W        W42724   1.367  12.960   1.689 -0.3043  0.3270  0.1111
23191W        W42725   5.770   9.680  10.721  0.1657 -0.1974 -0.1702
23192W        W42726   3.301  14.495   0.614  0.0054  0.0562 -0.0476
23193W        W42727  17.418  14.218   1.279  0.3492 -0.0643 -0.1967
23194W        W42728  18.594   8.844  13.929  0.0775  0.0338 -0.0076
23195W        W42729  14.353  13.555   4.191 -0.1871  0.1103  0.1697
23196W        W42730   6.177  18.421   2.481  0.0611  0.0064 -0.0326
23197W        W42731  16.469   1.997   4.170 -0.2564  0.2759  0.1770
23198W        W42732  18.638   7.975   2.427  0.0979  0.0353 -0.0325
23199W        W42733  10.524   5.614   2.545 -0.0839  0.0174 -0.1629
23200W        W42734   6.964   7.989   2.019  0.0812  0.0585  0.0369
23201W        W42735   1.339   7.303  13.948  0.2309  0.1154  0.1525
23202W        W42736   2.640   9.143  12.713  0.0162  0.1948  0.2714
23203W        W42737  16.568   2.257  12.741 -0.0179 -0.2068  0.0332
23204W        W42738  14.321   3.642   3.074  0.3373 -0.0030 -0.0730
23205W        W42739  17.403   3.325  14.425 -0.2578  0.0076 -0.0084
23206W        W42740  10.350   7.312   2.420 -0.2176 -0.1329 -0.0959
23207W        W42741   5.044  12.031  13.842  0.2537 -0.0730 -0.0703
23208W        W42742   7.756  14.539   1.418  0.2602 -0.0340 -0.0804
23209W        W42743  15.284  12.743   0.085  0.1805 -0.0058  0.1514
23210W        W42744   2.064  13.824   4.263  0.3564 -0.3170  0.1546
23211W        W42745   2.278   2.374   1.046  0.1191  0.1766  0.0882
23212W        W42746   4.657   2.616   1.882  0.1062  0.0715  0.2710
23213W        W42747  14.142   2.746   4.299 -0.3577 -0.1627  0.1780
23214W        W42748  14.945  18.371  14.557 -0.3289 -0.0109  0.0535
23215W        W42749  15.503  15.525  13.875  0.1790 -0.1602  0.0022
23216W        W42750  17.125  18.955  13.057 -0.1227 -0.0297  0.1112
23217W        W42751   3.072   7.232   1.536  0.0669  0.0533 -0.0776
23218W        W42752  13.065  10.970   3.564 -0.1540  0.0376 -0.3586
23219W        W42753   8.235  18.023  12.273  0.3723  0.0779  0.1661
23220W        W42754  10.212   6.010   2.616  0.0296 -0.2827 -0.4791
23221W        W42755   9.043   4.168   3.014 -0.0467 -0.3252  0.0713
23222W        W42756  12.373   5.993  14.038  0.1051  0.0586 -0.1582
23223W        W42757   0.714   6.876  14.337  0.0424 -0.1565  0.2789
23224W        W42758  10.983  16.423   2.349  0.4327 -0.0065 -0.1163
23225W        W42759  12.416  10.094  13.845  0.0419  0.3607 -0.2492
23226W        W42760  12.903  19.051  11.343 -0.2514 -0.0226  0.0641
23227W        W42761   9.989   0.312  12.378  0.0579  0.1639  0.0046
23228W        W42762   9.564  10.028   3.852  0.0535 -0.2802  0.1805
23229W        W42763   2.299  16.537   2.180  0.1042 -0.2337  0.0791
23230W        W42764  14.167  19.063  12.278  0.2577  0.2293 -0.3539
23231W        W42765   6.938  14.229   3.691 -0.2152  0.1355 -0.0159
23232W        W42766  10.938   3.215   0.093 -0.2416 -0.1846 -0.0669
23233W        W42767  14.459  10.889   0.605  0.2635  0.2393 -0.2364
23234W        W42768   0.192   8.115   3.231 -0.0524  0.0376  0.2093
23235W        W42769  16.074   9.589   3.612 -0.3254 -0.0419 -0.2176
23236W        W42770   1.247  15.889   0.039 -0.1144 -0.0823  0.0355
23237W        W42771   7.103  18.298   2.317 -0.0415 -0.0821  0.0204
23238W        W42772   1.191   0.869   0.142 -0.1133  0.0839 -0.2460
23239W        W42773  14.103   6.628  10.998 -0.2074  0.0466 -0.1691
23240W        W42774  16.128  11.379  13.102  0.2310  0.0340 -0.2019
23241W        W42775   6.809  10.592  13.563  0.0849  0.1303  0.0201
23242W        W42776   3.984  17.046  12.725 -0.1111  0.0445  0.1455
23243W        W42777   3.227  15.539  12.722  0.1237  0.1380  0.0822
23244W        W42778  12.231   1.757  14.615 -0.0378 -0.0811  0.0887
23245W        W42779   4.070  11.970  12.279 -0.0912  0.2802  0.6023
23246W        W42780  10.855   2.879  14.523 -0.1526 -0.0693 -0.0699
23247W        W42781  13.295  14.153  14.601 -0.1026 -0.1209  0.1645
23248W        W42782  16.941   5.268   4.101  0.1328 -0.2575 -0.0867
23249W        W42783   9.572   1.949  13.721 -0.2263  0.1633  0.1969
23250W        W42784  14.497   8.423   3.050  0.0715  0.1107 -0.2997
23251W        W42785  15.114  17.030   2.590 -0.2695 -0.1801 -0.3330
23252W        W42786   2.611   9.853   0.443  0.1759 -0.3787 -0.0145
23253W        W42787  11.334  17.756  14.065  0.0716  0.2244 -0.1338
23254W        W42788  11.357   1.066   0.181 -0.0169 -0.0152  0.1058
23255W        W42789   1.764   6.818   1.866 -0.0722  0.0344 -0.0479
23256W        W42790   6.655   7.066   1.018 -0.1668  0.2558  0.0603
23257W        W42791  10.407  18.548   1.396 -0.0374  0.3531  0.1330
23258W        W42792   4.540  18.108  13.506  0.1114 -0.2433  0.0320
23259W        W42793  16.359  11.260  10.656 -0.0391 -0.1194  0.4627
23260W        W42794   3.511  11.905   5.915 -0.1238 -0.1842  0.1269
23261W        W42795  10.995  11.940  13.772 -0.3401 -0.1804  0.1186
23262W        W42796   0.161  17.285   5.093  0.1140 -0.0283  0.0284
23263W        W42797  11.876   6.345   1.472 -0.1980  0.0801 -0.1082
23264W        W42798   6.295  18.401  14.805 -0.2113 -0.3009 -0.0993
23265W        W42799   3.472   9.419  12.505  0.1379 -0.1056  0.2460
23266W        W42800   4.093   9.311   3.331 -0.0493  0.0005  0.1952
23267W        W42801   1.403  19.052   1.776  0.1161  0.2539  0.4418
23268W        W42802  18.338   6.956  11.866  0.2685 -0.1404  0.3655
23269W        W42803  16.334  10.341  10.276 -0.2426  0.2875 -0.0981
23270W        W42804  10.425   4.554  10.812 -0.0386  0.2027 -0.1406
23271W        W42805  14.877  16.220   4.363  0.0773  0.4769 -0.1336
23272W        W42806  10.818   5.193  11.159 -0.2310  0.1098 -0.0823
23273W        W42807   4.839   7.956  10.729 -0.0020  0.1452 -0.3408
23274W        W42808   0.540  16.928  12.442 -0.1238  0.1321  0.0923
23275W        W42809   5.021  18.933  12.333  0.0730  0.0389  0.0082
23276W        W42810  12.397  17.703   0.635  0.1258  0.2165  0.3271
23277W        W42811  13.899   7.384  14.490 -0.0938  0.0619  0.1715
23278W        W42812   8.383   1.277   0.648 -0.2728 -0.3661  0.1414
23279W        W42813  15.822  12.745  11.137 -0.1101 -0.1916 -0.1589
23280W        W42814  14.849  17.173   0.337  0.2356  0.0678  0.1515
23281W        W42815  16.539  13.920  11.199  0.1656 -0.0625  0.0698
23282W        W42816   6.861   0.162   0.009  0.0035 -0.0890 -0.2301
23283W        W42817  15.522   1.813  13.867 -0.0532  0.1208 -0.3071
23284W        W42818  17.474   6.048   3.030 -0.3525 -0.2975  0.0886
23285W        W42819   2.114   6.621   2.992  0.2322  0.0596 -0.2585
23286W        W42820   2.044   1.557  10.707 -0.0858 -0.2111  0.0707
23287W        W42821  15.614  15.520   0.441 -0.0239  0.0115 -0.0408
23288W        W42822  16.217  12.149   2.107  0.1085  0.1907  0.2434
23289W        W42823  16.027   9.911   0.588 -0.0995 -0.0956  0.1227
23290W        W42824  16.275   9.307   4.045  0.1764  0.1416  0.0310
23291W        W42825   8.517   0.590  12.647 -0.4196 -0.0695  0.1666
23292W        W42826  17.023  14.442   1.113  0.1360  0.1593 -0.0686
23293W        W42827  13.663  12.243  10.322  0.0335  0.2171  0.1619
23294W        W42828   6.518   9.590   1.804 -0.0103 -0.1739  0.0488
23295W        W42829   7.193   2.983  10.181 -0.0715 -0.0369 -0.0718
23296W        W42830   2.301  11.823   3.225  0.1642 -0.1985  0.1500
23297W        W42831   3.525  15.361  11.848  0.1740 -0.1549 -0.3546
23298W        W42832   1.107  15.013  12.992  0.0697  0.3881  0.1442
23299W        W42833   3.670   3.579   2.882 -0.3455  0.0908 -0.1664
23300W        W42834  12.963   9.423  14.642  0.3795  0.1203 -0.0596
23301W        W42835  16.711   0.300   3.846  0.0968 -0.1759 -0.1747
23302W        W42836  18.343  10.798   3.863  0.0239  0.4547 -0.3964
23303W        W42837   5.862   8.408   0.007 -0.1461  0.2561 -0.0507
23304W        W42838  16.535   8.091   0.063 -0.3441 -0.0670 -0.0201
23305W        W42839  12.655  15.115  13.177  0.1335  0.1553  0.0219
23306W        W42840   3.933  13.764  11.458 -0.2148  0.0341 -0.1532
23307W        W42841   0.592  18.032  14.252  0.1588 -0.2103  0.2160
23308W        W42842   7.896   2.985  11.179  0.0585  0.0820 -0.1602
23309W        W42843  14.758  12.235   0.695 -0.0420  0.0904  0.0695
23310W        W42844   2.886  11.500   4.114  0.2173 -0.0033  0.1043
23311W        W42845  15.145  15.817   1.832  0.2799  0.1308 -0.1046
23312W        W42846   3.380   3.533  11.392  0.0240  0.0313 -0.1242
23313W        W42847  12.005  13.346  10.924 -0.0824  0.0437 -0.1640
23314W        W42848   2.592   1.493  13.237  0.1447  0.0670 -0.3322
23315W        W42849  16.767  16.968  13.473  0.1129  0.0222  0.0559
23316W        W42850   3.180   7.371  10.887 -0.0625 -0.0662 -0.2432
23317W        W42851   6.773   6.006   3.341 -0.0404 -0.0801 -0.0490
23318W        W42852   4.757   5.484   3.493  0.3242  0.2345 -0.1431
23319W        W42853  11.417   7.207   1.873 -0.0053 -0.1630  0.2144
23320W        W42854  12.080  19.074   2.046  0.0758 -0.0109  0.2495
23321W        W42855  18.825   4.419   2.763  0.2070  0.0048  0.0685
23322W        W42856  14.502   1.204  12.369  0.1478  0.2325  0.1349
23323W        W42857   4.820  16.006  13.104  0.3388 -0.0752 -0.0452
23324W        W42858   2.181  17.641   1.654  0.2597  0.1048  0.2495
23325W        W42859   9.707  16.904   4.644 -0.0725  0.1107  0.1122
23326W        W42860  11.981   7.824   1.066  0.2184 -0.2633 -0.0572
23327W        W42861   3.082   7.555   1.119  0.0637  0.2178 -0.1666
23328W        W42862  10.255   9.432  10.478  0.2120 -0.3758  0.0155
23329W        W42863  18.984   5.849   0.911 -0.0866  0.2296  0.1215
23330W        W42864  18.213  15.648   2.621  0.0220  0.0028  0.1257
23331W        W42865   2.801   8.194  12.556  0.0652 -0.3520 -0.3933
23332W        W42866  16.015   2.487   0.098  0.0367  0.0629  0.1960
23333W        W42867  11.970   1.239  11.943  0.1699 -0.0115  0.1338
23334W        W42868   1.879  18.658  12.493 -0.0080 -0.0818 -0.2658
23335W        W42869  18.587  15.816   0.773 -0.0033 -0.1435  0.1115
23336W        W42870   3.332  18.300   4.081  0.2258  0.0290  0.1281
23337W        W42871   3.984  14.004   0.238  0.2157 -0.0866 -0.2009
23338W        W42872  15.109  16.496   0.916  0.0660  0.0966  0.0978
23339W        W42873   3.316   6.535  14.113 -0.0579  0.3076 -0.0301
23340W        W42874   0.931  15.333   4.146 -0.1742  0.1677 -0.0515
23341W        W42875  14.269   2.501  13.747 -0.0196 -0.0179 -0.1453
23342W        W42876   2.249   0.476   0.027 -0.0509  0.0208  0.0563
23343W        W42877   1.428   2.688   3.348  0.1688  0.1616  0.0133
23344W        W42878   6.847   1.539  13.049 -0.1813  0.3064  0.1351
23345W        W42879  11.449   4.881   0.261  0.5400 -0.0202  0.1742
23346W        W42880   9.889   6.603   3.209  0.1825 -0.1060  0.0554
23347W        W42881   2.412   0.152   2.304  0.0597 -0.1120  0.1432
23348W        W42882   9.624   0.894  12.437 -0.0739 -0.1370  0.2621
23349W        W42883  19.104   5.511  13.347 -0.1786  0.0634  0.2077
23350W        W42884   1.233  16.051   2.137  0.0716  0.1738  0.0149
23351W        W42885   3.907  14.778   0.002  0.0342  0.3448  0.0724
23352W        W42886   4.726  15.814  13.610 -0.0611  0.2112 -0.2374
23353W        W42887   3.892  16.097   0.988 -0.0375 -0.4261  0.0057
23354W        W42888   8.320  13.279  12.194 -0.0738  0.2254 -0.3965
23355W        W42889   5.881  16.598  13.306 -0.0823 -0.3800  0.2164
23356W        W42890   0.265   8.303   2.258 -0.1232  0.1517  0.1125
23357W        W42891  13.977  16.387  13.706  0.1448 -0.0605 -0.1246
23358W        W42892  11.196   6.819   2.200  0.0796  0.1792  0.0628
23359W        W42893  12.548   9.443   0.198 -0.1282  0.1948  0.0324
23360W        W42894   4.762  18.048   2.037 -0.1547  0.1106  0.1192
23361W        W42895  10.745  10.330   3.883 -0.0816 -0.1652 -0.5080
23362W        W42896  13.213   5.026  12.053  0.2222 -0.1319 -0.0629
23363W        W42897   7.157   3.084   0.073  0.2602 -0.1020  0.1360
23364W        W42898   2.543  15.552   2.923 -0.0580  0.1378  0.0068
23365W        W42899  13.023   7.222  14.686  0.2245  0.4059 -0.2429
23366W        W42900  12.965   7.005   2.118 -0.2547  0.2017  0.1551
23367W        W42901  17.441   4.867   3.763 -0.2785  0.0439  0.1060
23368W        W42902  16.486  12.569  10.441 -0.0863  0.0034  0.3303
23369W        W42903  12.714  10.492   4.345 -0.0309  0.4253 -0.0160
23370W        W42904   8.230  17.274  13.669 -0.3100  0.2825  0.0318
23371W        W42905   7.103   0.604  11.217  0.0548  0.0418  0.2305
23372W        W42906  17.307  13.102   2.061  0.3174  0.3570  0.0163
23373W        W42907  14.631   3.812   0.263  0.0224  0.2637 -0.3459
23374W        W42908  16.317  18.474   3.959 -0.2377  0.2029  0.1011
23375W        W42909  16.658  15.744  13.684 -0.1202  0.0189  0.2401
23376W        W42910  12.565  14.482   4.228 -0.2762 -0.1110  0.1385
23377W        W42911  15.013  14.972   0.241  0.0948  0.2293  0.1862
23378W        W42912  19.122  15.556  14.046  0.2547 -0.2159 -0.1802
23379W        W42913   3.253  13.818  13.869 -0.2263  0.0318 -0.0453
23380W        W42914  18.376   8.760  12.656 -0.2201 -0.1802 -0.0208
23381W        W42915   7.009   0.646  14.470 -0.2018 -0.0229 -0.1513
23382W        W42916  18.424   0.765  14.791 -0.0510 -0.2313  0.0574
23383W        W42917  13.574   7.541   1.802  0.1111 -0.0606 -0.1110
23384W        W42918   9.636  13.577   0.696 -0.0761  0.1402  0.0851
23385W        W42919  18.917   9.965  12.209 -0.2593 -0.4052  0.1090
23386W        W42920  15.260  16.477   3.498  0.1476 -0.0547  0.1593
23387W        W42921  18.713   1.986  13.410  0.2067  0.3725 -0.1500
23388W        W42922   5.356   4.183   1.096  0.3374  0.1564 -0.1061
23389W        W42923  15.305  14.543   3.094 -0.2041 -0.1897  0.4145
23390W        W42924  15.920   2.690  13.563  0.1457  0.1354  0.1565
23391W        W42925   0.945  16.107  13.114 -0.0077  0.1256 -0.3156
23392W        W42926  15.071   5.615   2.152 -0.2165 -0.0920  0.2936
23393W        W42927   4.543   0.755  14.796  0.0927 -0.1844 -0.0680
23394W        W42928   8.745   4.192  13.871  0.1662  0.0400 -0.4971
23395W        W42929   9.285   9.908  14.486 -0.4131  0.0422  0.1446
23396W        W42930  10.867  10.644   1.823  0.1466 -0.0377  0.2782
23397W        W42931   0.245   8.287  13.064  0.2856 -0.0169  0.2392
23398W        W42932  18.715  11.552   2.201 -0.1082  0.0916  0.0875
23399W        W42933   4.026  14.141  12.820 -0.1571  0.0188 -0.3072
23400W        W42934   8.073   0.606  13.351 -0.2994  0.3486  0.0180
23401W        W42935  12.476   4.286  13.643 -0.1698  0.1857  0.0742
23402W        W42936  12.638  12.526   3.956  0.0705 -0.0195 -0.2099
23403W        W42937  14.014   5.503  10.396  0.0051  0.2274 -0.1622
23404W        W42938  12.144   1.369  12.371  0.0299  0.1059 -0.0850
23405W        W42939   8.654  15.280   2.127  0.3247  0.0909 -0.1975
23406W        W42940  12.991   0.702  14.699  0.0484  0.0729 -0.0566
23407W        W42941   5.277   8.711  11.633 -0.1042 -0.2131 -0.0832
23408W        W42942  14.318  14.310   3.654 -0.1688  0.2870 -0.1458
23409W        W42943  11.046   8.734  14.629 -0.3526 -0.1213  0.2031
23410W        W42944  14.156  16.971  14.561 -0.0540  0.1925 -0.0514
23411W        W42945  15.301   2.092  11.565  0.1456 -0.0539  0.4123
23412W        W42946   1.830  16.053  12.800  0.0851 -0.3351  0.0664
23413W        W42947  18.562   0.504  12.808  0.0081 -0.1582  0.2286
23414W        W42948  15.290   2.398   0.192  0.0869 -0.3117  0.0224
23415W        W42949   6.364   4.309   3.553 -0.3266  0.1187 -0.3098
23416W        W42950  11.457   4.503   3.150  0.3029 -0.0311  0.3489
23417W        W42951   6.625   8.291   1.728  0.0368 -0.0210 -0.2203
23418W        W42952   5.925  16.437  12.417  0.0006 -0.0503  0.0879
23419W        W42953  15.331  17.865  13.922 -0.0575 -0.0625  0.1226
23420W        W42954  13.865   1.838   0.474 -0.1794  0.1528 -0.1462
23421W        W42955  13.897  17.263  12.017 -0.2561 -0.0988  0.0052
23422W        W42956  14.388   9.945  13.536  0.4557 -0.2129 -0.0974
23423W        W42957   5.328  17.975   1.986 -0.0144  0.1948  0.0923
23424W        W42958   8.191   2.851  13.282 -0.3814  0.4049  0.2600
23425W        W42959   4.981   7.883   2.470  0.0491 -0.2622 -0.2170
23426W        W42960  11.053   1.347  11.502  0.1065  0.0284 -0.1319
23427W        W42961  16.162  11.984   0.461 -0.2716  0.0889  0.3690
23428W        W42962  11.331   6.980  12.025 -0.1020 -0.3789 -0.0410
23429W        W42963  18.614   8.622   4.305  0.1623 -0.3961  0.2838
23430W        W42964  15.158  16.256  13.179  0.3598 -0.0436  0.1539
23431W        W42965   9.702  11.783  12.334 -0.0160  0.1357 -0.3811
23432W        W42966   0.108  11.740   0.818 -0.1589 -0.2141  0.2400
23433W        W42967   3.628  15.963   1.375 -0.3852  0.2904  0.0085
23434W        W42968   4.665  11.076  12.270 -0.0046 -0.0933 -0.0217
23435W        W42969  12.683   4.655  14.600 -0.3261  0.2759  0.0461
23436W        W42970  13.695  15.096   3.730 -0.0639  0.0390  0.1189
23437W        W42971   8.221   0.347   3.896  0.0585 -0.0978  0.0640
23438W        W42972   4.211   6.322   0.507  0.0673  0.0858  0.1251
23439W        W42973  17.328   1.166   2.216  0.0947 -0.0567  0.0431
23440W        W42974  15.131   4.047   0.939  0.0050  0.3142 -0.1756
23441W        W42975   6.333  18.569  14.293 -0.0485  0.2056 -0.0707
23442W        W42976   3.747   8.288  13.263  0.2231 -0.1110 -0.0623
23443W        W42977  12.612  18.335  13.447  0.0966  0.2041  0.1339
23444W        W42978  12.581  10.224   2.409 -0.1790 -0.1902  0.3131
23445W        W42979  14.083   3.475   2.522 -0.2591  0.1142  0.0658
23446W        W42980  16.106   8.259  10.492  0.2085 -0.0657 -0.0356
23447W        W42981   9.245   7.748  11.514 -0.3076  0.1708 -0.0211
23448W        W42982   5.880  18.325   3.889 -0.1269  0.2274  0.0462
23449W        W42983   1.977  14.261  13.396  0.1577  0.0931  0.0106
23450W        W42984   3.257  12.458   3.172  0.1613 -0.1965  0.2474
23451W        W42985   1.078  16.077   2.802 -0.1854 -0.0639  0.0113
23452W        W42986   4.171   5.908   1.379  0.0557 -0.0868  0.1950
23453W        W42987  13.556   8.297   2.948  0.2521 -0.0869 -0.1794
23454W        W42988   1.487  16.982   1.847 -0.0234  0.1828  0.3256
23455W        W42989  11.809   2.859   2.955 -0.0916  0.0466  0.0579
23456W        W42990  13.640   8.940   0.706 -0.0769 -0.0275  0.0969
23457W        W42991  10.408   8.215   4.163 -0.2282 -0.0343  0.2254
23458W        W42992  15.058   6.021   2.556 -0.0031  0.0020 -0.2056
23459W        W42993  15.656  14.881   3.282  0.3912 -0.2340  0.0301
23460W        W42994   5.576  15.146   3.488  0.0746  0.0801 -0.1041
23461W        W42995  16.941   3.919   3.738 -0.2810 -0.0161 -0.3687
23462W        W42996   1.972  17.204  11.803  0.0048  0.1337 -0.3218
23463W        W42997   6.792   5.969  11.143  0.0185 -0.1837 -0.3476
23464W        W42998   3.072  12.370   3.581  0.1912  0.0925  0.1088
23465W        W42999   3.890  10.048   0.570 -0.0706  0.0794  0.2352
23466W        W43000  13.152  14.056   0.817  0.1098  0.0113 -0.1730
23467W        W43001   8.002  18.415  13.634  0.2941  0.4827 -0.1075
23468W        W43002   3.004  11.531   3.584  0.1937  0.5079 -0.0952
23469W        W43003  13.726   4.304   2.523  0.2287 -0.2413 -0.1353
23470W        W43004  13.569   0.703   2.472  0.0483  0.4328 -0.1488
23471W        W43005  16.339   6.462  12.137 -0.0999  0.0459 -0.0748
23472W        W43006   3.113  11.210   5.099 -0.2264 -0.0890  0.3822
23473W        W43007  11.373  18.771   4.626 -0.0466 -0.3004 -0.0934
23474W        W43008   1.608   8.936   2.587  0.2881  0.0470 -0.3376
23475W        W43009  12.958  13.785  12.209  0.0699 -0.0854  0.0748
23476W        W43010  14.829   7.323  11.517 -0.1910 -0.3726  0.1929
23477W        W43011   1.443   6.097   3.664 -0.4035  0.1041  0.1433
23478W        W43012  15.372  16.447   4.283  0.2820  0.0200  0.0219
23479W        W43013  15.110   2.205  12.545  0.0354  0.1527 -0.1991
23480W        W43014  11.692  16.485  11.691  0.1089 -0.0110  0.0764
23481W        W43015   3.071   8.143   0.125  0.2429  0.1748 -0.2811
23482W        W43016   0.177  14.246  13.055 -0.1360 -0.0324 -0.0268
23483W        W43017   2.646  18.024  11.621  0.0982 -0.1860 -0.1727
23484W        W43018  10.854   4.812  12.515  0.0448 -0.0183  0.0907
23485W        W43019   5.483   4.761   1.180  0.1736 -0.0840 -0.0848
23486W        W43020   0.780   9.588   1.625  0.1488 -0.0743  0.3699
23487W        W43021  18.097   1.199   2.696  0.2565  0.0680 -0.2556
23488W        W43022  16.738   4.501  13.864 -0.2075 -0.0837  0.0281
23489W        W43023   5.691   9.060   1.883  0.1814  0.0872  0.0492
23490W        W43024  10.187   4.808   0.018 -0.0141  0.0765  0.1871
23491W        W43025  11.188   8.925  13.763  0.0090  0.2310  0.0733
23492W        W43026   8.385  13.084   1.435 -0.0670 -0.0007  0.0291
23493W        W43027  12.071  16.270   2.605 -0.1126 -0.0913  0.0976
23494W        W43028  17.755   0.722  12.729 -0.0851  0.2506  0.3922
23495W        W43029   1.713   1.236   1.712 -0.0004 -0.0024  0.0339
23496W        W43030  17.296  16.086   0.303 -0.3011  0.0494  0.0282
23497W        W43031  18.659   2.519   9.780  0.2574  0.1693 -0.1524
23498W        W43032  11.630   9.470  14.510 -0.2097 -0.2194 -0.2338
23499W        W43033   2.346   3.876  10.713  0.1102  0.0478  0.0266
23500W        W43034   3.268  18.628  12.893 -0.1764 -0.3615  0.2124
23501W        W43035  18.466  16.650   0.812 -0.1392  0.2424 -0.2032
23502W        W43036  16.822  15.614  13.141  0.1818  0.0464 -0.1516
23503W        W43037  11.991  12.069   3.326 -0.0978  0.0342 -0.2526
23504W        W43038   5.852  12.279   2.041 -0.0731  0.1225 -0.0246
23505W        W43039   6.211  14.871  14.538  0.4057 -0.2604 -0.0259
23506W        W43040  14.854  12.673   1.044 -0.0835 -0.1259 -0.0326
23507W        W43041   9.301   0.364  14.563 -0.1869 -0.0717 -0.0571
23508W        W43042   6.790   0.022   0.561  0.0645 -0.0748  0.0350
23509W        W43043  12.770   0.628   1.844  0.1190 -0.5202 -0.1179
23510W        W43044   6.875  11.888   0.296 -0.0120  0.2646 -0.2191
23511W        W43045   8.746   1.988  13.325  0.0379 -0.2103  0.2509
23512W        W43046   3.974   5.309   0.259 -0.0360  0.0106  0.3672
23513W        W43047  16.066   3.261  13.690 -0.0525 -0.3638 -0.0743
23514W        W43048  16.997   4.296  14.254  0.3468  0.0661 -0.1784
23515W        W43049  10.043   0.231   0.645  0.0124  0.2051 -0.1971
23516W        W43050  16.492   7.756   3.169  0.3273 -0.0229  0.0016
23517W        W43051   6.070   2.716  11.168 -0.2966  0.0873 -0.0321
23518W        W43052   1.259   4.744  14.532 -0.0301  0.0020 -0.2457
23519W        W43053   2.601   6.193  11.527 -0.1949 -0.2489  0.0478
23520W        W43054   1.117   2.623   0.928  0.0980  0.1820 -0.2381
23521W        W43055  12.903  14.579   0.112 -0.3380  0.0449 -0.1068
23522W        W43056   2.974  11.463   2.011  0.3470  0.0279 -0.0806
23523W        W43057  12.511  18.924   3.819  0.3506 -0.1384  0.0078
23524W        W43058  10.982  11.252   3.811 -0.0799 -0.5227 -0.2563
23525W        W43059   1.128  13.989  12.921  0.4109  0.3050  0.0062
23526W        W43060   6.312  10.453  13.397  0.0547 -0.1883  0.4527
23527W        W43061   8.184  15.676   3.121  0.3483  0.1117  0.2298
23528W        W43062  16.697  18.106   3.721 -0.0210  0.3130  0.1521
23529W        W43063   4.991  18.553  14.213 -0.1318 -0.1691  0.1708
23530W        W43064  18.506  13.559   2.934 -0.0261 -0.2716  0.1461
23531W        W43065  10.917   9.895   3.126  0.0665 -0.2108 -0.0364
23532W        W43066   5.092   4.527   4.020 -0.1383  0.1253 -0.3380
23533W        W43067  15.787  17.155   3.671 -0.0899  0.1131 -0.0470
23534W        W43068  16.132  18.257   2.956  0.1704  0.0422  0.1547
23535W        W43069   8.873   6.207   3.879 -0.2307 -0.2141  0.0217
23536W        W43070  16.585  18.839  14.356 -0.0086  0.2212 -0.0816
23537W        W43071  10.346   8.159  11.394 -0.1473 -0.0128 -0.1961
23538W        W43072   2.739  17.798  12.077  0.1434 -0.1514 -0.1753
23539W        W43073   7.807   5.011  12.169 -0.0770 -0.1425  0.0753
23540W        W43074  16.312  14.725   3.985 -0.2871  0.0385  0.1061
23541W        W43075   1.519  10.828   1.194  0.3846  0.1670 -0.3017
23542W        W43076  16.391  13.844   4.156 -0.1979 -0.1740  0.0203
23543W        W43077  15.457   1.190   1.667  0.0988  0.0080 -0.1850
23544W        W43078   7.749  12.415  10.937 -0.3317 -0.0191  0.0307
23545W        W43079   9.450   8.124  13.578 -0.0062  0.0775 -0.2579
23546W        W43080  15.964   9.997  10.844 -0.0294  0.2233  0.1129
23547W        W43081  17.812  11.896  14.099  0.0065  0.2219 -0.0304
23548W        W43082   3.470   1.893  11.376 -0.0585 -0.1974 -0.1940
23549W        W43083  10.823   0.282   2.292  0.1451 -0.2612 -0.0077
23550W        W43084  13.288   9.199  13.027 -0.2183  0.0394 -0.0227
23551W        W43085  11.414  12.903  12.686 -0.2327  0.1109  0.0546
23552W        W43086  18.750  10.618   0.900  0.0164 -0.1063  0.3319
23553W        W43087   6.527  13.120  12.993 -0.3298  0.3941 -0.0942
23554W        W43088   2.478   1.224  13.663  0.0830  0.3799  0.1674
23555W        W43089   2.595   5.853  11.909 -0.0950 -0.2954  0.0531
23556W        W43090  13.465  12.384   0.650  0.0053  0.0696  0.3472
23557W        W43091  16.318  17.860  11.322 -0.1113 -0.0177  0.0748
23558W        W43092  17.453   1.559   0.690  0.4048 -0.0554 -0.0367
23559W        W43093  15.329   3.208   0.371 -0.4634 -0.0610  0.0979
23560W        W43094  16.370  12.685   4.591 -0.0353 -0.0411 -0.1174
23561W        W43095   0.181   2.076  13.435 -0.1471  0.0989  0.1091
23562W        W43096  12.284  14.625   5.557  0.1313  0.0815 -0.0549
23563W        W43097  15.048  13.373  13.630  0.4150 -0.3572 -0.2316
23564W        W43098  13.830   8.228   3.405  0.0748  0.0157 -0.0583
23565W        W43099   0.539   5.332  12.338  0.0767  0.1824 -0.2350
23566W        W43100   4.837  14.833   1.898 -0.2355  0.0142 -0.0780
23567W        W43101   8.707  16.731  14.172 -0.3230 -0.1210 -0.0908
23568W        W43102   4.761   5.945   0.687  0.0270  0.2789  0.0705
23569W        W43103  15.234   7.716  11.698 -0.3171  0.1314  0.0056
23570W        W43104  10.055   2.238   3.437 -0.2045  0.0076 -0.4212
23571W        W43105   5.336   5.744   3.404  0.1513 -0.2096  0.1227
23572W        W43106  12.059   7.932   3.146  0.3717  0.0477 -0.0111
23573W        W43107  13.299   5.719  14.399  0.1938  0.0943 -0.2081
23574W        W43108   0.885  14.633  10.785  0.1721 -0.2344  0.0333
23575W        W43109  15.295  16.651  12.103  0.0649 -0.0114 -0.0112
23576W        W43110  13.253   7.477   1.418  0.1545  0.3158 -0.0760
23577W        W43111  10.181   7.176  10.662  0.0566  0.0909  0.1637
23578W        W43112  11.199   7.822  14.643  0.0062  0.1321  0.5202
23579W        W43113   1.067   3.053   1.333 -0.0516 -0.0966 -0.3813
23580W        W43114   0.334   9.713  10.809 -0.2648 -0.3696 -0.2896
23581W        W43115   6.878   8.361   0.337 -0.0080  0.0223  0.0241
23582W        W43116   6.198  18.881  12.088 -0.1222 -0.2742  0.0098
23583W        W43117   7.996   9.919  13.247  0.3073  0.0860  0.4448
23584W        W43118  13.952   1.258  12.517 -0.0995  0.0174 -0.1202
23585W        W43119  16.274   5.003  14.383  0.4058 -0.3961  0.0721
23586W        W43120   7.150  16.299   1.555  0.2030  0.1936 -0.2599
23587W        W43121  11.994   3.251  11.581  0.3352 -0.1740 -0.0002
23588W        W43122   9.635  15.214  13.956 -0.2043  0.1234 -0.0394
23589W        W43123  18.704  11.458   1.705 -0.0919  0.1506  0.0172
23590W        W43124  10.556   9.862  14.690 -0.2879  0.3081  0.1975
23591W        W43125  16.189   2.383  13.909 -0.1642  0.1144  0.3315
23592W        W43126  13.366   2.203   2.941  0.0440 -0.1507  0.1357
23593W        W43127   7.413   1.776  13.197  0.2295 -0.0688  0.0266
23594W        W43128  12.332  16.886   0.845  0.0297  0.0455  0.0992
23595W        W43129   3.310  16.332  11.632 -0.0805  0.0349  0.4112
23596W        W43130   1.996  14.011  12.441  0.1970 -0.1026 -0.1887
23597W        W43131  14.246   0.968  10.894  0.2902 -0.1284 -0.1997
23598W        W43132   3.692   4.715  14.833  0.0881  0.0609 -0.2513
23599W        W43133   2.692   3.874  11.938 -0.1276 -0.1331  0.0170
23600W        W43134  12.930   4.896   1.802  0.2666 -0.1787 -0.2144
23601W        W43135   6.401  15.932   3.745 -0.3292 -0.0998  0.1123
23602W        W43136  13.216   3.570  12.270 -0.1494 -0.0620 -0.0520
23603W        W43137   4.365   3.607  11.486 -0.1513  0.0687  0.1903
23604W        W43138   0.316  13.849   4.282  0.0548  0.2235  0.1548
23605W        W43139   5.329  17.812   0.962 -0.4420 -0.0233 -0.2030
23606W        W43140  12.372   4.083   2.809  0.3419 -0.1029  0.0821
23607W        W43141  12.656   7.543   1.530  0.0961  0.0140  0.3120
23608W        W43142   1.700  10.888   1.682  0.0211  0.4256 -0.0276
23609W        W43143  11.942  19.001  14.200 -0.0244 -0.0075 -0.1431
23610W        W43144   3.412   2.334  13.102  0.1975  0.1872 -0.1052
23611W        W43145   7.813   7.185  11.763  0.1732 -0.1882 -0.0429
23612W        W43146   3.595   9.361   3.576  0.3282  0.0876 -0.0480
23613W        W43147   9.757  14.708   1.739 -0.0046 -0.1259  0.0524
23614W        W43148  10.935  14.447  14.449  0.1181  0.1060 -0.1180
23615W        W43149   6.895   1.295  11.804 -0.0141 -0.0790  0.0938
23616W        W43150  10.482   6.080   1.767 -0.1225  0.1669 -0.2038
23617W        W43151  12.402  15.856  14.019 -0.1989  0.1057  0.0827
23618W        W43152   7.403  16.842   3.344 -0.2076  0.5265 -0.0520
23619W        W43153  14.826   7.283  10.329 -0.0061  0.2326  0.0892
23620W        W43154   5.402  12.545   2.762  0.2615 -0.1046 -0.0700
23621W        W43155  10.895   4.166  11.134 -0.1095 -0.0859  0.1214
23622W        W43156   0.222  11.229  12.571 -0.1289 -0.0484 -0.0909
23623W        W43157  16.967  17.358  12.719 -0.0553  0.1169 -0.0222
23624W        W43158   3.890   1.140   4.066  0.3271  0.0126 -0.4775
23625W        W43159   2.820   0.767   2.728  0.0441  0.1336  0.0755
23626W        W43160  13.766   2.656  11.627 -0.3947 -0.0658 -0.0290
23627W        W43161  12.823   2.135   2.739  0.2193 -0.0629 -0.0027
23628W        W43162   4.321  13.949  14.336  0.1666 -0.2575  0.0674
23629W        W43163  12.873  11.084   2.271  0.0668 -0.0851  0.4691
23630W        W43164   8.061   2.393  13.978  0.1975 -0.1396  0.3284
23631W        W43165   1.417   0.160   0.026 -0.0680 -0.0979  0.2360
23632W        W43166  10.421  17.627   2.589  0.0522  0.0345 -0.2896
23633W        W43167  10.378   2.926   9.861 -0.2769  0.0878 -0.2201
23634W        W43168  17.162  17.821  11.993  0.2896  0.2165 -0.3026
23635W        W43169  16.039   7.357   4.364  0.0891  0.2158  0.0471
23636W        W43170   5.917  17.731  10.909 -0.1203  0.2205 -0.1192
23637W        W43171  12.945   8.808   2.060  0.4084 -0.1908 -0.2297
23638W        W43172   7.179   2.048  14.093  0.1554 -0.3124  0.1198
23639W        W43173   9.544  16.242  13.730 -0.1535  0.2283 -0.2561
23640W        W43174   6.570  13.489   1.762  0.1024  0.2078  0.1087
23641W        W43175   3.080  12.138   1.343  0.1434 -0.2257 -0.0586
23642W        W43176  17.825   8.168  11.338 -0.1446 -0.0583 -0.0802
23643W        W43177   9.835   8.565   2.751 -0.1264 -0.0501 -0.0497
23644W        W43178   9.537   0.652   0.057 -0.0935 -0.0042 -0.0853
23645W        W43179   9.383  15.846  12.525 -0.1650  0.4266  0.1447
23646W        W43180  16.729  13.736   0.752  0.0744  0.0552 -0.0269
23647W        W43181  12.737   6.404  14.734 -0.2735 -0.1830 -0.0308
23648W        W43182  10.296   0.270   1.713 -0.0589 -0.0125 -0.1763
23649W        W43183  14.472   6.480  11.420  0.0938 -0.2387  0.0898
23650W        W43184   8.338  14.123  14.189 -0.0866  0.1959 -0.1267
23651W        W43185  17.468  17.836  13.224 -0.2247  0.0126  0.1936
23652W        W43186  17.366  16.421   3.976 -0.2031  0.1023 -0.0666
23653W        W43187  15.116   8.193   1.322 -0.3407  0.1692 -0.2565
23654W        W43188   0.328   6.967  10.147  0.1781 -0.2773 -0.0029
23655W        W43189  16.310  12.870  10.857 -0.0153  0.0741  0.2053
23656W        W43190  18.969  15.649   0.051  0.2039 -0.0759 -0.0958
23657W        W43191   9.679   5.817   2.791  0.2207 -0.0734  0.0092
23658W        W43192   1.328  13.776   0.236 -0.1133  0.1843  0.0654
23659W        W43193   2.740   2.652   3.844  0.0090  0.4823 -0.2332
23660W        W43194   0.632  13.376   4.175  0.1156 -0.2332  0.0202
23661W        W43195   0.370   8.749   3.979 -0.1085 -0.2838 -0.0707
23662W        W43196  11.055  16.867  12.339  0.2796 -0.0974  0.1999
23663W        W43197  16.113   3.377  10.219 -0.1163  0.0715  0.0399
23664W        W43198   9.867  18.156   3.378 -0.0106 -0.0388  0.0646
23665W        W43199  10.712  12.156   3.730  0.1145  0.2504 -0.0521
23666W        W43200  18.189  18.592  12.502 -0.0688 -0.0449  0.0229
23667W        W43201  14.489  11.779   0.807 -0.0154 -0.0466 -0.0530
23668W        W43202  16.681  17.060   0.379 -0.1958  0.2131  0.0691
23669W        W43203   2.347   6.829  14.435  0.0430  0.0374  0.0320
23670W        W43204   3.342  15.882  11.180 -0.0527 -0.0071  0.0639
23671W        W43205   3.448  16.623  14.596  0.1403 -0.1163 -0.2936
23672W        W43206  18.506  17.758  11.532  0.0529  0.4232  0.0232
23673W        W43207   4.482   2.322  10.253 -0.0206 -0.2121 -0.1503
23674W        W43208  14.920  11.424  12.621 -0.1147  0.0466 -0.2001
23675W        W43209   9.326   6.575  14.158 -0.1113  0.0003 -0.0155
23676W        W43210   0.262   1.606  14.286 -0.4585 -0.2284  0.2696
23677W        W43211  17.886  13.766  13.766  0.1291  0.1173 -0.1220
23678W        W43212  10.700  17.230   5.074 -0.0702 -0.1732  0.1037
23679W        W43213   1.582  10.069   0.022 -0.1506  0.0218  0.1403
23680W        W43214  19.120  13.524  11.875 -0.2639 -0.0876  0.0613
23681W        W43215  15.391  15.796   2.259  0.2161 -0.1172 -0.1217
23682W        W43216   8.725   4.602  11.068 -0.3265 -0.0251 -0.2483
23683W        W43217   5.199   9.047  11.179 -0.1899 -0.1100 -0.0864
23684W        W43218   4.357   9.819   0.806 -0.0367  0.0719  0.1792
23685W        W43219   6.792  11.590   3.668 -0.0108  0.1456 -0.2592
23686W        W43220  11.440  13.994   3.124 -0.3576 -0.1733  0.2913
23687W        W43221  15.833  18.963  13.228 -0.3867  0.0850 -0.1122
23688W        W43222   3.664   7.060   0.818  0.0951  0.1958 -0.1487
23689W        W43223   0.596   2.698  11.506 -0.1503 -0.0770  0.0066
23690W        W43224  16.493   3.001   2.572 -0.2010 -0.0157  0.0634
23691W        W43225   2.558  16.135  13.582  0.2886 -0.1788 -0.1480
23692W        W43226   6.188   7.328  12.429  0.0925  0.1729 -0.0406
23693W        W43227  10.582   8.669   3.227 -0.0639  0.1872  0.0884
23694W        W43228  14.889   4.811   1.990  0.0546 -0.0017 -0.1336
23695W        W43229   8.338   2.663   1.705 -0.0165  0.2870 -0.1533
23696W        W43230   0.578  17.186   2.288  0.4282 -0.0716 -0.3181
23697W        W43231   6.416  10.910   1.712  0.0561  0.0147 -0.1749
23698W        W43232  14.125   9.049   0.710  0.0972  0.0644  0.2215
23699W        W43233   7.985   8.064  13.816 -0.3930 -0.0886  0.0929
23700W        W43234  11.181  11.908   0.754  0.0105 -0.0772 -0.1759
23701W        W43235   5.449  14.749   2.349  0.2368 -0.2661  0.3636
23702W        W43236   5.686  16.479  12.812  0.2694 -0.0315  0.0203
23703W        W43237   8.994   6.409  13.825 -0.1242 -0.0773 -0.2551
23704W        W43238  12.117   2.631   1.766 -0.2013 -0.2582 -0.2324
23705W        W43239  16.418  16.173   4.630  0.2613 -0.1054  0.0251
23706W        W43240   8.747   9.569  11.682  0.2143 -0.0556  0.2382
23707W        W43241  13.187   0.244   5.552  0.1358  0.3202  0.1308
23708W        W43242   6.644  10.535  12.560 -0.2020  0.1723  0.0239
23709W        W43243   0.433   9.177   1.406  0.0745  0.1612 -0.0190
23710W        W43244   0.595   1.990  10.529 -0.2845 -0.0068  0.0502
23711W        W43245   0.628   3.235  10.739 -0.3798  0.0761 -0.2363
23712W        W43246   1.643  16.308  14.679  0.2281  0.1650 -0.1790
23713W        W43247   4.596   5.834   2.731  0.0089 -0.0288 -0.0218
23714W        W43248  12.117  18.277   0.092 -0.1277 -0.2190 -0.3429
23715W        W43249   1.123   6.967  10.781  0.1401  0.1846 -0.0752
23716W        W43250   5.457  15.298   1.823 -0.0962  0.2281 -0.6016
23717W        W43251  16.947   3.157  10.808  0.0948 -0.1103 -0.0139
23718W        W43252  18.472   9.746  14.054  0.0308 -0.1279  0.1296
23719W        W43253  11.834   3.207  10.673  0.1145 -0.1515 -0.3033
23720W        W43254  17.234  14.145   3.739 -0.1352  0.2961 -0.2894
23721W        W43255   7.928  15.183  11.863  0.2684 -0.2574 -0.1137
23722W        W43256  10.523  15.083   4.069  0.0087 -0.0686 -0.0284
23723W        W43257  15.167   9.184   3.064 -0.1262 -0.0332 -0.0534
23724W        W43258  10.702  13.626  11.370  0.1516  0.0714 -0.1197
23725W        W43259  14.680   7.939   3.123 -0.1960  0.1096 -0.0760
23726W        W43260  12.624   6.255   2.698 -0.0681 -0.1187 -0.1976
23727W        W43261   4.158   8.332  13.579  0.0312  0.0110  0.2080
23728W        W43262   3.871   7.005  10.743 -0.1619 -0.1240 -0.1632
23729W        W43263   1.657  13.992  11.121 -0.1867  0.3613  0.1351
23730W        W43264  14.403  17.582   3.166 -0.0611  0.0508  0.2206
23731W        W43265   9.765   4.367  13.093 -0.2206 -0.4121  0.1043
23732W        W43266   0.595  10.129   3.299  0.0612  0.1316  0.0191
23733W        W43267   9.453   3.760  10.838  0.1003 -0.1988 -0.0742
23734W        W43268   1.073   3.791  10.386 -0.2145  0.2183 -0.2427
23735W        W43269  18.161   6.270  11.103 -0.0045  0.0908  0.2385
23736W        W43270  13.913  16.434  12.714  0.0212 -0.1086  0.2316
23737W        W43271   3.618  14.922   0.506 -0.2169  0.1881 -0.0025
23738W        W43272   9.533  16.853  14.421 -0.0001 -0.1447 -0.3366
23739W        W43273  15.279  17.176   1.997  0.4309 -0.2797  0.1027
23740W        W43274   7.106  16.805   1.413 -0.2282  0.3112  0.1564
23741W        W43275   9.290   9.154   3.388 -0.1242  0.3217  0.2939
23742W        W43276  14.492  14.119   0.746  0.0549  0.1345 -0.2358
23743W        W43277  11.462   5.241   5.292  0.1196 -0.1995 -0.0231
23744W        W43278   7.943  18.336  14.841  0.0464  0.1557  0.2155
23745W        W43279   8.814   3.453   1.340 -0.1292 -0.1223 -0.0559
23746W        W43280  15.437   6.588   2.207 -0.1781 -0.3107 -0.0026
23747W        W43281   5.336  13.357   4.221  0.0883  0.1463 -0.0951
23748W        W43282   8.093   1.244   1.035  0.0480 -0.0058  0.0581
23749W        W43283   5.129  14.851   1.344 -0.1099 -0.0763  0.2136
23750W        W43284   6.577  10.678  14.418 -0.1832 -0.1787  0.0686
23751W        W43285  11.029  18.893   1.419 -0.1934  0.0566 -0.3167
23752W        W43286  15.214   4.633   0.147 -0.0763 -0.1583 -0.4474
23753W        W43287  12.363  11.864  12.196  0.2381  0.4758  0.0454
23754W        W43288   3.737  11.531   0.147  0.0180  0.0359 -0.1416
23755W        W43289  10.967  11.526   1.323 -0.0122  0.1055 -0.1358
23756W        W43290  14.955  11.135   1.250 -0.0019 -0.0464 -0.2552
23757W        W43291   3.241  13.953   0.958  0.1607  0.1891 -0.1171
23758W        W43292  15.147  12.343  14.523 -0.3260  0.0901  0.4002
23759W        W43293  16.303  12.997   4.958 -0.2742 -0.1314 -0.1225
23760W        W43294   0.142   4.921  12.100  0.3541 -0.2592  0.1365
23761W        W43295  12.208  18.200  11.295 -0.0159 -0.2819  0.3137
23762W        W43296  15.501  10.941   2.145 -0.4460  0.1030  0.0769
23763W        W43297   1.744   4.492  14.603  0.0872  0.0099  0.2178
23764W        W43298   0.801  14.408   0.687 -0.1567  0.0231  0.3585
23765W        W43299  12.597  12.780  10.696 -0.2416 -0.0843 -0.1130
23766W        W43300  12.515   5.634   3.779 -0.2759 -0.0852 -0.4376
23767W        W43301  18.301   9.340   0.500 -0.0983 -0.0351  0.1990
23768W        W43302   2.507  15.625  11.864  0.2137 -0.1066  0.3220
23769W        W43303  16.847  16.104  12.780  0.1884 -0.1329 -0.1664
23770W        W43304   4.574  16.845   0.536 -0.0660 -0.0724  0.1105
23771W        W43305   0.636  13.467  14.345 -0.1724 -0.1289 -0.1031
23772W        W43306  14.051  11.337   4.345 -0.0621  0.0548 -0.0862
23773W        W43307  14.107   3.850  14.503  0.0345  0.0776  0.0543
23774W        W43308  14.290  10.171   3.250 -0.1124 -0.1667 -0.1862
23775W        W43309  16.371   8.601  14.549  0.3669 -0.1436  0.2800
23776W        W43310   1.888  16.605  10.720  0.0773  0.1297 -0.0862
23777W        W43311  18.575  11.428  12.938  0.0283 -0.0646  0.3037
23778W        W43312   5.605   9.687  13.145 -0.0246  0.0489 -0.4128
23779W        W43313   5.130  16.947  13.294 -0.2044  0.1790 -0.0205
23780W        W43314  12.500   7.842  13.361 -0.2143  0.1099  0.0710
23781W        W43315  14.469   8.170   3.967 -0.2233  0.2623 -0.1234
23782W        W43316   2.700  15.425  12.896  0.1925 -0.0370  0.0221
23783W        W43317  18.338   3.848  14.526 -0.2054  0.1302  0.0274
23784W        W43318   8.234   3.955  12.609  0.0686  0.3550 -0.0630
23785W        W43319  13.846  13.801  11.564  0.0644 -0.0700  0.1687
23786W        W43320  10.419   7.067  11.186 -0.4534 -0.1952 -0.1820
23787W        W43321   1.970  18.343  10.266  0.0509 -0.2862  0.3685
23788W        W43322  11.746   6.824   1.544  0.2219 -0.1319 -0.2744
23789W        W43323  12.289   1.244  13.101  0.0891 -0.0488  0.3103
23790W        W43324   8.492   1.787  11.199  0.0209 -0.0354  0.0142
23791W        W43325   6.846   4.384  13.952  0.5474  0.2215  0.0508
23792W        W43326  16.974   0.392   1.634  0.0989  0.0393 -0.1403
23793W        W43327   3.627   8.422  13.767  0.0466 -0.1402  0.0150
23794W        W43328   0.383  10.708  14.761 -0.0452  0.0855 -0.1684
23795W        W43329  12.468  16.740  12.510  0.1464 -0.1338  0.1458
23796W        W43330   8.825   7.411   0.846  0.1470  0.3246  0.0360
23797W        W43331  16.427   4.806   1.095 -0.0044  0.0957  0.0980
23798W        W43332   7.305   4.081   0.042  0.0810 -0.0828 -0.2686
23799W        W43333  15.476  11.991  11.473  0.2015 -0.2328  0.4490
23800W        W43334  11.451  18.833  12.937  0.2248 -0.0131 -0.0486
23801W        W43335  10.841  17.571  10.729  0.1180  0.0569  0.3858
23802W        W43336  14.850   4.843   0.992  0.2457 -0.2810  0.2374
23803W        W43337   8.892   8.509  11.958  0.2117 -0.1086 -0.0459
23804W        W43338  10.224  10.579  14.206  0.0514 -0.0147  0.0003
23805W        W43339   0.822   1.972   2.739  0.1201  0.1576  0.0173
23806W        W43340  11.371  11.899  14.333  0.0167  0.3168  0.0551
23807W        W43341   7.887  12.291  12.218 -0.2518 -0.0902  0.0071
23808W        W43342  11.766   1.389  12.730 -0.0023 -0.1840 -0.2087
23809W        W43343   7.154   8.447   1.415  0.1064 -0.1273 -0.0432
23810W        W43344   6.053   8.685   3.143  0.2416  0.0103  0.2355
23811W        W43345  14.022  18.406  11.017 -0.0972  0.0389 -0.0805
23812W        W43346  13.589  17.603   4.551  0.0916 -0.1768  0.0938
23813W        W43347  12.057  12.111   2.380  0.0248 -0.1632  0.3557
23814W        W43348  11.218  19.111   2.091  0.2008  0.0409  0.0259
23815W        W43349   7.167  16.156   0.666 -0.0696  0.0681 -0.1327
23816W        W43350  11.489  13.277  13.492 -0.0704 -0.2943  0.1289
23817W        W43351  11.293   8.879   0.682 -0.1511 -0.2314 -0.2655
23818W        W43352   0.805   9.067  13.099  0.3204  0.0001 -0.2071
23819W        W43353   1.785   9.404   2.492 -0.2482 -0.2423 -0.0637
23820W        W43354   9.611   0.364   2.782  0.1983 -0.1015 -0.3098
23821W        W43355   1.977  18.853  13.424 -0.0928 -0.1942  0.0855
23822W        W43356   9.463   3.742   1.511 -0.1775 -0.0402  0.2181
23823W        W43357   7.711   7.635  11.995 -0.0271  0.2616 -0.1171
23824W        W43358   5.848   7.429  11.522 -0.2115  0.1754  0.0068
23825W        W43359   7.076   8.056   3.480  0.2257  0.2935  0.1312
23826W        W43360   0.475   6.160   1.932 -0.1486  0.0792 -0.2143
23827W        W43361  11.845  13.243   0.685  0.1115  0.0307 -0.1564
23828W        W43362   9.066   5.277   2.447  0.2255  0.1861  0.0240
23829W        W43363   0.983  11.530   2.787  0.0788  0.0806  0.1808
23830W        W43364  11.920  16.741  12.060  0.0001 -0.5051 -0.3814
23831W        W43365  17.433   1.788   9.701  0.0233 -0.1852 -0.0516
23832W        W43366   1.106   8.232  12.281 -0.1539 -0.1222  0.3661
23833W        W43367  11.380   2.122  12.770 -0.0473 -0.0894  0.2561
23834W        W43368  12.571  11.380  12.312  0.0148 -0.2876  0.2287
23835W        W43369  16.862   4.116  14.697  0.2981  0.1867 -0.0801
23836W        W43370   2.256   3.702  11.711  0.1336  0.1327  0.0269
23837W        W43371   1.196   1.314   3.475  0.2195 -0.1133 -0.1786
23838W        W43372  14.608  14.372   4.099  0.0699  0.2580  0.3026
23839W        W43373  16.605   8.832   0.956 -0.0623  0.1136 -0.0216
23840W        W43374   7.980  17.068  11.336 -0.1198 -0.0837  0.0643
23841W        W43375   8.722  11.612  11.443  0.3055 -0.3467  0.1750
23842W        W43376   0.820  10.980   1.402 -0.1670 -0.0482  0.2657
23843W        W43377   1.424   3.140  11.614 -0.0269  0.1418  0.2069
23844W        W43378  14.134   9.150  14.290 -0.2264 -0.1819 -0.0781
23845W        W43379   4.357   8.439  11.467 -0.1063  0.0405  0.1619
23846W        W43380  10.736  15.756   0.169  0.1003  0.1006  0.0474
23847W        W43381   6.501   5.160  13.506  0.1450 -0.2080  0.1303
23848W        W43382  17.988  13.121  10.217 -0.0574  0.2093 -0.3289
23849W        W43383   2.301   8.973   1.627 -0.1692  0.1128 -0.2794
23850W        W43384  18.815   8.026   1.986  0.0780 -0.3359 -0.0679
23851W        W43385  15.092  17.239  11.937 -0.3126  0.1370 -0.0734
23852W        W43386   3.316  11.483  14.648 -0.0888  0.2726  0.1300
23853W        W43387   9.708   7.182   2.167 -0.1106  0.1007  0.0776
23854W        W43388   0.727  17.913  11.289 -0.0521 -0.2886  0.1041
23855W        W43389  17.687   3.772  14.387 -0.0495 -0.0958 -0.3506
23856W        W43390  12.862  10.535   3.780  0.0319  0.0766 -0.2717
23857W        W43391   6.373  18.882   2.329  0.1333  0.1325  0.2325
23858W        W43392  11.286  12.182   1.684  0.0561 -0.0828  0.0359
23859W        W43393  10.039  11.391   3.863  0.1503 -0.1421 -0.0404
23860W        W43394   5.762   5.677  11.572  0.0634  0.2246  0.0484
23861W        W43395   9.544  12.302   3.539  0.1947 -0.3997 -0.1704
23862W        W43396  12.273  13.629   0.304 -0.1331 -0.1831 -0.1333
23863W        W43397  16.898  13.833   4.019 -0.0002  0.0116 -0.1537
23864W        W43398   1.514   6.280  11.955 -0.0087  0.0227  0.1701
23865W        W43399   3.655   4.133   0.971  0.2858  0.0858  0.0755
23866W        W43400   2.690   2.982   2.152 -0.2048  0.1410 -0.1741
23867W        W43401   2.807  14.708  13.602  0.1335 -0.3886 -0.1630
23868W        W43402  14.248  15.984   5.384  0.2049  0.0275  0.3379
23869W        W43403  13.142  10.563  13.539 -0.1387 -0.1716 -0.0445
23870W        W43404   0.121   0.067  11.587  0.4027  0.1368  0.1711
23871W        W43405  11.919  18.391  14.364 -0.0386 -0.0617  0.2359
23872W        W43406  14.020   0.877   3.132 -0.0400  0.0215  0.1071
23873W        W43407   8.505   6.798   2.792 -0.0922 -0.2537  0.1100
23874W        W43408  16.018   4.713   3.870 -0.2257  0.3101 -0.0677
23875W        W43409   7.044   7.476   3.697  0.0074 -0.0303  0.0954
23876W        W43410  10.186  11.842  10.999  0.0793  0.2340  0.0737
23877W        W43411   4.308  18.792   2.195 -0.0161  0.3616 -0.0282
23878W        W43412   9.881  14.224   1.547  0.2006 -0.0908 -0.0090
23879W        W43413   5.591   7.000  14.465 -0.0721 -0.3035 -0.0287
23880W        W43414  13.020   8.738   3.347 -0.1769  0.2907  0.0826
23881W        W43415  18.410   7.667  12.513  0.2518  0.2967 -0.2020
23882W        W43416   6.850   7.177   2.133  0.0617 -0.0972  0.0393
23883W        W43417   2.114   8.446   2.167  0.2406 -0.0398  0.1465
23884W        W43418   9.214  11.046   2.390 -0.3196  0.0144  0.1138
23885W        W43419  13.980   9.314   2.294  0.0366  0.2976 -0.0473
23886W        W43420  14.345  12.709   4.603 -0.1076 -0.0140 -0.0786
23887W        W43421   6.766  16.183  12.186  0.3095  0.2646  0.1012
23888W        W43422  12.073  17.596   2.803  0.2586  0.3425 -0.3226
23889W        W43423  10.051   0.095   3.001  0.2504  0.3218  0.0067
23890W        W43424  18.558   1.039  12.007 -0.1577 -0.3044  0.3534
23891W        W43425   7.578   3.483  13.106  0.1665  0.0405 -0.2826
23892W        W43426   2.526   1.747   4.117 -0.4148  0.2775 -0.2515
23893W        W43427   1.501   0.710   2.555  0.0580 -0.0691 -0.2211
23894W        W43428   7.390   7.499   2.340 -0.1935 -0.0448  0.0916
23895W        W43429   2.785   7.581   2.972  0.2583 -0.0457 -0.0573
23896W        W43430   4.597  18.638   0.341 -0.0442 -0.2236 -0.0335
23897W        W43431  14.973   5.358  10.603 -0.0180  0.0668 -0.0395
23898W        W43432  11.637   4.445  13.046 -0.0244  0.1260  0.1772
23899W        W43433   8.151   1.705  10.883 -0.2475 -0.0447  0.1014
23900W        W43434   1.551   2.374   2.957 -0.1454  0.2388  0.1702
23901W        W43435  12.484  15.202   2.288 -0.1639  0.2908  0.1531
23902W        W43436   4.588   8.848  12.816 -0.0815  0.1390  0.1484
23903W        W43437  16.045  16.381  11.378  0.2311  0.2686 -0.0834
23904W        W43438   5.716   2.365   1.972  0.0049 -0.1242 -0.2939
23905W        W43439  18.591   5.578  10.526 -0.0804  0.4245 -0.0232
23906W        W43440   3.765   9.796   3.383 -0.1039  0.2167  0.1677
23907W        W43441  14.048   8.209  14.201  0.1412  0.1145 -0.1038
23908W        W43442   4.285  15.478   4.078  0.0052 -0.1393 -0.0120
23909W        W43443  11.342  17.484   3.962  0.1476  0.0141  0.1401
23910W        W43444   8.386  18.162  14.582 -0.3103 -0.1650 -0.0822
23911W        W43445  11.527  10.875   1.095  0.0411 -0.2146  0.0883
23912W        W43446   5.019   6.875   2.708 -0.0248 -0.0409 -0.1471
23913W        W43447   7.543  10.816  11.031 -0.0490  0.0864  0.3899
23914W        W43448  10.518  13.469  14.400 -0.2888 -0.0100  0.1134
23915W        W43449   9.432   0.233   4.374  0.2786 -0.4319 -0.1737
23916W        W43450  17.161   2.131   2.314  0.0521  0.0593 -0.0935
23917W        W43451   0.145   2.158  11.480 -0.1647 -0.0122  0.1777
23918W        W43452   1.647  12.472   4.636  0.2474  0.2787 -0.2121
23919W        W43453   4.889   0.192   2.588  0.3688  0.0060  0.0446
23920W        W43454   5.513   4.783  12.768 -0.2534  0.2066 -0.0106
23921W        W43455  15.167   8.042   3.380  0.2929  0.1949  0.0452
23922W        W43456  18.621   0.146  13.220  0.0209 -0.0207 -0.1244
23923W        W43457   1.280   1.508  13.344 -0.2469 -0.1939 -0.1103
23924W        W43458   3.190  12.227  12.786  0.1024  0.1934  0.0826
23925W        W43459  16.860  14.351   3.465 -0.1846  0.2223  0.0414
23926W        W43460  17.195   7.079  11.206 -0.0870 -0.0973  0.2217
23927W        W43461   2.347   9.592  12.721 -0.1013  0.0780  0.0693
23928W        W43462  13.386  10.179   4.911  0.1504 -0.1129  0.1212
23929W        W43463  17.191  12.234   2.954 -0.0356 -0.0574 -0.0271
23930W        W43464   3.980   3.081  12.081  0.2375 -0.1190  0.1742
23931W        W43465   1.232  15.538  13.560 -0.1809 -0.0712 -0.1152
23932W        W43466  16.998  11.546  11.232  0.1160 -0.2593 -0.1347
23933W        W43467  14.116  18.507  12.719  0.0009  0.1395 -0.4254
23934W        W43468  17.400  12.593   2.657 -0.1147 -0.2114  0.1151
23935W        W43469  11.833   4.361  12.426  0.1697 -0.0908 -0.1910
23936W        W43470   7.723  15.626   1.750  0.4196 -0.2877 -0.1893
23937W        W43471   2.786   9.787  11.724 -0.0450  0.1697  0.1865
23938W        W43472  11.585  13.727  13.290  0.1022 -0.0984 -0.0694
23939W        W43473  10.341   3.902  12.034 -0.1181 -0.2213  0.0901
23940W        W43474  12.121   7.640   9.708  0.0602 -0.0046  0.2458
23941W        W43475  13.715   7.675   0.691 -0.4590  0.0663 -0.0727
23942W        W43476  12.946  10.117   2.689  0.0398  0.0390  0.1826
23943W        W43477   9.125  10.014   1.209 -0.0171 -0.2625 -0.3472
23944W        W43478   0.350  11.062   1.685 -0.1189  0.3197 -0.0025
23945W        W43479  18.092  18.999   0.946  0.1799  0.1309 -0.0430
23946W        W43480  17.389   8.104   3.310  0.3918  0.0889 -0.1693
23947W        W43481  11.650  18.650  13.904 -0.1872 -0.1509  0.1313
23948W        W43482  10.247   8.429  12.471  0.0279 -0.0398 -0.2106
23949W        W43483   7.604  16.020  11.675 -0.1610 -0.3338 -0.1287
23950W        W43484  17.840  14.609   2.217  0.1290  0.2021  0.0068
23951W        W43485  16.140   1.819  14.618 -0.0634  0.0981 -0.1658
23952W        W43486  18.396  12.212   5.180  0.0964 -0.2283 -0.0570
23953W        W43487   5.310   2.690   1.193  0.3065 -0.3142 -0.1634
23954W        W43488  14.248   9.516   0.039  0.1579 -0.2436  0.0517
23955W        W43489  15.604   9.611  14.696 -0.0175 -0.1390  0.2513
23956W        W43490  16.967   9.500  11.608  0.2049  0.0329  0.0573
23957W        W43491   4.954   3.892   1.178 -0.2175 -0.3343 -0.0113
23958W        W43492   4.692   7.046   1.855 -0.1412 -0.1745  0.0120
23959W        W43493  10.780  10.849   5.127 -0.0026 -0.3569  0.0740
23960W        W43494  15.976  15.339  11.516 -0.0019  0.4039 -0.1509
23961W        W43495   7.193   6.071   1.931  0.1232  0.0023  0.1043
23962W        W43496   9.918  14.026  13.158 -0.2475  0.0598  0.0917
23963W        W43497   9.950  12.325   1.754  0.1174 -0.0596  0.3457
23964W        W43498  12.537   0.012   4.282  0.2960 -0.2011  0.0816
23965W        W43499   9.866   1.931  10.455 -0.2847 -0.4159 -0.3398
23966W        W43500   1.803   0.730   0.782 -0.0165  0.0604  0.1980
23967W        W43501   0.759   2.901   1.717 -0.2420 -0.2383 -0.3087
23968W        W43502  11.264   9.748  11.925  0.0204  0.2267  0.0622
23969W        W43503   6.840   8.747  12.450  0.0606 -0.0062  0.0197
23970W        W43504  15.294  17.856  11.545  0.2450  0.0223  0.0853
23971W        W43505  11.834   4.168  10.745  0.2779 -0.0089 -0.0901
23972W        W43506   3.167   3.401  10.921 -0.2774  0.1741  0.0542
23973W        W43507  11.719   4.471   1.840  0.1156 -0.0912  0.0939
23974W        W43508  17.790   1.579   1.125  0.3135  0.0722  0.0532
23975W        W43509   1.117  18.276   2.814 -0.1311 -0.0429  0.2166
23976W        W43510   7.926   9.272  12.754  0.0843  0.0220  0.1861
23977W        W43511   2.206   5.637  11.692  0.4106  0.1286 -0.0274
23978W        W43512   9.260  15.021  13.673 -0.0206 -0.2302  0.1499
23979W        W43513   8.881   8.211   2.045  0.1210 -0.1219  0.0363
23980W        W43514  17.199  15.635   2.816  0.2784 -0.3910 -0.4708
23981W        W43515   9.387  16.395  10.934  0.0226 -0.0407 -0.1394
23982W        W43516  14.646  13.733   2.389  0.4637 -0.1056 -0.0426
23983W        W43517  18.165   3.698  13.545  0.1383 -0.0397 -0.1247
23984W        W43518   0.527   1.689  12.401  0.1053 -0.2442  0.1894
23985W        W43519   2.348   3.537  10.372 -0.0649  0.2226 -0.4105
23986W        W43520   3.052   1.231   2.343  0.1158  0.2629 -0.2256
23987W        W43521   9.409  13.209   3.628  0.2416 -0.1106  0.0949
23988W        W43522   3.227  18.370   1.915 -0.2175  0.3087 -0.0387
23989W        W43523   9.492   4.920   0.790 -0.1703  0.0695  0.0633
23990W        W43524  14.398   5.615   0.003 -0.1523  0.0550  0.0624
23991W        W43525   8.124   5.881  13.046  0.1637  0.0547  0.0122
23992W        W43526  12.945   2.431   3.219 -0.1732 -0.0141  0.0548
23993W        W43527  10.847  11.384   2.129 -0.0448 -0.1355 -0.0063
23994W        W43528  17.113  13.631   3.543  0.1239  0.0281  0.3022
23995W        W43529  16.268   1.748  11.438 -0.1317  0.2337 -0.0781
23996W        W43530  16.570  14.164   0.948  0.1440  0.1746  0.1796
23997W        W43531   7.265   9.655   2.873  0.0235 -0.0288  0.1424
23998W        W43532   8.991  16.917  12.101  0.3604 -0.0586  0.0372
23999W        W43533   8.492   1.122  14.463  0.1862 -0.6707  0.5216
24000W        W43534   0.518  18.927  13.931  0.1681  0.0977 -0.1807
24001W        W43535  16.273  17.774   0.367 -0.0836  0.1353 -0.1554
24002W        W43536   8.022  15.550  11.491 -0.5018  0.0024 -0.0034
24003W        W43537   9.953  17.038  13.214 -0.4374 -0.1413  0.2599
24004W        W43538   2.379   6.859  12.041  0.1215  0.0820 -0.0842
24005W        W43539  17.535   5.479  13.784  0.3980  0.1532  0.1525
24006W        W43540   5.501  17.285   3.371 -0.0431 -0.1362 -0.0094
24007W        W43541   5.702   0.163   3.825 -0.2282 -0.1683 -0.2339
24008W        W43542  11.041   5.527  14.349 -0.1903 -0.0149 -0.2160
24009W        W43543  10.201  15.242   3.074 -0.3446  0.0238 -0.0065
24010W        W43544   4.352   5.392   2.570 -0.2769  0.1011 -0.1303
24011W        W43545   0.324  13.025  11.990 -0.0735  0.0169  0.0931
24012W        W43546   9.667   3.398  10.593 -0.1056 -0.0889 -0.2139
24013W        W43547   1.136   2.357   1.347 -0.0886 -0.2577 -0.0215
24014W        W43548  14.814   6.062  13.559 -0.0218  0.0400  0.1697
24015W        W43549   6.647  15.498  13.840 -0.3477  0.3135  0.1187
24016W        W43550   5.376   9.627  14.550  0.0849  0.3044  0.0919
24017W        W43551   6.910   7.606   3.203  0.3044  0.0744 -0.0253
24018W        W43552  12.133  13.496   2.477  0.1271  0.1821  0.1239
24019W        W43553  14.832  13.880  10.744  0.2550 -0.2154  0.0970
24020W        W43554  13.177   7.833   3.208 -0.2509  0.0314  0.1298
24021W        W43555   2.510   2.325   1.541  0.1229 -0.1479  0.1411
24022W        W43556   0.363  15.669   2.681  0.3541 -0.1898 -0.1217
24023W        W43557   5.186   2.586  11.046 -0.0846 -0.0602  0.0987
24024W        W43558  15.481  13.234   9.420  0.0948  0.2069 -0.0310
24025W        W43559   3.513   8.867   2.790  0.2521 -0.4224  0.1750
24026W        W43560   2.215   2.550  10.137 -0.1463 -0.2172 -0.0061
24027W        W43561   4.566   7.988   2.851 -0.1286  0.0535 -0.0316
24028W        W43562  10.094   9.097  11.728 -0.1281  0.0303 -0.0707
24029W        W43563  18.919  11.290   4.611 -0.1072  0.0166  0.1883
24030W        W43564   7.768  13.006  14.665 -0.0809  0.1589  0.1646
24031W        W43565   6.564   7.385  14.155 -0.0278 -0.0874 -0.0571
24032W        W43566   8.860  18.179  13.059  0.0911  0.1571  0.0545
24033W        W43567   8.011  12.175   1.852 -0.2725  0.1898 -0.4738
24034W        W43568  13.928   1.631  11.655  0.2968 -0.0200  0.1978
24035W        W43569  14.523   8.339  12.829 -0.0000 -0.4157 -0.0905
24036W        W43570  10.526   7.082  12.496 -0.1377 -0.0770 -0.1384
24037W        W43571   8.464  12.389  12.206  0.3496 -0.1379 -0.1466
24038W        W43572   3.988   2.498   1.581 -0.0131 -0.0937  0.0745
24039W        W43573   6.912   0.090   2.291 -0.1040 -0.1917 -0.3301
24040W        W43574  16.255   0.970   0.037 -0.5116  0.1404  0.4068
24041W        W43575   6.967   6.455  13.206  0.0316 -0.0675 -0.0703
24042W        W43576   4.583  12.866   0.025 -0.1743 -0.2171  0.1354
24043W        W43577  18.444   3.405  13.964 -0.1587 -0.0926 -0.0487
24044W        W43578  17.695  18.862   1.921 -0.2248  0.2241  0.4144
24045W        W43579   7.897  15.778   4.544 -0.0023  0.1359  0.1697
24046W        W43580   1.141  17.258  10.674  0.2154 -0.1275  0.0144
24047W        W43581   4.257  14.722   3.542  0.1743 -0.0861 -0.2045
24048W        W43582   1.093  12.666  14.510 -0.1467  0.2500  0.1127
24049W        W43583  13.758   0.514  14.033 -0.0493  0.0596 -0.1977
24050W        W43584  13.837   5.688  11.693 -0.0999 -0.0636 -0.3129
24051W        W43585  14.063  16.202  13.216 -0.1469  0.1054 -0.0156
24052W        W43586   2.813  11.015   0.506 -0.1351 -0.1478  0.0441
24053W        W43587  15.335  13.893  12.625  0.1305  0.0328  0.0238
24054W        W43588   6.560   7.873  10.624 -0.1390  0.0015 -0.0851
24055W        W43589  18.533   6.443  13.427  0.3073 -0.0002  0.0915
24056W        W43590   4.003   9.964   2.410  0.2238 -0.0411 -0.1083
24057W        W43591   3.484  14.517  11.245  0.0401  0.0309  0.0140
24058W        W43592  12.474  10.839   1.470 -0.1564  0.0710 -0.3552
24059W        W43593   9.115  15.454  12.279  0.2092  0.0125  0.0773
24060W        W43594   8.895  15.456   1.184  0.1562  0.2428 -0.1220
24061W        W43595   2.858  11.667  13.545  0.3448 -0.0256 -0.0050
24062W        W43596  11.367  14.319   3.533 -0.0606 -0.1209 -0.3138
24063W        W43597  14.022   9.065  14.787 -0.1530  0.0107 -0.1051
24064W        W43598  18.530  12.720  13.391  0.1547 -0.0923  0.0216
24065W        W43599  16.465  13.689   2.310 -0.0306 -0.0707 -0.2654
24066W        W43600  18.206   4.203  11.971  0.1328  0.0301  0.1023
24067W        W43601  11.156  15.579   1.825 -0.1302  0.0785  0.0889
24068W        W43602  18.810  10.887   0.439  0.2086 -0.0864 -0.0277
24069W        W43603   6.168   6.586   2.895 -0.2143 -0.1956  0.1216
24070W        W43604   1.064   6.198   1.386  0.0711 -0.0991  0.1906
24071W        W43605   1.095  14.632  14.455 -0.1606 -0.1587  0.3134
24072W        W43606   0.885  18.786   0.942 -0.2030 -0.0160  0.1234
24073W        W43607   6.406   0.164  11.228 -0.1968 -0.1797 -0.2536
24074W        W43608   4.136  15.099   2.491  0.4420  0.1928 -0.0348
24075W        W43609   5.684  12.380  11.514 -0.0445 -0.0006  0.0607
24076W        W43610  14.654   0.514   2.614  0.0280  0.0913  0.0610
24077W        W43611  17.286  13.256  12.857  0.0260 -0.1291 -0.2673
24078W        W43612   5.513   8.780   1.445 -0.2135 -0.0003 -0.0307
24079W        W43613  15.581   5.480  12.642  0.1403 -0.0343  0.3708
24080W        W43614   6.384  11.800   2.813  0.0452 -0.2294  0.1493
24081W        W43615  17.297   9.726  14.708  0.0347  0.0174 -0.0809
24082W        W43616  14.104  13.825   0.488  0.0834  0.3517 -0.1694
24083W        W43617   7.858  10.760   3.534 -0.0420  0.1438  0.4313
24084W        W43618  14.996  10.713   2.247  0.0024  0.2190 -0.0564
24085W        W43619   9.429  12.557  11.823 -0.2080  0.2675 -0.0345
24086W        W43620  17.747  11.499   1.394 -0.1513 -0.0929 -0.0437
24087W        W43621   7.800   5.109  13.004 -0.2156 -0.0233 -0.1850
24088W        W43622   7.520   3.215  12.662 -0.2926 -0.0551  0.0325
24089W        W43623  16.440   8.979   1.392 -0.4189  0.1599  0.1205
24090W        W43624   7.695   9.862   3.726 -0.0939 -0.1725 -0.4264
24091W        W43625  13.973  15.151  12.197 -0.2511 -0.3993  0.2192
24092W        W43626   1.690   6.447   3.292 -0.2255 -0.2272  0.0151
24093W        W43627  13.900  12.590   0.376  0.1850  0.3058 -0.0688
24094W        W43628  17.899   3.939   1.900 -0.0339  0.2059 -0.2081
24095W        W43629  12.980  17.702  10.478  0.0314 -0.1739 -0.0861
24096W        W43630  10.292   7.021   3.266 -0.1036  0.0307  0.3922
24097W        W43631  17.886  17.818  14.617 -0.1848 -0.1799 -0.0423
24098W        W43632   0.893  14.845   0.908 -0.0662  0.2844  0.0979
24099W        W43633  18.383  13.953  13.706 -0.1126 -0.3551  0.0002
24100W        W43634  13.611  14.122  11.906  0.4021  0.1392 -0.0413
24101W        W43635  16.217  16.162  11.889  0.0305 -0.1114 -0.1707
24102W        W43636   9.429  14.442   0.652 -0.0675 -0.1362  0.0683
24103W        W43637  12.152  12.188  11.758  0.0750  0.0961 -0.3003
24104W        W43638   0.217  11.887   2.698  0.0969 -0.0757  0.2094
24105W        W43639  15.402  12.256   0.133  0.0497 -0.3862 -0.2842
24106W        W43640  16.038   3.017  10.579  0.1343  0.2960 -0.2566
24107W        W43641   7.557  17.488  13.245  0.2485 -0.1186  0.0924
24108W        W43642   8.450   7.301   3.064  0.1597  0.3042  0.2180
24109W        W43643   2.281   7.857   1.441 -0.1850  0.1174 -0.2572
24110W        W43644   6.223  10.066  10.521 -0.0523 -0.0738 -0.0914
24111W        W43645  11.078  17.428   0.397 -0.3867 -0.1736  0.1261
24112W        W43646   5.145   3.507  14.413 -0.0158 -0.1388  0.0210
24113W        W43647   6.344   8.736   1.677  0.1995  0.0822  0.1368
24114W        W43648  13.568   6.182  11.628 -0.1093  0.0109  0.1432
24115W        W43649   6.718   2.000   3.628 -0.0963  0.2686 -0.0482
24116W        W43650   3.388  14.877  14.020 -0.0617  0.0450 -0.1653
24117W        W43651   0.360  14.022   3.642  0.1232 -0.3454  0.0318
24118W        W43652  12.923   0.020   1.153  0.1388 -0.0302  0.1606
24119W        W43653  17.479  13.825  12.180  0.2094  0.3626  0.0252
24120W        W43654   2.540   7.136  13.642 -0.1093 -0.1687  0.0473
24121W        W43655   3.044   3.978   4.028 -0.0246 -0.0895 -0.0594
24122W        W43656  17.867  14.533   4.216  0.0603  0.0916 -0.0280
24123W        W43657   9.313  11.316  13.781 -0.1194 -0.2585  0.2659
24124W        W43658   3.252  16.474   2.040  0.0198 -0.1703  0.0151
24125W        W43659   6.382   7.461   1.310 -0.1664  0.0251 -0.0124
24126W        W43660   7.752   5.228   2.114 -0.1742 -0.1818  0.0924
24127W        W43661   3.141  17.974  11.677 -0.0432 -0.1681 -0.3707
24128W        W43662  14.258   5.807   0.522 -0.0123  0.0202  0.2510
24129W        W43663  16.420   3.072  14.087 -0.2139 -0.0291 -0.0396
24130W        W43664   1.163  15.909   4.116 -0.0580  0.2626  0.0059
24131W        W43665   5.499  18.901   1.366 -0.0702 -0.1173  0.0969
24132W        W43666  18.627   9.014   0.327  0.0552  0.1409  0.0505
24133W        W43667  17.878   2.309  11.308  0.0141 -0.0923 -0.0317
24134W        W43668   4.734  15.249  11.349  0.1586  0.2970 -0.0980
24135W        W43669   6.320  18.777  12.972  0.0777  0.3410  0.1543
24136W        W43670  11.134  15.163  11.107 -0.0364 -0.1922 -0.1678
24137W        W43671   2.512   4.691  13.431 -0.0613  0.1181 -0.2077
24138W        W43672   7.665  17.714  14.222 -0.1294 -0.0298  0.1966
24139W        W43673   8.529  11.917   1.453 -0.1239  0.1877  0.1324
24140W        W43674   3.226   0.564  13.552  0.2166  0.0299  0.0384
24141W        W43675   8.696  17.075   1.170 -0.0351 -0.1528 -0.0493
24142W        W43676   4.979   3.283   3.352  0.1711 -0.0800 -0.3533
24143W        W43677  13.400   9.724  11.824  0.3320 -0.1568  0.2098
24144W        W43678  10.610  16.098   0.516 -0.1176 -0.1588 -0.0988
24145W        W43679  16.177   5.964   1.294 -0.3135  0.1443  0.0990
24146W        W43680   5.559   7.090   1.572  0.3110  0.1855 -0.0498
24147W        W43681   5.318  11.236  14.769  0.3172 -0.3196  0.1538
24148W        W43682   4.593  17.979  14.531  0.0281  0.0082 -0.0194
24149W        W43683   5.307   3.324   4.334  0.0301 -0.1144  0.0474
24150W        W43684   2.841   3.129  12.678  0.3105  0.1407  0.2302
24151W        W43685  12.573   1.765  14.062 -0.1082 -0.1842  0.1235
24152W        W43686  13.265  14.091  12.732  0.1221 -0.0092 -0.2700
24153W        W43687  16.818  17.941  13.931  0.1366 -0.3320 -0.0810
24154W        W43688   4.146  15.330  12.858 -0.3508  0.0258 -0.0127
24155W        W43689   7.669   2.585  12.047  0.2360 -0.1815  0.1901
24156W        W43690  18.494  15.915  11.083  0.2847 -0.0421  0.0769
24157W        W43691   2.830   2.582   2.542  0.0667 -0.1658  0.0376
24158W        W43692   2.719   7.029  14.075  0.1565 -0.2872 -0.1609
24159W        W43693  14.435   8.432   2.547 -0.0530  0.4416  0.0504
24160W        W43694   0.494   2.972  13.369 -0.1547 -0.1465  0.3945
24161W        W43695   0.796  13.099   0.656 -0.2525  0.0625  0.0798
24162W        W43696  17.557   8.696   2.633  0.0843  0.4253  0.1518
24163W        W43697   8.993   9.776   4.027 -0.1866 -0.1632 -0.3211
24164W        W43698  17.289  11.451  10.788  0.1215  0.0340 -0.2840
24165W        W43699  16.896   9.366  14.441  0.3782 -0.0809  0.1533
24166W        W43700   7.334  13.075   2.350  0.1443  0.2631 -0.3326
24167W        W43701  18.974   7.708  13.225  0.0293 -0.1483 -0.1609
24168W        W43702   6.073  17.715   1.419 -0.2710  0.0773  0.1910
24169W        W43703  11.885  16.280   4.482 -0.1795 -0.0082 -0.0397
24170W        W43704  12.068   4.240  14.567 -0.1136  0.1296  0.0536
24171W        W43705  15.013  17.151   1.473 -0.2692  0.0479  0.0640
24172W        W43706  12.695   7.511   0.199 -0.3078  0.1239 -0.3497
24173W        W43707   7.499   5.815  11.771 -0.0752  0.0841 -0.1063
24174W        W43708   3.665  18.494  14.688  0.0675  0.1215  0.0446
24175W        W43709   2.515  15.413   1.127 -0.2589  0.2340  0.0754
24176W        W43710   5.619  12.384   5.183  0.4410 -0.1388  0.2499
24177W        W43711  10.279  17.918   2.964  0.2291  0.0069  0.1632
24178W        W43712   2.059   8.779   2.621 -0.2528  0.0043 -0.0801
24179W        W43713   1.745  17.694   1.471  0.0406 -0.1100 -0.0362
24180W        W43714   3.100   9.850   4.243  0.0211 -0.1390  0.0931
24181W        W43715  12.755   8.335  10.737 -0.0836  0.0110 -0.0166
24182W        W43716   5.400   4.252  13.957  0.1695 -0.0006  0.1192
24183W        W43717   0.544   4.625   0.937 -0.0615  0.0848  0.0678
24184W        W43718   9.816   1.033   2.372 -0.1216  0.0637 -0.1076
24185W        W43719   2.904   9.815   3.745  0.3856  0.0459  0.2266
24186W        W43720   3.961   2.393  12.631  0.1114 -0.2712  0.1051
24187W        W43721  10.743   1.526  11.829  0.0565  0.0535  0.0683
24188W        W43722   8.412  15.849  14.058  0.1038 -0.2874 -0.0262
24189W        W43723  13.992   6.149   0.860  0.2302 -0.1235  0.0219
24190W        W43724  13.010   1.849   4.453 -0.0960 -0.3911 -0.2300
24191W        W43725  18.131  13.483   1.087  0.0870  0.1458 -0.1680
24192W        W43726  13.535   5.226  14.597 -0.2589 -0.0127  0.0130
24193W        W43727  10.479  11.840  13.026 -0.0100 -0.0684  0.2493
24194W        W43728  15.304   3.747   2.228  0.0526  0.0329  0.1680
24195W        W43729  14.613   2.637  11.261  0.0484 -0.2335 -0.2131
24196W        W43730   5.979   1.412  12.059 -0.1669  0.1702 -0.0180
24197W        W43731  19.043   8.367  12.006  0.0917  0.2987  0.0698
24198W        W43732   3.251  17.999   3.293 -0.1128  0.1241  0.1807
24199W        W43733  17.007  16.122   1.204 -0.1127 -0.2086 -0.0437
24200W        W43734  17.544  16.335  13.888  0.0269  0.1863  0.0922
24201W        W43735  12.848  11.269  11.091 -0.0427 -0.0335  0.1179
24202W        W43736  17.966  14.462  13.285  0.1126  0.2936  0.1307
24203W        W43737  14.019  11.305   1.255  0.0611 -0.2630  0.0333
24204W        W43738  13.170  11.141   1.414  0.0520  0.0426 -0.0054
24205W        W43739   8.806   7.819  14.231 -0.0467 -0.1297 -0.1123
24206W        W43740   7.502  13.470   0.354 -0.0552 -0.0414 -0.0217
24207W        W43741   5.000   4.899   3.263  0.0291  0.0230 -0.1270
24208W        W43742  15.339  17.488   1.256  0.2605 -0.0200  0.3161
24209W        W43743  13.337   0.956  13.914 -0.0893 -0.1209  0.1680
24210W        W43744   6.918   2.126  11.228  0.0865  0.1875  0.0927
24211W        W43745   2.616   0.505   0.961  0.1602 -0.0830 -0.0913
24212W        W43746  14.404   9.152  13.778 -0.2461  0.1558 -0.1226
24213W        W43747   9.980  16.284   1.863 -0.0031 -0.0567 -0.0799
24214W        W43748   3.447   5.587  11.105  0.3742 -0.3324  0.1049
24215W        W43749  10.852   8.330   1.166  0.0768  0.1809 -0.3203
24216W        W43750  15.589  17.171   1.553  0.0691 -0.0329 -0.1875
24217W        W43751   4.716   5.681  12.295 -0.2629  0.4329  0.1566
24218W        W43752   1.888   8.459  11.865 -0.0083  0.3995 -0.1597
24219W        W43753   1.515  15.399  12.293 -0.3156  0.2208 -0.3113
24220W        W43754   5.350  12.207  14.791  0.1914  0.0100 -0.1018
24221W        W43755  18.983  11.044   0.961  0.0087 -0.0234  0.2412
24222W        W43756  15.408   5.590   2.955  0.0763 -0.1160 -0.2436
24223W        W43757  14.308  17.330  12.330  0.0700  0.2316 -0.1426
24224W        W43758  13.923  10.949  11.346 -0.0959 -0.1365 -0.4594
24225W        W43759  15.579  18.619   0.835  0.0903  0.0833  0.0193
24226W        W43760   0.419   9.885  13.594 -0.2430  0.3632  0.0801
24227W        W43761   4.926  15.599  12.801 -0.4120 -0.0134 -0.0063
24228W        W43762   5.787  16.913  12.503  0.0492 -0.0056 -0.2362
24229W        W43763   8.871  17.544   3.160  0.1840  0.0090  0.2773
24230W        W43764   6.449   7.954  14.300 -0.1372 -0.1009 -0.7129
24231W        W43765   0.398   3.840  12.005  0.2923  0.0933 -0.2947
24232W        W43766   4.036  14.227  11.801  0.1727 -0.2232  0.0088
24233W        W43767   2.405  17.738  14.630  0.0698 -0.1474  0.2563
24234W        W43768  12.860   6.278  12.208 -0.3338 -0.0922 -0.0453
24235W        W43769  11.486   7.535   4.147  0.0330  0.0931  0.1798
24236W        W43770   6.517   9.405   3.512 -0.2273 -0.0619 -0.0298
24237W        W43771   3.877   4.026   2.576 -0.0166 -0.2247 -0.1639
24238W        W43772   1.909   7.939   3.867 -0.1151 -0.1134  0.3423
24239W        W43773   0.977   2.157   9.226 -0.0362 -0.1675  0.2211
24240W        W43774   7.220  18.504   1.135  0.1857 -0.0952  0.2621
24241W        W43775   9.185  15.158  11.474 -0.1052  0.2621 -0.0840
24242W        W43776  15.355   1.340  13.132 -0.0218  0.3079 -0.0977
24243W        W43777  17.931   7.647  12.645  0.0654 -0.1018 -0.0114
24244W        W43778   4.606   6.175  10.717  0.0214  0.1909 -0.0910
24245W        W43779  13.918   0.262   1.224  0.1955  0.1630  0.1376
24246W        W43780  15.451   0.941  10.725 -0.0463 -0.0183 -0.4044
24247W        W43781   2.278   4.983  12.984 -0.3251 -0.0452  0.0649
24248W        W43782   2.708  15.169  11.963 -0.0845  0.0310  0.1893
24249W        W43783   2.353  16.901   2.955 -0.0237 -0.1644  0.0314
24250W        W43784   9.638  15.344  12.359 -0.0665  0.1891  0.3329
24251W        W43785  16.382   2.805  13.606 -0.2208  0.0124  0.0293
24252W        W43786   7.840   4.676  11.645  0.0292 -0.1875 -0.1056
24253W        W43787   8.182  12.935   0.693  0.3118  0.1823  0.1957
24254W        W43788  15.460  13.446   2.112  0.3022  0.1587 -0.0101
24255W        W43789  12.807   8.357   3.549  0.5365  0.1601 -0.2255
24256W        W43790  14.824  11.696   1.244  0.2378  0.2218 -0.3030
24257W        W43791  12.845   9.612   3.834  0.0721  0.2254  0.0693
24258W        W43792   8.666   0.887  12.203  0.0369  0.0550  0.0838
24259W        W43793  10.571   1.849   0.642  0.1412  0.0403  0.1977
24260W        W43794  15.619  15.157  11.202 -0.0449 -0.2757  0.0786
24261W        W43795  13.327  18.338   4.386 -0.2544 -0.1305 -0.2452
24262W        W43796   0.028   9.818   2.187  0.1406  0.1880 -0.0368
24263W        W43797  12.283   5.096   0.270 -0.0081  0.0528 -0.1301
24264W        W43798   6.708   4.224   2.169  0.0129 -0.0859 -0.3899
24265W        W43799   8.409   9.287   3.762  0.1906 -0.0219  0.1283
24266W        W43800   4.032  12.739   3.612  0.2512  0.2815  0.0681
24267W        W43801  13.781   0.953  14.314 -0.2072 -0.0722  0.3221
24268W        W43802   5.612   1.778  11.357 -0.0056  0.1753 -0.0217
24269W        W43803   3.128   1.355   1.403  0.0249  0.0288  0.2243
24270W        W43804   5.264  16.767   3.264 -0.3987 -0.3748 -0.0250
24271W        W43805  16.119  12.546  12.579  0.1893 -0.2342  0.0008
24272W        W43806  10.207  15.854   2.273 -0.0018 -0.0768  0.4483
24273W        W43807  14.824  16.575  11.319 -0.0398 -0.2001 -0.0694
24274W        W43808  17.986  17.994   2.928  0.0543 -0.2443  0.2695
24275W        W43809  12.595   9.636  11.126 -0.1057  0.0201 -0.2102
24276W        W43810   2.798   6.071   3.001  0.0675  0.1768  0.2163
24277W        W43811  17.391  11.190  10.262  0.0257 -0.0638 -0.1700
24278W        W43812   5.248   0.603   3.633  0.1040  0.3443 -0.1540
24279W        W43813  11.869   1.444   3.865 -0.1993 -0.3526  0.0501
24280W        W43814  11.425  18.027   2.323 -0.0379 -0.1183  0.1649
24281W        W43815  11.472   5.720  13.079 -0.1514 -0.1031  0.0710
24282W        W43816   2.565  17.315  10.968 -0.0823 -0.0561 -0.2191
24283W        W43817   0.114  17.247   4.270  0.1181  0.3719 -0.1632
24284W        W43818   6.523  12.549   2.597 -0.2754  0.1706  0.0451
24285W        W43819   5.183   5.355   3.782  0.0669 -0.1897 -0.1651
24286W        W43820  16.051  18.937  14.477  0.0030  0.1690  0.1938
24287W        W43821   5.704  11.108  12.273 -0.5496  0.0954  0.0970
24288W        W43822  10.308   0.720   3.596  0.0707 -0.0461 -0.1322
24289W        W43823  15.894  16.342   1.724  0.1999  0.1832 -0.3105
24290W        W43824   4.593   8.637   0.365 -0.1274 -0.3097  0.0907
24291W        W43825  15.889  10.554   3.878 -0.0619 -0.1068  0.0210
24292W        W43826  12.655  15.901  13.058 -0.0504 -0.3743 -0.0782
24293W        W43827  11.067   4.070   3.160 -0.1101  0.1253  0.2063
24294W        W43828   5.213   8.977  13.451  0.1683  0.1360 -0.1967
24295W        W43829  10.751  18.747  11.299 -0.0459 -0.2428  0.0063
24296W        W43830  17.612   0.599  11.783  0.1682 -0.2905  0.1505
24297W        W43831   7.761   4.560   4.057 -0.2246  0.1979  0.0988
24298W        W43832   3.311  12.973  12.721  0.1368 -0.2449 -0.4019
24299W        W43833   3.846   2.275   2.587  0.0511 -0.1365  0.1205
24300W        W43834   4.501  18.973   2.959 -0.0224 -0.2369  0.2169
24301W        W43835   8.340   8.932  14.300 -0.2915 -0.2063  0.0442
24302W        W43836   4.671   8.108   0.339  0.0033  0.1498 -0.2279
24303W        W43837   3.508   7.023   2.186 -0.0479  0.2514  0.1191
24304W        W43838  17.360   7.427  10.833 -0.1028  0.4102 -0.2244
24305W        W43839  11.239  18.517   4.138  0.2533 -0.1329  0.2824
24306W        W43840  16.797   3.569   2.276 -0.2631 -0.0405  0.1038
24307W        W43841  16.799   5.155  12.123 -0.3577 -0.0060  0.0155
24308W        W43842   9.908   8.399  11.125 -0.1629  0.3282  0.0862
24309W        W43843  16.609   3.552   0.484  0.0262  0.4792 -0.0285
24310W        W43844  18.133   2.848  12.874 -0.0409  0.3119  0.0775
24311W        W43845   6.987  14.476   0.017 -0.4632 -0.0417 -0.0554
24312W        W43846  10.120   8.482   0.761  0.0096 -0.1330  0.0223
24313W        W43847   9.920   3.634   1.312  0.1115 -0.2733 -0.3606
24314W        W43848   1.966  11.184  12.787  0.2187 -0.0169  0.0945
24315W        W43849   4.186  13.696   2.458  0.1247 -0.1189 -0.2018
24316W        W43850   1.245   5.066   0.138  0.2498 -0.0599  0.1569
24317W        W43851  18.374   5.921   2.947 -0.1316  0.1411  0.1089
24318W        W43852  16.637   1.814   1.619 -0.0409 -0.1388  0.0703
24319W        W43853   8.614  17.815  14.202  0.1884  0.0897  0.0003
24320W        W43854   7.406  15.330   3.726 -0.0316 -0.0424 -0.0241
24321W        W43855   6.094   4.769  14.141 -0.0013  0.0680  0.1112
24322W        W43856  12.125   5.812   2.102 -0.0320 -0.1849 -0.0131
24323W        W43857  18.190  11.351   4.019 -0.0669  0.2413 -0.1811
24324W        W43858   7.111  17.936   0.486 -0.1214  0.0482 -0.1877
24325W        W43859  17.762  18.176   3.822 -0.0257 -0.3728 -0.0982
24326W        W43860   7.051   3.889   0.426 -0.1918  0.3646 -0.0623
24327W        W43861   4.219  17.668   0.309  0.0169 -0.1639 -0.1439
24328W        W43862   2.077   9.242   3.714  0.1857  0.0578  0.2444
24329W        W43863  12.183   7.947   2.573  0.2139 -0.2021  0.1358
24330W        W43864   8.311   7.307   4.189 -0.0006  0.0203  0.3282
24331W        W43865   0.322   0.099  14.350  0.1620 -0.1664  0.1518
24332W        W43866   9.736   8.795   4.215 -0.2931  0.4020  0.2319
24333W        W43867   4.930  16.300  13.653  0.2632 -0.2741  0.2114
24334W        W43868  15.733   2.928   4.815 -0.0839 -0.0459 -0.0094
24335W        W43869   1.198  17.649  11.368 -0.2405 -0.3451 -0.1132
24336W        W43870  12.006   0.447  14.073 -0.0793 -0.2289  0.2268
24337W        W43871   7.629   4.172   1.986 -0.2729  0.1012 -0.0596
24338W        W43872  12.847  11.323   4.390 -0.3302 -0.2244 -0.2688
24339W        W43873  17.461   4.193  14.093 -0.1655  0.2271 -0.4054
24340W        W43874  15.003  12.886   1.833  0.2143  0.1714 -0.0922
24341W        W43875  17.973  17.941  10.817  0.0091  0.0545 -0.2509
24342W        W43876   9.732  10.997  10.420  0.1014  0.0501  0.0069
24343W        W43877   8.011  11.553   3.971  0.2236 -0.0533  0.0248
24344W        W43878   3.787   6.443  13.388  0.0122 -0.0338 -0.0018
24345W        W43879   9.797   5.637  14.429  0.0321 -0.1352  0.3274
24346W        W43880  17.561   7.580  14.768 -0.0161 -0.4853 -0.1486
24347W        W43881   9.803   6.816  12.688  0.1675 -0.0696  0.2307
24348W        W43882   1.736   2.098   0.672 -0.2897 -0.0029  0.3359
24349W        W43883  18.823  13.986  11.698  0.1003  0.2222  0.1836
24350W        W43884   3.672   6.874  14.313  0.0778 -0.0091  0.1736
24351W        W43885  18.775   6.939  12.680  0.0699  0.2930  0.0849
24352W        W43886   9.297  18.915   3.892  0.0005 -0.3870  0.0137
24353W        W43887   7.435  17.221   0.954 -0.3700 -0.2581  0.1124
24354W        W43888   9.522  18.062   0.291 -0.0799  0.0911  0.0957
24355W        W43889   0.384  16.249   1.073 -0.0781  0.1549  0.0639
24356W        W43890  18.165  11.120   3.459  0.0873  0.1473 -0.1540
24357W        W43891  16.871  14.704   0.332 -0.0795 -0.2502  0.1037
24358W        W43892  13.229   9.241  10.601  0.0883  0.0515 -0.0549
24359W        W43893  13.083   9.229   4.612  0.0254  0.1101  0.0494
24360W        W43894  18.242   0.316  13.535  0.3560 -0.3949  0.0334
24361W        W43895  16.906  18.399  10.496  0.1916 -0.1497  0.1333
24362W        W43896  11.344   7.363   2.809  0.4278 -0.0054 -0.1856
24363W        W43897  19.015   3.829   1.951  0.1403 -0.1229 -0.1192
24364W        W43898   5.859  18.995  10.994  0.2375  0.0688 -0.1055
24365W        W43899   9.460   6.256   1.709 -0.0647 -0.0242 -0.0618
24366W        W43900   7.883  14.808  13.519 -0.2001 -0.0661  0.0051
24367W        W43901  15.996  18.695  11.864  0.1040  0.0713  0.2817
24368W        W43902   2.360  13.511   1.995  0.0249 -0.2070 -0.1431
24369W        W43903   5.007  17.281   3.250 -0.0623  0.2742  0.2624
24370W        W43904  13.850   3.919   2.246  0.0345  0.1628 -0.0493
24371W        W43905  13.885   1.734  13.828  0.3214 -0.0830  0.0258
24372W        W43906   6.575   3.845   1.903 -0.4173 -0.0701  0.1644
24373W        W43907   8.442   6.003  10.963 -0.2602 -0.0076  0.0647
24374W        W43908  16.070  15.038   2.270 -0.0515  0.2437 -0.0226
24375W        W43909  16.565   9.685  12.233 -0.0537 -0.0499 -0.2374
24376W        W43910   6.606   9.065   1.297  0.3521 -0.3345 -0.1240
24377W        W43911   0.419  12.533  11.932  0.0901 -0.1258  0.1179
24378W        W43912  19.029   1.001   1.893  0.0307 -0.4126  0.2233
24379W        W43913  15.103  16.638  13.506  0.0099  0.0308 -0.0134
24380W        W43914   3.703   5.220  14.720  0.1339  0.1204 -0.3557
24381W        W43915   3.471   9.876  12.674 -0.0525 -0.0652 -0.0030
24382W        W43916   0.871  15.294  11.397  0.3350 -0.1774  0.0205
24383W        W43917  12.246   3.791   4.036 -0.0428 -0.1569  0.2112
24384W        W43918  13.803  13.341  11.283  0.2348  0.2412 -0.3359
24385W        W43919   4.763   6.529   1.167  0.0777  0.1836  0.0744
24386W        W43920  18.364   1.768   1.863  0.1311  0.0106  0.2041
24387W        W43921   9.010   2.571   1.856  0.2782  0.0418  0.2629
24388W        W43922  12.538   0.963  12.717  0.2207 -0.0289 -0.0958
24389W        W43923   8.124  12.809  13.968 -0.1617 -0.0375  0.1738
24390W        W43924   7.461   6.428   2.675  0.2966 -0.1117 -0.0574
24391W        W43925   6.318  14.286   2.859 -0.1778  0.0332 -0.0688
24392W        W43926   1.484   6.804  11.982 -0.1644  0.0850 -0.1930
24393W        W43927   1.543  18.066  10.243  0.1130  0.0072  0.0728
24394W        W43928   0.504   4.343  13.200  0.0044 -0.3342 -0.0781
24395W        W43929   3.742   9.313  13.235 -0.3170  0.2129  0.1398
24396W        W43930   7.345   1.271   3.218 -0.1584 -0.0587 -0.1458
24397W        W43931   6.775   5.258  14.360  0.0978  0.1904  0.0190
24398W        W43932  15.447  16.178  12.197  0.0095  0.2122 -0.1052
24399W        W43933   5.207   0.284   4.565  0.0141  0.1544 -0.1274
24400W        W43934   9.068   7.862   2.454 -0.0224 -0.0353  0.1780
24401W        W43935  12.654  18.889  14.268  0.0432  0.0081  0.1064
24402W        W43936  11.237   0.913  14.538 -0.2130 -0.2666 -0.0052
24403W        W43937   8.186  14.394  13.780  0.3835  0.1760 -0.3254
24404W        W43938  11.568   6.176  10.894  0.2376  0.0095 -0.5513
24405W        W43939  17.467   7.368   2.252 -0.1228 -0.1188 -0.1732
24406W        W43940   3.830   4.872   0.438 -0.2307 -0.1002  0.3514
24407W        W43941   0.335   1.296   1.745  0.2199  0.2031 -0.1091
24408W        W43942   2.476  15.747  13.321  0.0081 -0.4066  0.4252
24409W        W43943   9.297   1.028   3.580 -0.2801 -0.1703 -0.1973
24410W        W43944   0.958   6.401   2.768  0.4023 -0.1084  0.1805
24411W        W43945   7.234  14.181   2.532  0.3401  0.2463 -0.2311
24412W        W43946   4.156  12.936  11.380  0.0606 -0.0194 -0.0675
24413W        W43947  12.668  17.474  13.954 -0.0055 -0.3806 -0.4590
24414W        W43948  15.709  17.776   0.474 -0.2813 -0.0431 -0.0361
24415W        W43949   1.710  12.062  13.972  0.3243 -0.1956  0.2603
24416W        W43950  14.144   8.662  13.798 -0.2801 -0.0355  0.0136
24417W        W43951   7.388   8.590   4.559  0.0251  0.0780 -0.0241
24418W        W43952  14.703  11.436  14.832  0.1792  0.0651 -0.2100
24419W        W43953  15.000   1.021   1.980  0.0570  0.1237  0.1253
24420W        W43954   0.603   3.266   2.602 -0.0543 -0.0645  0.3983
24421W        W43955   3.650  10.647  11.110 -0.0316 -0.2031  0.1675
24422W        W43956  18.013  13.519  10.530  0.2607  0.0536  0.1589
24423W        W43957   8.008   0.523  12.725  0.1364 -0.1576 -0.0134
24424W        W43958  12.374   0.957  13.984  0.0425 -0.1018  0.0197
24425W        W43959   9.542  16.872  12.972  0.3555 -0.0290  0.1927
24426W        W43960   8.897   8.282  11.521 -0.0973 -0.1711  0.0739
24427W        W43961   8.598  10.285   2.786  0.0063 -0.0013 -0.3191
24428W        W43962   4.676  11.842   1.105  0.0982  0.0477  0.0269
24429W        W43963  13.950  16.460   3.032  0.0220 -0.5010  0.0224
24430W        W43964   6.892  10.178   3.855 -0.1980 -0.1194 -0.4373
24431W        W43965   2.741   6.164  13.520 -0.1002  0.2931  0.3955
24432W        W43966   6.115   8.478   1.292  0.2514  0.0426  0.1070
24433W        W43967   6.889  18.070   4.468 -0.0202 -0.2019 -0.2263
24434W        W43968  17.236  17.702  14.115  0.0995 -0.0542  0.2320
24435W        W43969  18.167  11.987   0.328  0.4294  0.0823  0.0737
24436W        W43970  12.151   3.006  11.098  0.0369 -0.0274  0.0259
24437W        W43971   6.841  13.115  12.159  0.1989 -0.1176  0.2762
24438W        W43972   2.480  12.224  14.131 -0.0765  0.2575  0.0210
24439W        W43973  11.011   3.138  10.990 -0.1701 -0.0523  0.0601
24440W        W43974   2.899   0.789   3.247 -0.0117  0.1059  0.3525
24441W        W43975  12.664  17.033  11.003  0.0853  0.2079 -0.2994
24442W        W43976  14.575   5.993  11.358 -0.0363 -0.0143  0.0908
24443W        W43977  18.486   1.709  13.075  0.2379  0.1729 -0.2701
24444W        W43978   5.739  12.800   1.969  0.3832  0.1002 -0.1453
24445W        W43979   3.718   2.713   0.682  0.1736 -0.1441 -0.1416
24446W        W43980   6.419   4.236  14.210  0.1763  0.2936  0.1473
24447W        W43981  17.959   6.591   3.387  0.0604 -0.0723  0.0478
24448W        W43982   0.028   0.530   1.312 -0.1660 -0.3612 -0.3416
24449W        W43983   2.632  18.392  13.830  0.4223  0.0618 -0.0561
24450W        W43984  12.424   8.001   0.941  0.2311 -0.2417  0.1071
24451W        W43985   9.489   1.893  13.187  0.1681  0.0185  0.2054
24452W        W43986  18.083  18.834   0.099  0.1824 -0.0061 -0.3441
24453W        W43987  16.920  16.666  14.800 -0.2205  0.0514  0.0107
24454W        W43988   1.875   3.716   3.782  0.1483  0.0458 -0.1497
24455W        W43989   5.842  11.338  13.914 -0.1058 -0.0527  0.1164
24456W        W43990  13.688  14.484   0.570  0.0576 -0.0473 -0.2100
24457W        W43991   3.608  15.352  13.877  0.0085 -0.1099 -0.0927
24458W        W43992   3.797   8.756  11.408 -0.0953  0.2897  0.1343
24459W        W43993   2.257   7.328  12.751  0.0677 -0.3199  0.1319
24460W        W43994  17.805   8.690   3.999  0.1278  0.0982 -0.0227
24461W        W43995  10.405  17.871  11.436  0.2471  0.1346 -0.0305
24462W        W43996   2.920   4.016  10.701 -0.0512  0.1059  0.1212
24463W        W43997  10.055   5.519   1.533 -0.2067  0.3875 -0.0101
24464W        W43998  14.065  18.495  14.340 -0.1392 -0.1041  0.2244
24465W        W43999  16.057   2.590   1.935  0.2690 -0.3578 -0.1135
24466W        W44000   9.005   4.941  12.777 -0.2600  0.0315 -0.1088
24467W        W44001  15.644   0.915   0.584 -0.0791  0.0136 -0.1823
24468W        W44002  15.695   9.350   4.390  0.0618  0.0078  0.0117
24469W        W44003  14.672  16.236   2.556  0.1518  0.0657 -0.1209
24470W        W44004  16.436  12.576  11.342 -0.1000 -0.0290  0.3106
24471W        W44005  16.896  12.385   3.931  0.1780 -0.0137  0.1019
24472W        W44006  18.862  17.805  12.330  0.2218 -0.1592  0.2120
24473W        W44007  14.876   8.456   4.096 -0.2579  0.0061  0.2170
24474W        W44008  18.878  18.082   3.388 -0.1597  0.4293  0.0722
24475W        W44009   2.846  14.178   4.494 -0.1729 -0.0868 -0.5138
24476W        W44010   5.033   3.775  13.270 -0.1847 -0.3034 -0.1204
24477W        W44011   9.658   6.819   1.099 -0.1511 -0.0397  0.0475
24478W        W44012   0.080   2.697   0.015  0.1531  0.0376 -0.0158
24479W        W44013   5.991   9.517   2.674 -0.0357 -0.1070  0.1148
24480W        W44014   2.906  11.256   1.414  0.1930 -0.1562  0.2678
24481W        W44015  18.196  15.356  10.540  0.1683  0.1865  0.0571
24482W        W44016   0.629   0.570  14.222  0.1532 -0.0572 -0.1846
24483W        W44017   3.006   5.701  11.723 -0.2379  0.0580 -0.4142
24484W        W44018  10.622   6.635  11.088 -0.3915 -0.0529  0.0596
24485W        W44019  14.131  16.137   1.124 -0.0764 -0.0294 -0.1115
24486W        W44020   3.932   2.433   4.215  0.3737  0.2716  0.1775
24487W        W44021  16.882   7.989  12.576 -0.1256  0.0098  0.0634
24488W        W44022  15.228   5.614   1.368  0.0160  0.0080  0.4197
24489W        W44023  10.448  18.372  13.786 -0.2502  0.1029  0.1597
24490W        W44024   3.956   6.837   1.895  0.2280 -0.3286  0.2372
24491W        W44025  10.315  12.343  11.079 -0.2450 -0.0224  0.0215
24492W        W44026  17.151   9.541   2.093 -0.0198  0.0564  0.0882
24493W        W44027  11.740   4.460   4.637 -0.2484  0.1085  0.0774
24494W        W44028   6.355   5.351  13.967 -0.1501 -0.2414 -0.1373
24495W        W44029   6.365  15.520   0.759 -0.0017  0.2649  0.0737
24496W        W44030  12.621   3.076  13.052 -0.0202  0.0523 -0.0070
24497W        W44031  10.485  18.256   3.724  0.2922  0.3056 -0.1203
24498W        W44032   1.452  11.936   0.473  0.1544 -0.2081 -0.1172
24499W        W44033   4.427  12.537  11.107 -0.0252 -0.2739 -0.2232
24500W        W44034   9.463   4.517  14.261 -0.1619 -0.3249 -0.0379
24501W        W44035   3.403   2.498   2.531 -0.1713  0.1331  0.0127
24502W        W44036  10.952  10.418  13.767 -0.1329  0.0135 -0.1503
24503W        W44037   8.511  17.132  11.894  0.0337  0.1068 -0.1380
24504W        W44038   1.302  12.834  13.803 -0.0637  0.0799  0.0175
24505W        W44039   5.048   1.800  13.528  0.2981  0.1209  0.0941
24506W        W44040   0.260   1.450   3.849  0.2992 -0.2332  0.0834
24507W        W44041   4.099   6.021   5.038  0.1392  0.2612 -0.3118
24508W        W44042   8.393  18.517   1.212 -0.2990  0.0421 -0.1832
24509W        W44043   4.504   5.613  11.813  0.0775  0.1542 -0.1270
24510W        W44044  10.057   2.020  14.770  0.0799  0.1005 -0.3576
24511W        W44045  11.787   4.922   3.756 -0.1254  0.0693 -0.1599
24512W        W44046   4.319  11.520  11.972 -0.2513 -0.1570  0.0277
24513W        W44047   6.174  13.697   3.066  0.1178 -0.0427 -0.1531
24514W        W44048   1.870   7.882   0.894 -0.0261 -0.0462 -0.1496
24515W        W44049  13.884  12.189   1.004  0.1573 -0.1268 -0.4581
24516W        W44050  12.256   2.104   4.307  0.0654 -0.1999  0.0642
24517W        W44051   6.548  11.508   3.244 -0.1711 -0.1631 -0.0388
24518W        W44052  16.560   8.721   2.459  0.0992  0.0167  0.0550
24519W        W44053   4.062   0.791   9.606  0.2914  0.0972  0.1315
24520W        W44054   8.402   4.879   0.598  0.0708  0.1160  0.0989
24521W        W44055   6.574   1.352   2.774  0.3655  0.0860 -0.4099
24522W        W44056   7.068   3.542  12.887 -0.2050  0.1916  0.1451
24523W        W44057  15.329   4.998  14.271  0.2732 -0.0993 -0.0971
24524W        W44058  13.556  17.575  12.003 -0.0750 -0.0764 -0.2902
24525W        W44059   5.564  16.034  13.055  0.1510 -0.5214  0.0075
24526W        W44060  14.668   2.920   0.784 -0.1382  0.0547 -0.0195
24527W        W44061  10.518   3.219  14.689 -0.0080 -0.1657 -0.1091
24528W        W44062  10.737   1.542  12.340 -0.0464  0.1568  0.0369
24529W        W44063  16.815  16.215   0.073  0.0302 -0.0935  0.1772
24530W        W44064  12.758  11.121   1.125  0.1770  0.0845 -0.0343
24531W        W44065  14.944   8.623  12.628  0.1336 -0.2342 -0.1086
24532W        W44066  17.925   9.796   3.161 -0.1127 -0.1019 -0.3752
24533W        W44067   7.643  19.044   1.135  0.0872 -0.0044 -0.2595
24534W        W44068   8.487  16.843  13.713 -0.2752 -0.0291 -0.0361
24535W        W44069  14.480   8.550  10.814  0.2019 -0.1157 -0.0126
24536W        W44070  13.454  10.606   0.758 -0.0133  0.1878  0.3051
24537W        W44071  11.578   0.085  13.265  0.0147 -0.1764  0.0772
24538W        W44072   9.911  17.066  12.375  0.1951  0.2950 -0.3110
24539W        W44073   9.464  18.149   0.751 -0.1884 -0.0045  0.1749
24540W        W44074   1.503   9.156   3.437  0.0963  0.1459 -0.0524
24541W        W44075  14.908  15.713   2.402 -0.1180  0.0624 -0.0903
24542W        W44076  13.183  18.811   0.767  0.0628 -0.0803  0.0610
24543W        W44077   6.725   3.200  13.096 -0.0204  0.1798  0.0900
24544W        W44078   4.633   9.784   4.473  0.0573 -0.0082 -0.3692
24545W        W44079  11.459   8.857   2.142 -0.4300 -0.0412  0.0737
24546W        W44080  17.893  16.956  14.219 -0.0298  0.1764  0.0240
24547W        W44081   9.021  13.452  10.944 -0.0092 -0.2843  0.2076
24548W        W44082  16.900   5.293   1.925 -0.0639  0.0631  0.0275
24549W        W44083   8.795  14.521  11.205  0.0311  0.0953  0.1478
24550W        W44084  17.160   6.498   1.865 -0.3045  0.0978 -0.4083
24551W        W44085  17.489   5.045  14.227 -0.3368 -0.2278 -0.1139
24552W        W44086   8.888  11.061   1.435  0.0955 -0.0338 -0.1288
24553W        W44087   7.960   1.880  14.130  0.0619  0.1919 -0.2803
24554W        W44088  14.436   9.139   0.314  0.1253  0.0666 -0.0749
24555W        W44089   0.251  16.458  12.509  0.0210  0.1334 -0.2110
24556W        W44090   2.632  10.588   4.571  0.0485  0.3692  0.2060
24557W        W44091   6.960  10.644  14.085 -0.2044  0.1061 -0.2236
24558W        W44092  11.857   2.204   3.083  0.3403 -0.0314  0.3640
24559W        W44093  18.195  14.722  11.567 -0.2623 -0.2024  0.5864
24560W        W44094   7.803  15.032   2.593 -0.0361  0.0760  0.3583
24561W        W44095   2.838   8.867  13.311 -0.2975  0.1825 -0.1001
24562W        W44096   3.600  18.286  12.214  0.0998  0.2844  0.0192
24563W        W44097   6.441  15.048   3.807 -0.3503 -0.0924 -0.1393
24564W        W44098  10.588  16.451   4.266  0.3113  0.1199 -0.0007
24565W        W44099   2.910   0.781   5.016 -0.2716  0.4347  0.0239
24566W        W44100  13.016  11.920  13.525 -0.0058 -0.0422 -0.1133
24567W        W44101   2.233  17.981  12.925  0.4282 -0.0244 -0.1108
24568W        W44102   6.061  10.117  10.988 -0.0202 -0.0632  0.0764
24569W        W44103   5.308  11.732   3.664  0.0059  0.1625  0.0403
24570W        W44104   7.854  11.641  12.769 -0.0760  0.3465 -0.0017
24571W        W44105  13.358  17.223   3.052 -0.1029 -0.0357 -0.3316
24572W        W44106   2.983   5.683  14.189  0.5765  0.4063  0.0966
24573W        W44107  18.691  15.702  14.377 -0.1137  0.0933  0.1476
24574W        W44108  10.181   8.806   3.473  0.0680 -0.0253 -0.1101
24575W        W44109  16.078  16.650  11.859  0.0514  0.0520 -0.0216
24576W        W44110   6.222   3.473   2.896 -0.0361  0.1072 -0.0097
24577W        W44111   0.652   7.203  11.000  0.0443 -0.0516 -0.0950
24578W        W44112   8.552  12.530  13.686 -0.0050 -0.0368  0.1132
24579W        W44113   6.755   9.465  10.776  0.0230 -0.0630  0.5585
24580W        W44114  13.343  17.873   2.458  0.1358  0.1900 -0.0574
24581W        W44115  17.524  16.238   1.205  0.0923  0.3179 -0.1455
24582W        W44116  18.051  15.847   0.180 -0.2250 -0.2116  0.2585
24583W        W44117   4.583  18.390   3.854 -0.1241 -0.1387  0.0316
24584W        W44118   0.650  16.500  14.318  0.0740  0.0032 -0.3538
24585W        W44119  17.483  10.404   0.393 -0.0005  0.1003  0.1034
24586W        W44120   0.041  16.785  13.443 -0.1708  0.4008  0.0027
24587W        W44121  16.972   9.398   2.671  0.0647  0.1466  0.1636
24588W        W44122  10.231  14.453  13.331 -0.2967  0.1105 -0.0326
24589W        W44123  14.909   1.564  14.519 -0.1395  0.2917 -0.3048
24590W        W44124   3.820   8.413   4.481 -0.1311 -0.1808  0.2263
24591W        W44125   4.022   0.864  14.767  0.0665  0.1045  0.1660
24592W        W44126   4.179   3.486   4.231 -0.1412 -0.2070  0.2000
24593W        W44127   4.825  18.306   1.592 -0.0165 -0.1674  0.2505
24594W        W44128  10.976  16.032   4.053  0.0520 -0.2992 -0.2071
24595W        W44129  14.426   7.517   9.405  0.2175  0.0340 -0.3833
24596W        W44130  12.502  13.680   1.773  0.0938 -0.1578 -0.3009
24597W        W44131   2.218   6.491   4.208  0.0698  0.0754 -0.1985
24598W        W44132   0.712   6.506  10.443  0.2021 -0.2264 -0.4084
24599W        W44133  14.557  10.872  13.891  0.0852  0.2197 -0.0078
24600W        W44134  14.666   0.552  14.412  0.0355 -0.2658 -0.0299
24601W        W44135  12.883  14.550  11.843  0.1055  0.1843  0.0961
24602W        W44136  12.197  11.694  11.612 -0.3530  0.0596 -0.3502
24603W        W44137   3.349   5.428   0.147  0.1014 -0.1213 -0.0728
24604W        W44138   8.456   1.478  12.138 -0.1371 -0.1475 -0.1947
24605W        W44139  16.790   2.839  12.066 -0.0754 -0.0406  0.2275
24606W        W44140  10.388   4.103  11.534  0.0234  0.2988  0.2716
24607W        W44141   8.895  10.730   3.614 -0.0982  0.2126  0.0148
24608W        W44142  17.372   3.938  11.127 -0.0134  0.3184 -0.0920
24609W        W44143  12.208   8.184  11.362 -0.0691 -0.3128  0.1729
24610W        W44144   4.493   4.423   2.591  0.2290  0.2291 -0.0589
24611W        W44145   6.303   1.989  10.806 -0.1117  0.0273  0.1767
24612W        W44146   5.675  11.169   1.448  0.2753 -0.0026 -0.2496
24613W        W44147   4.786   2.950  13.147  0.0278 -0.0449 -0.3328
24614W        W44148   4.240  16.069  13.627 -0.0290 -0.3577 -0.1794
24615W        W44149   9.659  17.722  14.679  0.0860 -0.2384 -0.0107
24616W        W44150   2.307   4.928   1.077 -0.1417 -0.3943  0.1243
24617W        W44151   4.255  18.263  11.234  0.0274 -0.0456 -0.0137
24618W        W44152   8.796   9.298   2.083 -0.0985 -0.1149 -0.0165
24619W        W44153  17.627   2.641   3.890  0.3890  0.1571 -0.0059
24620W        W44154  16.410   6.708   0.015 -0.2965 -0.0186  0.2491
24621W        W44155   3.131  18.851   1.994  0.0439 -0.0160  0.1294
24622W        W44156   6.079   7.745   3.236  0.1996 -0.1040  0.0317
24623W        W44157  11.456   0.578   0.525  0.2079  0.1040 -0.0867
24624W        W44158  18.135  11.909  12.386  0.0638  0.0640  0.0031
24625W        W44159  17.952  12.280   4.144 -0.1576 -0.0049  0.0863
24626W        W44160  16.445   8.093  13.286  0.2842  0.0154  0.3323
24627W        W44161   8.661  14.138  12.388 -0.0897 -0.0271  0.0744
24628W        W44162  15.333   0.914   0.201 -0.3120  0.0994 -0.2673
24629W        W44163  13.613  16.092  11.609 -0.0154 -0.0965  0.3217
24630W        W44164   7.534   3.598  14.072 -0.1556  0.1414  0.4230
24631W        W44165  10.348  17.197   2.867 -0.1063  0.3114  0.1120
24632W        W44166   8.068   1.532   2.493  0.1856 -0.0058  0.2357
24633W        W44167   2.264   2.754   1.883  0.2980  0.2378 -0.5321
24634W        W44168   8.094   9.501   4.017  0.0551 -0.0365  0.0398
24635W        W44169  12.709   9.828   0.530 -0.2281  0.0174  0.0107
24636W        W44170  18.575   2.634   3.329  0.1099 -0.0033 -0.0683
24637W        W44171  13.402   0.737   3.721 -0.1885 -0.1579 -0.2931
24638W        W44172  18.826  14.414  14.735  0.4368 -0.1245 -0.0179
24639W        W44173   7.525   3.443   3.276  0.0651  0.1791  0.0153
24640W        W44174  16.971   3.032   3.577 -0.1576 -0.1785  0.3093
24641W        W44175  12.177  16.842  13.128 -0.4918  0.1478  0.2397
24642W        W44176  14.442   9.186   2.038  0.1811 -0.0412  0.1937
24643W        W44177   0.341   0.773  13.816  0.0784  0.1204  0.1267
24644W        W44178   5.272  13.389   0.141 -0.1363  0.0513 -0.2246
24645W        W44179  14.249   3.055   1.059  0.2218  0.0283 -0.2581
24646W        W44180   1.652  12.122   3.655 -0.1981  0.4227  0.0069
24647W        W44181   5.186  16.210  12.749 -0.0677 -0.1376  0.3046
24648W        W44182  16.809   6.459  12.396  0.0730  0.1326 -0.3149
24649W        W44183  17.727   5.325  13.368 -0.0608 -0.2169 -0.0396
24650W        W44184   5.562   6.000   2.220 -0.0574 -0.1047  0.1905
24651W        W44185  17.415  13.059   0.068  0.2384 -0.1970 -0.0645
24652W        W44186   3.797  18.486  11.439 -0.0901 -0.1745 -0.0644
24653W        W44187  12.672   3.691  12.083 -0.3006  0.1117  0.0834
24654W        W44188   1.173  19.017  11.858 -0.0224  0.0742 -0.2757
24655W        W44189   2.346  17.950   2.021 -0.0640  0.3264  0.2478
24656W        W44190  11.603   3.974  14.455  0.1603  0.0961  0.2752
24657W        W44191   4.468  16.413  14.291 -0.1947  0.3407  0.2919
24658W        W44192  17.418  17.994  13.736  0.0502 -0.2064  0.0634
24659W        W44193   4.935  13.053   4.178  0.2203  0.1151  0.0751
24660W        W44194  15.230  15.529  12.789 -0.0412  0.0077  0.0583
24661W        W44195  12.931   2.553  11.975 -0.1604  0.1267  0.0141
24662W        W44196  17.579   7.338   0.319  0.2546  0.0007 -0.1034
24663W        W44197  12.433   7.816  12.809  0.1285 -0.2871 -0.3361
24664W        W44198  16.139   6.743  12.943  0.0361 -0.0919  0.2119
24665W        W44199  16.435   3.731   0.007  0.0585  0.2364 -0.0410
24666W        W44200   5.430  13.904   1.343  0.1282 -0.0845  0.1399
24667W        W44201  17.832  16.942   2.292 -0.2647 -0.2534  0.3445
24668W        W44202   8.246   6.621   0.019 -0.2004  0.1399 -0.0731
24669W        W44203   6.388  15.484   1.946  0.1967  0.0745 -0.1822
24670W        W44204  13.184  16.673   0.788  0.1453  0.2043  0.2285
24671W        W44205   2.373  17.210   1.432 -0.2210  0.1391 -0.2476
24672W        W44206  18.052   0.735   1.502 -0.0256 -0.3612 -0.0352
24673W        W44207   5.511   1.171  12.917 -0.0007 -0.0775 -0.1847
24674W        W44208  16.984   7.217  12.065  0.3000 -0.3272 -0.1854
24675W        W44209   6.460   3.409  10.730  0.5345  0.2260 -0.3197
24676W        W44210  18.468  11.656  14.704 -0.0606  0.2509  0.0176
24677W        W44211  18.927  16.021  14.088 -0.3324  0.0248  0.1740
24678W        W44212   9.550   8.531  14.592 -0.0695 -0.3612  0.2745
24679W        W44213   2.119  10.077   4.300 -0.0078 -0.0553 -0.1202
24680W        W44214   9.603   9.695   1.447 -0.1093  0.1623  0.1799
24681W        W44215  15.850   8.326  11.332  0.2289  0.0211 -0.0579
24682W        W44216   6.188  16.274   4.110  0.0903 -0.4244 -0.1942
24683W        W44217  16.535  16.287   2.923 -0.2755  0.3038  0.1839
24684W        W44218  11.998  17.092  11.725 -0.1598 -0.0192 -0.3971
24685W        W44219   3.684  10.162   1.957 -0.0957  0.1561 -0.0401
24686W        W44220  14.348   4.682  14.731  0.1526  0.1371 -0.1618
24687W        W44221   7.070  17.871   2.594  0.1679 -0.0717 -0.0740
24688W        W44222  14.840   1.126  14.221 -0.2377 -0.0810 -0.3411
24689W        W44223  15.688  17.072   4.365  0.0191 -0.0160 -0.1202
24690W        W44224  11.657  10.417  11.606  0.1621 -0.0440 -0.1364
24691W        W44225  17.093   4.591   4.548 -0.0829  0.0639  0.1791
24692W        W44226   1.831  14.978  13.204  0.0773 -0.2005 -0.1054
24693W        W44227   9.898  14.634  13.000 -0.0711  0.0006  0.0256
24694W        W44228   6.725  14.514  13.419 -0.1575 -0.3556 -0.0295
24695W        W44229  12.830   4.262  13.980 -0.0049  0.0796  0.3906
24696W        W44230   9.109  11.581  12.298 -0.1103  0.1903 -0.0405
24697W        W44231  12.803   1.561  11.696 -0.0568  0.0216 -0.1696
24698W        W44232  15.387   0.762   4.502 -0.0513  0.0417  0.0976
24699W        W44233  17.322  14.702   0.067  0.1323  0.0907 -0.0389
24700W        W44234  10.253   6.491   0.405 -0.0415  0.1413 -0.1740
24701W        W44235  15.738   8.560  11.807  0.1844  0.1022  0.2673
24702W        W44236  16.935   0.055  13.709 -0.1148 -0.1532  0.2939
24703W        W44237   9.347  12.131   4.013 -0.1417 -0.0004  0.0401
24704W        W44238  10.215   0.260  12.842 -0.1156 -0.4165 -0.1043
24705W        W44239   8.124  16.357  10.167  0.0973  0.1001 -0.3300
24706W        W44240   6.198  17.337  13.313 -0.3171 -0.3837 -0.4046
24707W        W44241   4.379  15.442  12.026  0.0783  0.1956  0.1458
24708W        W44242  12.934  17.959  13.237 -0.0116 -0.3285 -0.1862
24709W        W44243   5.993  11.312   3.015 -0.2921  0.1681 -0.0294
24710W        W44244   3.571   3.018   1.652 -0.0865 -0.1557  0.0156
24711W        W44245  18.212  17.166  13.697 -0.3127 -0.2122  0.2265
24712W        W44246  13.146   7.725   4.750 -0.0178  0.1573 -0.2183
24713W        W44247   6.520   5.296   1.511  0.0186 -0.0417 -0.1321
24714W        W44248  11.306  13.684  11.080  0.1969  0.0147  0.0487
24715W        W44249   9.087   2.161  13.639 -0.2013  0.2134 -0.2848
24716W        W44250  17.250  10.881  12.058 -0.2907 -0.1681 -0.1272
24717W        W44251   9.134   3.507   0.179 -0.0859  0.2699  0.1450
24718W        W44252   6.922   1.082  14.749 -0.1210  0.2890 -0.2749
24719W        W44253   8.610   1.917  12.385 -0.0353  0.2425  0.0113
24720W        W44254   8.751  17.992   3.443  0.3206  0.1166  0.1865
24721W        W44255   8.962  12.432   4.189 -0.0016  0.0830 -0.3575
24722W        W44256  13.011  14.683   2.075 -0.0749 -0.1586 -0.0174
24723W        W44257  17.987   0.955  12.129 -0.2903  0.1895  0.1466
24724W        W44258   8.367  17.272  12.894 -0.2326 -0.0147  0.0300
24725W        W44259  14.477  14.162  14.182  0.1480 -0.0112  0.1181
24726W        W44260   6.091   8.424  13.981  0.0699 -0.0764 -0.5449
24727W        W44261   4.931  15.090  11.792  0.1097 -0.3175 -0.1871
24728W        W44262   6.974   2.069  13.637  0.2172  0.1746  0.1607
24729W        W44263   3.835  11.565  12.052  0.0552 -0.3217  0.2296
24730W        W44264  17.928   0.388   9.218 -0.2433 -0.1008 -0.1147
24731W        W44265  13.503   3.531  11.536 -0.3448  0.0409 -0.0743
24732W        W44266  17.341  14.502  10.340  0.0789 -0.0126 -0.0255
24733W        W44267  16.350   9.849   1.051  0.3498  0.0278 -0.2816
24734W        W44268  10.471  12.908   2.845 -0.2366  0.1985  0.0935
24735W        W44269  15.716   3.830  11.753  0.2912 -0.4037  0.1155
24736W        W44270   0.877   7.569   2.091  0.0620 -0.0434 -0.2985
24737W        W44271  18.533  15.483  12.124  0.1730 -0.0831  0.2474
24738W        W44272  15.241   3.797   3.063 -0.1019 -0.0230  0.2781
24739W        W44273   8.472   6.599  11.443  0.3504  0.0354  0.1213
24740W        W44274   0.147  12.902  10.897 -0.0239 -0.0225  0.1701
24741W        W44275  13.512   2.393  12.944 -0.0270  0.0644  0.1030
24742W        W44276  14.798  12.428  11.410  0.2386 -0.3667 -0.1564
24743W        W44277  19.046   0.928  11.763  0.2978 -0.0286 -0.0117
24744W        W44278   5.194  10.904   1.427  0.0489 -0.2374  0.0707
24745W        W44279  18.026  12.828  13.618  0.0971  0.1723  0.2963
24746W        W44280  19.070   5.636  11.236  0.2696 -0.0156 -0.0862
24747W        W44281   2.294  14.748  13.628 -0.1781 -0.3436 -0.0821
24748W        W44282   8.566  15.847   1.407  0.0679  0.1367 -0.0456
24749W        W44283   7.717  17.966   3.427 -0.2133  0.0919  0.1098
24750W        W44284  15.660   4.472   3.448 -0.3167  0.0435  0.2399
24751W        W44285   4.301   3.807  12.394  0.3593 -0.1053  0.0113
24752W        W44286  11.165  17.947   4.183 -0.2277 -0.1710 -0.1324
24753W        W44287  15.228   7.260  11.256 -0.0510  0.0872 -0.0487
24754W        W44288   5.858  11.009  11.138  0.2926  0.3328  0.0712
24755W        W44289  11.432   4.412  14.388 -0.0671 -0.3873 -0.0472
24756W        W44290  17.373   7.147   0.720  0.3082 -0.0540 -0.1120
24757W        W44291   6.409   0.687   0.731 -0.0728 -0.1679  0.1529
24758W        W44292  11.756  16.602  14.385 -0.1769  0.4438  0.0634
24759W        W44293   7.512   2.084  12.791 -0.2964  0.4938 -0.0889
24760W        W44294   0.514  11.179  11.301  0.0466 -0.0934 -0.2112
24761W        W44295  14.758   3.771  14.004 -0.2490  0.1549 -0.0407
24762W        W44296  14.374  18.525   5.175 -0.1099 -0.2796  0.1531
24763W        W44297   8.350   5.433   0.820  0.0603  0.1937 -0.2123
24764W        W44298  12.038   9.022  10.987 -0.3764  0.1694 -0.6333
24765W        W44299  16.914  18.532   1.541 -0.2408  0.1739  0.1685
24766W        W44300  16.020  12.545   0.736  0.0866  0.0158  0.1451
24767W        W44301   7.924  15.029  10.673  0.0674  0.1296  0.4050
24768W        W44302  14.444   7.396   1.328  0.3809 -0.1065 -0.0918
24769W        W44303   4.375   7.828   4.975 -0.2130 -0.2301  0.3067
24770W        W44304   9.914  14.319   0.403 -0.1451  0.3482 -0.1014
24771W        W44305   4.434  13.773  13.043  0.0243 -0.1776 -0.0059
24772W        W44306   9.860   3.712  12.050 -0.2079  0.0781 -0.3616
24773W        W44307  14.567  17.429  10.990  0.1078 -0.0908  0.0846
24774W        W44308   5.953  14.759  12.975 -0.0615  0.1018  0.2355
24775W        W44309  16.939  12.036  11.600  0.0848 -0.1791 -0.2071
24776W        W44310   7.945   8.605  14.492 -0.1846 -0.2561 -0.1265
24777W        W44311  15.238   5.150  12.653 -0.1436 -0.0912  0.1685
24778W        W44312  18.717   1.843   0.273  0.2575  0.0150  0.0479
24779W        W44313  10.488   0.638  11.503  0.3529 -0.1144  0.0185
24780W        W44314  16.403  12.979   1.529  0.0122  0.0135 -0.0862
24781W        W44315   5.623   0.109  12.961 -0.2290  0.0321  0.0620
24782W        W44316   2.733   2.896  14.314 -0.2447 -0.0704 -0.2741
24783W        W44317   2.421   0.462   0.495  0.0008 -0.0331 -0.2186
24784W        W44318  10.824   9.785  11.595  0.1577 -0.1093  0.2028
24785W        W44319  16.160  13.400   1.482 -0.1420 -0.1981 -0.0690
24786W        W44320   7.329  11.882   0.623  0.5045  0.0034 -0.2096
24787W        W44321  14.094   0.134  13.116  0.1233 -0.1461 -0.0035
24788W        W44322  16.848  15.211   0.442  0.0513 -0.3197  0.2395
24789W        W44323   6.072  13.227   2.074  0.3082  0.1991 -0.0388
24790W        W44324  16.565  13.673   3.641 -0.0269 -0.1444 -0.0358
24791W        W44325   0.997  15.567  13.132  0.2764  0.2914  0.0138
24792W        W44326   0.394   6.441  11.933 -0.2679 -0.1086 -0.0386
24793W        W44327   3.627   4.645  11.278  0.0423  0.3145 -0.0353
24794W        W44328  11.521  15.932   0.273  0.0691  0.1973  0.0808
24795W        W44329  17.853   4.196  12.377  0.2040 -0.2672 -0.1110
24796W        W44330   4.777  16.596  13.087  0.0010 -0.0618  0.0429
24797W        W44331  13.658   2.226   1.873  0.3976  0.0703  0.1303
24798W        W44332  10.692   5.590  11.846 -0.0374 -0.2394 -0.2496
24799W        W44333  14.438  13.079   4.019 -0.2100 -0.0524 -0.1630
24800W        W44334   0.014   9.294   4.014 -0.0311 -0.0508 -0.1307
24801W        W44335   8.473  18.214   5.141  0.0472  0.3502 -0.0568
24802W        W44336  17.651   8.863   2.185  0.1117  0.0100 -0.2217
24803W        W44337  11.793   3.400   2.291 -0.1402  0.0631  0.1540
24804W        W44338   6.880   4.163  12.898 -0.2012  0.2576 -0.0034
24805W        W44339   1.820   8.809   3.181  0.3715 -0.0287 -0.3760
24806W        W44340   0.320   7.209  14.099 -0.2759 -0.0476 -0.1548
24807W        W44341  14.799   2.094  13.407 -0.3431  0.3055 -0.2508
24808W        W44342  11.006   0.151  12.088  0.1573  0.2261  0.1053
24809W        W44343  17.182  13.722   9.911 -0.0597 -0.0735 -0.3254
24810W        W44344   4.748   0.256  12.400  0.3074 -0.0339  0.1341
24811W        W44345   3.742   2.853  13.685 -0.0032  0.0283  0.2004
24812W        W44346  13.838   7.206  11.739 -0.2032  0.0537 -0.1945
24813W        W44347   2.480  10.871  13.756  0.2460 -0.0913  0.1470
24814W        W44348  18.144  15.820  12.283 -0.2208 -0.0527 -0.0270
24815W        W44349   6.595  10.480   2.006  0.2829  0.0504  0.1130
24816W        W44350  15.739   8.356  13.958 -0.3089  0.1638  0.0068
24817W        W44351   5.172  15.441  13.746 -0.0287  0.0049  0.2624
24818W        W44352  14.811  10.108   0.242  0.0301  0.1243 -0.0893
24819W        W44353   0.907   7.070   3.763  0.2903 -0.1478 -0.2651
24820W        W44354   3.387   1.154   1.815 -0.1544 -0.0305  0.1793
24821W        W44355  12.778  15.381   4.568  0.4064  0.3367 -0.0215
24822W        W44356   3.002  17.141  11.178  0.1777 -0.0716 -0.2667
24823W        W44357  17.398   0.808   0.145  0.0281 -0.0390 -0.3520
24824W        W44358  16.602   1.982  12.308 -0.3597 -0.1204  0.3638
24825W        W44359  12.380  18.280   2.604  0.0822  0.0339  0.2677
24826W        W44360  10.353  16.782  13.060  0.2290  0.0063 -0.1170
24827W        W44361  12.025   6.966   2.669 -0.0618 -0.0945 -0.0397
24828W        W44362  17.140  18.994   3.753  0.0491 -0.0030 -0.3285
24829W        W44363   8.373  15.085  11.619 -0.2347  0.2510  0.0500
24830W        W44364   5.945  18.363   0.272  0.0881 -0.0156  0.0578
24831W        W44365  12.429   3.193   3.957  0.0452  0.2741 -0.0114
24832W        W44366  17.903  11.400   0.541  0.2555  0.0317 -0.2888
24833W        W44367  14.747   7.498  14.293  0.1744  0.0663  0.1515
24834W        W44368   0.436  11.307   2.118  0.0826  0.0624 -0.0925
24835W        W44369   5.377   7.575   3.793  0.0059  0.3488  0.0165
24836W        W44370  18.017  16.470  11.560  0.1087 -0.2147  0.1392
24837W        W44371   4.708   7.017  10.954 -0.1338  0.0316 -0.1606
24838W        W44372  14.029   8.533   0.840 -0.0698 -0.0311  0.0422
24839W        W44373  14.672  14.255  14.614 -0.0242  0.0998  0.0063
24840W        W44374  10.961  14.963   3.702 -0.2459  0.1073  0.2151
24841W        W44375   8.311   4.412  14.552 -0.4231  0.2009 -0.0238
24842W        W44376   6.927   8.421  10.816  0.1154 -0.1539 -0.1505
24843W        W44377   5.219   3.736   3.566  0.1558  0.2051  0.1567
24844W        W44378  13.554  17.933   1.638 -0.0173  0.0283 -0.0418
24845W        W44379   6.019   4.808   5.080  0.1863  0.0433 -0.1954
24846W        W44380   0.085   4.239  12.943  0.2518 -0.0578  0.1843
24847W        W44381  17.683  15.385   2.746 -0.1558  0.1419  0.2217
24848W        W44382   6.460  14.299  11.018 -0.0052 -0.1078 -0.4521
24849W        W44383  18.781   9.587   2.923  0.2952  0.1471  0.0659
24850W        W44384  16.833  17.276   2.014 -0.1269  0.2147 -0.2756
24851W        W44385   4.623   8.458   1.179 -0.2768 -0.1559  0.0750
24852W        W44386  12.852  14.450   9.783 -0.1430 -0.0515 -0.2240
24853W        W44387  18.805   8.154  14.814  0.0034 -0.1876 -0.3110
24854W        W44388  18.616   6.957   1.553 -0.1490 -0.0685  0.0426
24855W        W44389  11.323   8.478   3.653  0.1408  0.1418 -0.0730
24856W        W44390   5.094   1.192  12.455 -0.2525  0.0087 -0.0559
24857W        W44391  10.966   6.514   3.035  0.0599 -0.3691 -0.1639
24858W        W44392  18.611   2.839  13.809  0.1276 -0.3171  0.1508
24859W        W44393  16.037  10.973  14.133 -0.0723  0.0135  0.0922
24860W        W44394   6.400   5.183   3.121 -0.0487  0.0881 -0.0242
24861W        W44395   1.639   0.150   0.723 -0.1858  0.0610 -0.0372
24862W        W44396   0.686   2.612   1.296  0.2310 -0.0438  0.1597
24863W        W44397  10.920  11.496   3.114 -0.5158  0.0870  0.2072
24864W        W44398   2.432  11.862  11.023 -0.0604  0.0313  0.0733
24865W        W44399   5.476  18.801  12.684 -0.3122 -0.2308 -0.0762
24866W        W44400   2.664  13.006  11.619 -0.1943 -0.2071  0.3780
24867W        W44401  18.729   4.561  13.659  0.1319 -0.0289  0.1620
24868W        W44402   1.387  17.075   2.756  0.1685 -0.0937  0.2525
24869W        W44403   0.243  17.541   2.286 -0.0132  0.1144 -0.0240
24870W        W44404   5.513   2.159   0.938  0.3323  0.0023  0.1915
24871W        W44405   1.058  12.029  13.212 -0.0725  0.1539  0.1898
24872W        W44406  16.367   0.633  14.142 -0.0629  0.1149  0.2803
24873W        W44407  10.499   4.364   4.772  0.0047  0.0719  0.1877
24874W        W44408   1.722  15.118   1.069 -0.1703 -0.1535 -0.0141
24875W        W44409  18.685  11.489  11.149  0.1032  0.2277 -0.1603
24876W        W44410   7.874   8.418   0.126  0.0736  0.4623  0.1177
24877W        W44411  14.183  15.949  11.487  0.4295 -0.3577  0.1439
24878W        W44412   8.259   3.083  12.410  0.0364  0.0286  0.0255
24879W        W44413   4.242   1.736  10.940  0.1965 -0.0298  0.0174
24880W        W44414  13.266   2.940   2.465  0.2368 -0.0847 -0.2174
24881W        W44415   0.834  17.799  11.752 -0.0305 -0.1903  0.1623
24882W        W44416   7.704   6.478  13.608 -0.1291 -0.1924 -0.1121
24883W        W44417  18.730  12.511   3.150  0.0815 -0.0539  0.0920
24884W        W44418  18.429  15.617  11.523  0.1320 -0.1246  0.2774
24885W        W44419   6.741  17.460  14.776 -0.2381 -0.1019 -0.0095
24886W        W44420  18.809  11.251   3.166 -0.1162 -0.0244  0.3859
24887W        W44421   8.224   5.057  11.874 -0.2375  0.0383  0.1073
24888W        W44422  15.695  16.350  11.811  0.1078  0.1049 -0.1811
24889W        W44423   4.718  13.648  14.479  0.2898  0.2715  0.0336
24890W        W44424   8.131  11.187  14.538 -0.1155 -0.1218  0.0581
24891W        W44425  14.789   2.071  11.550  0.1195  0.1151  0.0752
24892W        W44426   9.102   8.504   2.443 -0.1430  0.4234  0.1787
24893W        W44427   5.605   0.702  11.145 -0.0726  0.0553 -0.2311
24894W        W44428  16.772   6.215  13.017 -0.1787 -0.1096  0.0985
24895W        W44429   6.252  12.761   3.088  0.2680  0.0229  0.2722
24896W        W44430   2.122   5.853   2.596  0.2272  0.2841  0.1801
24897W        W44431  16.409   6.850   2.904  0.0760  0.1692 -0.2128
24898W        W44432   8.932  18.288  10.104 -0.0299  0.2052 -0.0464
24899W        W44433   0.900  17.896   0.884  0.0106 -0.2823 -0.0497
24900W        W44434  11.681   9.127   0.117  0.1886  0.3294 -0.1479
24901W        W44435   9.643  16.372  13.179  0.1898 -0.0623 -0.0774
24902W        W44436   0.855   8.369   3.438  0.0311 -0.4057 -0.0722
24903W        W44437   3.506  17.393  13.209  0.0707 -0.0245  0.1185
24904W        W44438  13.620  16.692   0.497 -0.1529  0.1817 -0.2431
24905W        W44439   2.459   5.049   0.546 -0.0815 -0.3250 -0.1539
24906W        W44440  11.590  17.148   0.217 -0.0065  0.0140 -0.1108
24907W        W44441   2.444   8.957   1.154 -0.1495  0.0851  0.1564
24908W        W44442  17.810   1.058  11.389 -0.0357 -0.0412 -0.1831
24909W        W44443  17.576  18.084  11.142 -0.0267  0.1147  0.1041
24910W        W44444   7.335  11.983  13.735  0.3955 -0.1833 -0.3806
24911W        W44445   0.789  12.715  12.257 -0.1207 -0.4419 -0.3499
24912W        W44446   2.223  11.803  12.709  0.2053 -0.2917  0.0171
24913W        W44447   0.048  16.457  14.297 -0.4142  0.2526 -0.3886
24914W        W44448   8.334  15.071  14.619 -0.0915  0.0652 -0.1448
24915W        W44449  14.106   7.548   0.998 -0.1480 -0.1139  0.1652
24916W        W44450   9.711  10.502   0.271  0.1747  0.1733  0.1734
24917W        W44451  18.452  12.185   3.504  0.0891 -0.0258  0.1996
24918W        W44452  14.688   4.424  11.069 -0.0100 -0.3223 -0.2007
24919W        W44453   8.003   8.080   2.087 -0.1939  0.1151 -0.1326
24920W        W44454   3.751   0.501   2.064 -0.0817 -0.1220 -0.1262
24921W        W44455   7.323   4.121  12.306 -0.0653  0.1007  0.1945
24922W        W44456   4.579  13.059   4.799 -0.1766  0.0915 -0.2105
24923W        W44457   8.867  12.701   0.200  0.2564  0.1611 -0.0472
24924W        W44458   2.403  18.584  12.225 -0.0213  0.1380  0.1868
24925W        W44459   4.375  13.588   5.310 -0.1009  0.3842 -0.2149
24926W        W44460  18.150   8.864   5.030  0.1899  0.2766 -0.0774
24927W        W44461   1.369   5.953  13.717 -0.0842 -0.0118 -0.0354
24928W        W44462  10.155  11.453   3.374 -0.0609  0.4312  0.4069
24929W        W44463   3.759  15.078   1.880 -0.1133 -0.2372 -0.1949
24930W        W44464   9.096   4.465  11.361 -0.0324  0.1554 -0.1478
24931W        W44465  16.184  13.375  12.963  0.1102 -0.2670  0.2262
24932W        W44466   4.312   1.115  11.729  0.0199 -0.0520  0.3136
24933W        W44467  11.165   2.873   1.904  0.0492 -0.3394  0.1639
24934W        W44468  19.020  11.150   4.110  0.1400  0.1161  0.1954
24935W        W44469  17.137  10.299   3.017  0.2189  0.3076 -0.0696
24936W        W44470  10.702   0.888   1.126 -0.2068 -0.1353 -0.1451
24937W        W44471  18.785   6.608   1.910 -0.0254  0.2303  0.2978
24938W        W44472   5.081  15.051   0.250  0.2402 -0.2083 -0.1639
24939W        W44473  15.969   8.506  12.496 -0.1355 -0.0785  0.2216
24940W        W44474   3.818   4.795   2.006  0.1677 -0.0686  0.0419
24941W        W44475  11.282  17.058  12.727  0.0801  0.2074 -0.0993
24942W        W44476  11.467  15.164   2.966  0.0529 -0.0347  0.2637
24943W        W44477  16.273  10.200  13.845  0.0126 -0.1826  0.0424
24944W        W44478   7.926   1.551   1.530 -0.0087 -0.0378  0.1417
24945W        W44479   1.027   7.406   2.547  0.1095  0.2019 -0.1827
24946W        W44480  11.529   0.665   3.965  0.1101 -0.0035  0.0403
24947W        W44481  11.964  10.364  10.790  0.2464  0.1871 -0.0661
24948W        W44482  12.719  16.097   3.411 -0.1189 -0.0352 -0.0654
24949W        W44483  13.672   1.124  11.226  0.1116 -0.3484 -0.1155
24950W        W44484   7.388   1.230  12.490  0.1090  0.2538 -0.2622
24951W        W44485  18.648  13.679  11.316  0.3074 -0.1528 -0.1233
24952W        W44486  13.640   3.065   0.034  0.0045 -0.1580  0.3396
24953W        W44487   4.795   0.249   3.681 -0.3826 -0.1772  0.0621
24954W        W44488  14.733  15.071  13.610 -0.1885  0.4067 -0.0007
24955W        W44489  10.288   7.988  14.050  0.2697 -0.0553  0.3594
24956W        W44490  16.499   7.801  14.088  0.1324 -0.1154  0.2294
24957W        W44491  10.081   5.919   0.140  0.0923 -0.0375  0.0167
24958W        W44492  13.417  17.556   0.479  0.0937  0.0059 -0.0323
24959W        W44493   5.630   9.042  11.944  0.0759 -0.0118  0.1885
24960W        W44494   2.009  18.839   2.994 -0.0158  0.1974  0.0337
24961W        W44495  12.998  13.019  11.044 -0.2760 -0.2326 -0.2055
24962W        W44496   9.963   3.833  10.843 -0.0226 -0.3448 -0.0798
24963W        W44497  14.827   6.549  14.182 -0.0004  0.0756  0.0212
24964W        W44498   3.468  15.178   0.117  0.1242 -0.0094  0.1159
24965W        W44499   3.702   0.803  10.765 -0.0757 -0.1160  0.0762
24966W        W44500   0.881  17.739   0.402 -0.0121  0.0911  0.0285
24967W        W44501  12.141  16.147   1.327 -0.2666  0.1400  0.0194
24968W        W44502   7.752  11.973  10.349  0.0386  0.1699  0.2893
24969W        W44503  18.272   3.728   0.472 -0.0892 -0.2678 -0.0918
24970W        W44504   1.996   7.248  11.292  0.0752  0.2112  0.1461
24971W        W44505   1.970  15.185  10.664  0.1482 -0.3134 -0.2314
24972W        W44506   0.830   3.405   1.594 -0.3786 -0.0571  0.2262
24973W        W44507   6.623   4.384   3.152  0.1190  0.1842 -0.1581
24974W        W44508   2.448   1.336   0.993  0.0754 -0.1955  0.0022
24975W        W44509   0.377  11.962  14.256  0.1501 -0.0402  0.0701
24976W        W44510   6.342  13.325  14.369 -0.0626  0.0789 -0.1931
24977W        W44511   0.268   8.702   1.701  0.1836 -0.0952 -0.1716
24978W        W44512  13.726  16.358   0.889  0.2904 -0.0956 -0.1636
24979W        W44513   1.263  12.587   0.978 -0.0676 -0.1804  0.1427
24980W        W44514   5.598   8.412  10.650  0.1751 -0.0487  0.0232
24981W        W44515  10.121  13.215  14.141 -0.3688 -0.3118 -0.0577
24982W        W44516   9.154  13.695   4.424  0.0267  0.0191  0.1123
24983W        W44517  16.368   7.946  10.201 -0.0787 -0.1839  0.0460
24984W        W44518  15.494   8.553  12.801  0.0710 -0.0598  0.1077
24985W        W44519   8.407  19.056   1.121  0.0435  0.1827  0.0940
24986W        W44520   7.507   0.296   3.366  0.0451  0.1284  0.0416
24987W        W44521   0.848   9.472   2.273 -0.2411 -0.1051  0.1546
24988W        W44522  15.233  12.461   0.562  0.2841  0.2093  0.0071
24989W        W44523   6.246   3.360  13.006 -0.0199  0.0337 -0.0987
24990W        W44524   6.810   7.738  13.601  0.1476 -0.1322  0.2552
24991W        W44525   3.958  12.233   1.494 -0.2205  0.0194 -0.1188
24992W        W44526   2.946  10.557   2.042 -0.4121  0.0344 -0.0487
24993W        W44527   2.127  12.868   3.841  0.2659  0.0640  0.1356
24994W        W44528  11.067  13.261  13.759  0.0374 -0.0617 -0.3463
24995W        W44529   0.028  11.701   4.085  0.0451 -0.1848  0.0200
24996W        W44530   9.283   2.841  11.406 -0.0081  0.1035 -0.1164
24997W        W44531   3.451   3.273   2.583 -0.0708  0.3505  0.2368
24998W        W44532  11.456  14.538  14.015 -0.0699  0.1686  0.0872
24999W        W44533   5.461   6.997   2.546  0.0656  0.0412  0.1310
25000W        W44534  12.591  17.620  13.052  0.2637  0.2378 -0.3754
25001W        W44535  10.272  13.729   2.474  0.1266 -0.0198 -0.0612
25002W        W44536  14.569  12.515   3.877 -0.4848 -0.1752 -0.2311
25003W        W44537  15.885   8.907   9.329 -0.1034  0.1411 -0.0401
25004W        W44538   5.098   9.557  12.524  0.2234  0.1503 -0.0445
25005W        W44539   7.939   1.780   3.034  0.0233  0.1970  0.0523
25006W        W44540   8.278  13.586   0.041 -0.0012  0.0344 -0.0644
25007W        W44541   1.196  12.375   3.555  0.1373 -0.2571  0.3235
25008W        W44542  15.991  16.117   3.425 -0.3872 -0.5323  0.0242
25009W        W44543  17.772   1.271   0.373  0.3821  0.0366 -0.0023
25010W        W44544   9.206   2.533  11.902  0.0466  0.1485 -0.0427
25011W        W44545   7.855   9.102   1.798  0.0637 -0.0790 -0.1228
25012W        W44546   7.438  17.043   0.394  0.2396 -0.1469 -0.0344
25013W        W44547   9.335   6.514  11.281 -0.0079 -0.1113  0.0517
25014W        W44548  14.856  10.726  11.128  0.1361  0.1343  0.0890
25015W        W44549   7.035  11.163   3.864 -0.0545  0.2142  0.1233
25016W        W44550  14.306  11.308  13.393 -0.0745  0.2036 -0.0922
25017W        W44551  17.871  11.833   1.815  0.2054  0.0433 -0.0235
25018W        W44552   6.184  19.062  14.281 -0.1685 -0.1867  0.0123
25019W        W44553   0.217   4.693   9.890 -0.0004 -0.3565  0.1137
25020W        W44554  16.014  13.175   0.092 -0.0696 -0.0820  0.0697
25021W        W44555  13.096   3.235  13.108 -0.2665 -0.2328  0.2479
25022W        W44556   6.582  18.654   3.265 -0.1184 -0.2107 -0.1373
25023W        W44557  13.547   2.502  14.784 -0.1174 -0.0705 -0.2026
25024W        W44558   5.435  14.158   4.887  0.0011 -0.2743  0.1148
25025W        W44559  11.241   4.635  12.095 -0.2587  0.0817  0.0208
25026W        W44560   7.764   7.152   2.389  0.0028 -0.0043  0.0880
25027W        W44561   9.465  12.647  14.214 -0.1677 -0.1118 -0.2806
25028W        W44562  12.531   9.197  14.565  0.4182  0.0112 -0.0512
25029W        W44563   1.189  10.633   2.208  0.2692 -0.2645  0.0088
25030W        W44564  16.002  18.030   1.727 -0.1550 -0.1793  0.1113
25031W        W44565  14.870  11.715  13.812 -0.1812  0.0700 -0.0385
25032W        W44566   6.284   7.789  13.759 -0.0412  0.0522  0.1115
25033W        W44567  15.526  15.382  11.787  0.0111 -0.0362  0.2164
25034W        W44568   8.171   4.857  13.295 -0.3264 -0.1637 -0.2919
25035W        W44569  18.505  13.023   3.072 -0.3760  0.2626 -0.0168
25036W        W44570  14.064  10.540  14.190 -0.0856 -0.0665  0.1408
25037W        W44571   7.082  13.431  13.430 -0.0056  0.1028 -0.0653
25038W        W44572  18.113  15.229   0.444 -0.1323  0.0262 -0.0568
25039W        W44573   7.513   7.887  12.485 -0.0584 -0.2039  0.1399
25040W        W44574   8.651  17.267   4.033 -0.2991  0.1374  0.1028
25041W        W44575  11.612   6.202  11.725 -0.0369  0.1438  0.0095
25042W        W44576   4.608  13.354   3.049 -0.0622 -0.1245  0.1316
25043W        W44577   8.290  17.276  10.956 -0.1678 -0.2346  0.0156
25044W        W44578  17.766   7.319  14.330  0.0000 -0.2251  0.1772
25045W        W44579   0.640  13.543   0.774  0.1566 -0.3682 -0.1251
25046W        W44580  15.948   7.288  12.209  0.0355  0.0265 -0.1969
25047W        W44581  14.926  11.202  13.680 -0.0301 -0.1760 -0.0772
25048W        W44582   5.638  18.847  11.770  0.0092 -0.0520  0.2249
25049W        W44583  14.195   0.667  14.344  0.2052 -0.2515  0.0572
25050W        W44584  14.798  12.298  12.973 -0.0212  0.1550 -0.2926
25051W        W44585  17.210  14.598   1.557 -0.3058  0.2081  0.1198
25052W        W44586  13.874  11.847   3.775 -0.0445  0.0707 -0.0722
25053W        W44587   6.384  15.212   2.643  0.1786  0.0110  0.3690
25054W        W44588   5.507   8.414  14.031  0.0724  0.0583  0.2741
25055W        W44589   0.857  15.231  13.670  0.1616 -0.0826  0.1040
25056W        W44590   4.610   1.170   0.406 -0.1853  0.1551 -0.0422
25057W        W44591   7.519  11.715   2.961  0.1691 -0.0412  0.2583
25058W        W44592  18.815   4.161   2.249  0.3368  0.1696 -0.1196
25059W        W44593   7.024  17.318   1.300 -0.0977 -0.2246  0.0479
25060W        W44594   5.536   1.881   1.726 -0.0100  0.3647  0.3542
25061W        W44595   1.825  12.074  12.403 -0.3573  0.4236  0.1805
25062W        W44596  11.960  13.060   0.219 -0.0966  0.1208  0.0186
25063W        W44597   3.616   6.378   1.613 -0.0053 -0.2899  0.2508
25064W        W44598  14.113  13.315   0.033 -0.1568  0.1764  0.0523
25065W        W44599   4.707   4.069  12.206  0.0648 -0.0506  0.1452
25066W        W44600  17.265   5.409  12.019 -0.0225 -0.2893 -0.3353
25067W        W44601  11.614  10.955   2.472  0.0605 -0.0180 -0.1506
25068W        W44602  16.868   4.591   1.264 -0.2954  0.0988 -0.0984
25069W        W44603  16.448   9.359   2.364 -0.0104 -0.2134 -0.0067
25070W        W44604   9.617  15.737  13.938 -0.1860 -0.0274 -0.4449
25071W        W44605   3.640  11.178  12.434  0.0486 -0.1188  0.4100
25072W        W44606   2.218  15.078   2.785 -0.1019  0.1176  0.1580
25073W        W44607   3.220   1.787   5.096 -0.0645 -0.3499 -0.2157
25074W        W44608  18.884   6.253  12.222  0.0110  0.0933  0.1981
25075W        W44609   5.363  17.520  13.049  0.1415  0.0733  0.0528
25076W        W44610   0.750   3.743   9.945  0.0959 -0.0055  0.0431
25077W        W44611   5.482  15.602   3.442  0.3993 -0.1666  0.2225
25078W        W44612   0.959  12.626   0.466  0.2833 -0.0556  0.1287
25079W        W44613   4.871  17.816  13.175 -0.0334 -0.0053  0.2321
25080W        W44614   2.377   1.088  11.619  0.1579  0.0299 -0.2827
25081W        W44615   9.465   8.464  14.033 -0.1217 -0.0966 -0.0894
25082W        W44616  15.477   2.992  12.333 -0.0280 -0.0650 -0.0396
25083W        W44617   7.504  17.537  12.041 -0.0141  0.1046  0.0863
25084W        W44618  18.355  17.410  10.624 -0.1403 -0.1208  0.0613
25085W        W44619  11.520  13.191   0.241  0.3537 -0.0522  0.2862
25086W        W44620   5.442   8.119  12.346  0.0550 -0.0581  0.1746
25087W        W44621   8.247  11.395   1.345 -0.4211  0.2280  0.1351
25088W        W44622   6.695  16.257  11.727  0.1550  0.0286 -0.2576
25089W        W44623  15.468   8.213   0.861 -0.2105 -0.0074  0.2306
25090W        W44624   8.193  14.592   4.493  0.1526  0.2610 -0.0154
25091W        W44625   6.429  16.901  13.287 -0.2046 -0.1462 -0.1271
25092W        W44626   0.762  10.665  14.399 -0.0590 -0.1829 -0.0210
25093W        W44627  17.458   6.624  13.280  0.0735  0.0664 -0.0143
25094W        W44628   6.551   1.840   0.032  0.1728  0.0944 -0.1017
25095W        W44629  11.813  18.350   2.232  0.3882  0.1892  0.0184
25096W        W44630   9.790  12.048   2.697 -0.2099  0.1044  0.1393
25097W        W44631  18.269   2.344   2.588 -0.5255  0.1419 -0.1039
25098W        W44632   7.456  15.233  12.283 -0.1489 -0.2488 -0.1193
25099W        W44633   2.082   3.762   1.667 -0.2010  0.1303 -0.0646
25100W        W44634  17.524  10.249   1.981 -0.0989  0.0983 -0.4088
25101W        W44635  16.937  11.501   0.250  0.2961 -0.0151 -0.3547
25102W        W44636   2.182   9.063  12.767 -0.0824 -0.3311  0.0077
25103W        W44637   7.499   3.928  11.829  0.2360 -0.1871  0.0027
25104W        W44638  12.655   2.893   0.506  0.0048 -0.1009 -0.2301
25105W        W44639  14.284  11.588   3.470 -0.2230 -0.1039 -0.0683
25106W        W44640  14.661   0.587   1.919 -0.1841  0.5655 -0.3719
25107W        W44641   2.959  16.990  11.646  0.3148 -0.2666 -0.0957
25108W        W44642  14.266   3.371  12.993  0.0432  0.2135  0.0833
25109W        W44643   3.288  13.903  12.538 -0.0737 -0.1449  0.2645
25110W        W44644   6.816   9.739  11.523  0.0210 -0.0794 -0.1088
25111W        W44645   6.453  10.271   2.537 -0.2117 -0.1034 -0.2520
25112W        W44646   8.478  10.017  13.108 -0.0957  0.2989  0.1187
25113W        W44647   7.503   5.958   0.924  0.2181  0.2361 -0.0886
25114W        W44648   8.461  18.627  13.662  0.0905  0.0976 -0.0295
25115W        W44649  13.618  13.275  10.832  0.0576 -0.1579  0.0575
25116W        W44650   0.303  11.384  11.699 -0.2046  0.3580  0.2395
25117W        W44651  12.820   3.229  12.196  0.1270  0.0290  0.0637
25118W        W44652  12.780  14.236  14.585  0.0563  0.1039  0.0061
25119W        W44653  12.276   8.073  13.775 -0.1715  0.3560  0.1560
25120W        W44654  10.731   1.418   1.053  0.0458  0.2164  0.0499
25121W        W44655  10.173  12.353   2.813 -0.0351 -0.2784  0.1304
25122W        W44656   2.457   6.169   3.394 -0.0950 -0.1682  0.2643
25123W        W44657   0.400   5.383  11.126 -0.0346  0.0645 -0.3797
25124W        W44658  12.249   8.387  14.489 -0.2318 -0.1590 -0.1375
25125W        W44659  18.690   7.351  12.218  0.2428 -0.1593 -0.0782
25126W        W44660  15.701  15.513  10.445 -0.0922 -0.0994 -0.0107
25127W        W44661   8.533  13.082  14.109 -0.0411  0.1625 -0.1733
25128W        W44662   0.423   9.770   2.567  0.1026  0.0168  0.2019
25129W        W44663  14.224   2.523   2.735 -0.0834  0.1461 -0.0590
25130W        W44664   5.171   9.069   1.790  0.3715  0.3266  0.0357
25131W        W44665   3.715  15.373   4.070  0.2343  0.1439 -0.2280
25132W        W44666   7.942   3.519  12.669 -0.1952  0.3336  0.1166
25133W        W44667  10.652  18.044   3.291 -0.1076  0.0363  0.1198
25134W        W44668   3.300  17.107  10.763 -0.1470 -0.0251  0.2599
25135W        W44669  11.106   0.364   4.098 -0.0270 -0.1914  0.1030
25136W        W44670   1.123   1.443  14.027  0.2457 -0.0117  0.1166
25137W        W44671   4.396   5.361  10.967 -0.2516 -0.1090  0.0530
25138W        W44672   2.299  12.739   3.372  0.1826 -0.1021 -0.1352
25139W        W44673  12.286   1.717   3.838  0.2741 -0.0206 -0.4444
25140W        W44674   1.299  18.039  11.818 -0.2698 -0.2309 -0.1289
25141W        W44675   4.902  10.531   1.796  0.2195 -0.2234  0.3473
25142W        W44676   7.634   6.281   3.131 -0.2961  0.0402  0.1945
25143W        W44677   0.148  11.806  13.367 -0.0747  0.0360 -0.0524
25144W        W44678   3.278   7.802   1.539  0.0964  0.4338 -0.2136
25145W        W44679  10.376   0.173   2.245  0.2166 -0.0588 -0.0809
25146W        W44680   2.915  10.325   0.964 -0.0583 -0.1433  0.2647
25147W        W44681  12.411  12.135  14.792  0.0575 -0.0537 -0.3633
25148W        W44682  14.251  10.554  11.160 -0.0775 -0.0878 -0.3541
25149W        W44683  11.403   3.647  13.617  0.0405 -0.1978  0.1669
25150W        W44684   5.683   8.992   0.550 -0.3601 -0.0072  0.0151
25151W        W44685   9.215   2.061   3.192  0.0448  0.2070  0.0113
25152W        W44686  12.155  14.370  11.930 -0.3269  0.0677  0.2715
25153W        W44687   3.413  13.439  12.562 -0.2790  0.0093  0.0056
25154W        W44688   2.998  14.945   3.335 -0.3870 -0.0547  0.1959
25155W        W44689   0.370  13.450  14.769  0.2055  0.2138  0.1788
25156W        W44690  18.227   1.139  11.162 -0.1390 -0.0872 -0.2963
25157W        W44691   6.739  12.150  14.596 -0.2901 -0.0368 -0.1563
25158W        W44692   8.062  13.349  11.268  0.0588  0.1228  0.1590
25159W        W44693   8.950  16.610  12.774 -0.1134  0.2525 -0.2892
25160W        W44694   5.261  12.755  12.244 -0.4761  0.0877 -0.3979
25161W        W44695   3.113   8.831   3.795  0.0446 -0.0117 -0.1391
25162W        W44696  17.609   2.972   0.718 -0.1749  0.1992  0.1572
25163W        W44697  16.199   0.009  13.493  0.1634  0.0885 -0.0299
25164W        W44698   9.007  18.084  11.107 -0.0820  0.2626 -0.2715
25165W        W44699  13.521   9.361   4.374 -0.1352  0.2050  0.1409
25166W        W44700   3.298  13.050   0.773  0.1082  0.0463 -0.1686
25167W        W44701  11.741  11.573  14.165 -0.0444 -0.1686  0.2362
25168W        W44702   3.705  18.950   1.398  0.1992 -0.2157  0.2435
25169W        W44703  16.421  11.874   0.934 -0.0034  0.1852  0.1663
25170W        W44704  14.932  16.346  10.862 -0.3089  0.4047 -0.1763
25171W        W44705   3.810  15.189   0.881  0.0697  0.0560 -0.0693
25172W        W44706  10.041  10.888   4.020  0.2205 -0.0125 -0.1883
25173W        W44707   9.079   9.654   3.160  0.4252  0.1427 -0.1484
25174W        W44708   4.330  15.502  14.411  0.1838 -0.0710  0.1567
25175W        W44709   1.491   9.858  13.203  0.1408  0.0859 -0.0170
25176W        W44710   9.963  18.615  14.432  0.3116 -0.4049 -0.1084
25177W        W44711  16.198  13.904  12.865 -0.2586 -0.0893 -0.0940
25178W        W44712   3.729   6.204  14.643  0.1194 -0.1747  0.2418
25179W        W44713   9.347  11.817  14.768  0.0259  0.2387  0.1826
25180W        W44714   6.801   0.742   3.820 -0.3571  0.3372  0.1659
25181W        W44715   9.284   6.291  14.600  0.1224  0.0927  0.2631
25182W        W44716  12.783   7.955   1.785  0.0801  0.1738  0.0042
25183W        W44717  13.392  18.583   0.321 -0.1005 -0.1419 -0.0775
25184W        W44718   2.950   2.533   1.318  0.2926  0.2254  0.1137
25185W        W44719   7.402  10.595   2.791 -0.5270 -0.1810  0.2406
25186W        W44720  16.533   8.778  10.539  0.0394 -0.1193 -0.1541
25187W        W44721   0.012  12.820   4.350 -0.2464  0.3362  0.0480
25188W        W44722  12.833  17.120   4.452 -0.1618 -0.3936  0.3284
25189W        W44723  16.503   5.221  12.639  0.2338  0.0026 -0.1710
25190W        W44724   6.361  13.905  14.541 -0.0363 -0.2241  0.1011
25191W        W44725  12.528  12.747  14.704  0.0938  0.1010  0.0932
25192W        W44726   2.736   9.257  13.666 -0.3573 -0.1689 -0.3128
25193W        W44727  11.625  15.717  14.667  0.0027 -0.0810  0.0108
25194W        W44728   7.530   0.262  13.823  0.1935  0.1782  0.1254
25195W        W44729   6.459  11.567  12.149  0.3061  0.1483  0.1625
25196W        W44730  11.043   0.150   4.564  0.3596  0.1948 -0.1313
25197W        W44731  15.446  12.620   9.562 -0.2038  0.4393  0.0314
25198W        W44732  16.760  12.879  14.208  0.2149 -0.4711 -0.0745
25199W        W44733   2.460  14.587  14.796  0.1035 -0.0796  0.1092
25200W        W44734  16.957   0.479  10.616 -0.2569  0.0628 -0.2395
25201W        W44735  18.900   2.367   3.023  0.1107  0.0641  0.2552
25202W        W44736  10.166   4.519   2.827 -0.0220  0.2992  0.1930
25203W        W44737  12.151  18.384  10.832  0.5877  0.0104  0.0362
25204W        W44738   1.344  15.404   0.046  0.3510  0.3060  0.1904
25205W        W44739   5.723   8.857  13.367 -0.1168 -0.1059  0.0170
25206W        W44740   7.189   1.590   3.631 -0.0981  0.1594  0.0413
25207W        W44741  10.319  10.777  12.546  0.0542 -0.0812  0.1008
25208W        W44742  15.120   9.904  14.450 -0.1329 -0.2190  0.1399
25209W        W44743  17.216  14.496  13.935 -0.4108 -0.0567 -0.1161
25210W        W44744  14.396  18.962   2.836  0.0572  0.4175  0.2111
25211W        W44745   8.056   3.499  13.984 -0.0044  0.1453  0.1449
25212W        W44746   0.580  12.030  13.255  0.1978  0.1177 -0.4195
25213W        W44747   8.939  15.957  11.626 -0.2292  0.0156  0.0622
25214W        W44748  18.128  16.108  12.759  0.1643 -0.2219  0.3358
25215W        W44749  10.002  14.425  11.687 -0.4514 -0.2659 -0.0293
25216W        W44750  17.257   4.750  12.380 -0.4994  0.0662 -0.1496
25217W        W44751  18.976   4.800   1.010  0.3635  0.1565 -0.1188
25218W        W44752   9.541  12.788   1.147 -0.0274  0.2691  0.1456
25219W        W44753   4.857   7.111  10.526 -0.2013  0.0978  0.1847
25220W        W44754   4.675   4.496  13.766 -0.1999 -0.0963 -0.0122
25221W        W44755  11.862   7.475   0.695 -0.2175 -0.2786 -0.1384
25222W        W44756   1.540   9.809  11.389  0.1465 -0.0762  0.0485
25223W        W44757  10.059  18.635  13.912  0.1573  0.1469  0.0121
25224W        W44758   6.893  16.693   3.885  0.1589 -0.0896 -0.2520
25225W        W44759  10.263   0.361   4.580  0.1811 -0.0695 -0.0479
25226W        W44760   4.891  10.234  11.603 -0.2245 -0.1244  0.0952
25227W        W44761  17.688   8.376  12.091 -0.1059 -0.2946  0.0179
25228W        W44762  18.256  18.731   4.349 -0.3245 -0.0207  0.2452
25229W        W44763  15.091  14.975   2.760 -0.1222  0.0547 -0.0944
25230W        W44764   2.398   9.514  11.467 -0.1070  0.0719 -0.0968
25231W        W44765   7.724   3.337   0.168 -0.0812  0.0648  0.4523
25232W        W44766  15.675  17.949   4.312 -0.1566 -0.1932 -0.3386
25233W        W44767   6.834  11.363  10.689  0.0553  0.2053 -0.1084
25234W        W44768   2.195  10.878   3.038  0.0444 -0.2640 -0.2160
25235W        W44769   7.307  18.422  11.503 -0.0859  0.2280 -0.1321
25236W        W44770   7.338  11.445   3.597  0.2808  0.0089  0.1970
25237W        W44771  17.738   5.889   2.301 -0.1603  0.0822 -0.1634
25238W        W44772  17.358   7.788   3.684 -0.0621  0.1247 -0.2599
25239W        W44773   2.891  10.112  14.284 -0.0390 -0.0095  0.1011
25240W        W44774  13.933  17.706  12.328 -0.2616 -0.0676  0.1842
25241W        W44775  16.174  13.717  14.197  0.0598 -0.0553 -0.2466
25242W        W44776  11.166   7.328   2.336 -0.1651  0.3134 -0.0757
25243W        W44777  13.919  17.394  14.718  0.4185 -0.2211  0.0407
25244W        W44778   4.599   8.749   2.620  0.1989  0.0997 -0.0483
25245W        W44779   5.923   6.250  11.001 -0.0686  0.0271 -0.2809
25246W        W44780   6.117   9.929   3.451 -0.0313 -0.2645 -0.0550
25247W        W44781   5.204   2.746   0.265 -0.2024  0.2672 -0.1805
25248W        W44782  15.924  16.788  11.028 -0.0461  0.3608 -0.0222
25249W        W44783   5.722   0.072   0.023 -0.1204 -0.0734 -0.1809
25250W        W44784  15.916   3.908   2.140 -0.1036  0.1220  0.0460
25251W        W44785  13.734  12.126  14.066 -0.0011 -0.2468 -0.0303
25252W        W44786  11.889  18.122  11.840  0.1619 -0.0866 -0.0598
25253W        W44787   5.584   3.608   3.913 -0.0045 -0.1418 -0.1410
25254W        W44788   4.214   1.541   3.933 -0.2137 -0.0511  0.0134
25255W        W44789   7.669  18.468  11.154  0.2243 -0.2164  0.1507
25256W        W44790   6.585  13.747   3.337 -0.2678 -0.1556  0.0665
25257W        W44791  10.639  10.641   0.702  0.2678 -0.1075  0.1376
25258W        W44792  10.707  11.939   0.836  0.2229  0.1517  0.0393
25259W        W44793   6.987   6.533  12.728  0.4258  0.3438  0.1326
25260W        W44794  14.782  18.744   1.250 -0.0177 -0.1311  0.1166
25261W        W44795   7.652  11.323  10.922 -0.0198  0.1331 -0.2394
25262W        W44796   2.526  17.218   3.431 -0.0432  0.2623 -0.3679
25263W        W44797   1.429   1.725   0.857 -0.1175 -0.2394 -0.2278
25264W        W44798   4.254   7.025  11.091  0.0515 -0.1463  0.0896
25265W        W44799   1.546   3.703  10.539 -0.0415  0.1225  0.0926
25266W        W44800   3.119   4.932  12.436  0.1853 -0.0378 -0.1229
25267W        W44801   3.317   5.100  13.894  0.0658 -0.0510 -0.0409
25268W        W44802  15.938   9.095   1.695 -0.0230  0.1012  0.4963
25269W        W44803   4.767   9.631   2.349 -0.0606 -0.0645 -0.1662
25270W        W44804   6.177   2.607   2.612 -0.1358  0.1261  0.1756
25271W        W44805   1.387  13.237  12.062  0.0295 -0.1712 -0.2441
25272W        W44806   1.704  16.064   0.328  0.1680 -0.0162 -0.1111
25273W        W44807   8.799   3.802  12.526  0.0186 -0.2660  0.1426
25274W        W44808   1.813   1.893  12.213  0.3649 -0.1413 -0.0859
25275W        W44809   5.648   4.244  12.083 -0.4450  0.1161 -0.4484
25276W        W44810  16.794  16.486   2.605 -0.1304 -0.4057 -0.0572
25277W        W44811   9.131  12.233   0.118  0.1953  0.0190 -0.0519
25278W        W44812   9.822  15.016  10.848  0.1344  0.2687  0.3351
25279W        W44813   7.773  13.293   0.777  0.2854  0.2753 -0.1911
25280W        W44814   2.361  15.847  12.288  0.0423  0.1135  0.0666
25281W        W44815   1.871  10.605  10.918 -0.1488  0.1827 -0.0065
25282W        W44816   4.422  17.367   2.557  0.1804  0.2072 -0.2067
25283W        W44817  10.919  12.061   4.871 -0.3463 -0.1962  0.0541
25284W        W44818   0.492  17.718  13.114 -0.0654 -0.0090 -0.2512
25285W        W44819  18.793  16.961  12.627 -0.1885  0.2267 -0.0619
25286W        W44820   7.890   7.250   3.279  0.0119  0.1979  0.0641
25287W        W44821   1.985   0.085  14.044 -0.2252 -0.1636  0.0381
25288W        W44822   2.071   4.432  10.485  0.1441  0.2477  0.2139
25289W        W44823  12.772   8.922   1.056  0.1071 -0.0342 -0.1068
25290W        W44824   0.618   1.676   4.123 -0.1887  0.1692 -0.0898
25291W        W44825  14.755   4.016  11.297  0.1535 -0.2387  0.1150
25292W        W44826   2.486   6.010   9.416 -0.0718  0.1309 -0.0632
25293W        W44827   0.512   8.344  10.678 -0.0253 -0.0480 -0.0413
25294W        W44828  12.547  12.816   5.462 -0.2257  0.2724 -0.2601
25295W        W44829   9.174   4.442   0.859 -0.2411 -0.4284 -0.2137
25296W        W44830   3.141   8.271   1.489 -0.3602  0.0293  0.1124
25297W        W44831  12.981  12.465  13.471 -0.2148  0.0112 -0.2133
25298W        W44832   9.375   6.702  11.715 -0.1493  0.0499 -0.0514
25299W        W44833  14.359  13.090  13.977 -0.3244 -0.0787  0.2020
25300W        W44834   5.685  15.722  12.147  0.0533  0.0971  0.1376
25301W        W44835   6.835   3.804  12.473  0.0813 -0.0820  0.0505
25302W        W44836   7.102   2.054  11.899 -0.0039 -0.0239  0.0744
25303W        W44837  15.313  11.591   3.146  0.0019 -0.2124 -0.2720
25304W        W44838   0.281  16.769  14.645 -0.1642 -0.3617 -0.0509
25305W        W44839  11.862   8.738   1.370  0.1115  0.2109  0.1483
25306W        W44840  18.825   2.304  12.564  0.1564  0.0666 -0.0555
25307W        W44841  10.661   4.121   3.488 -0.2059  0.2056 -0.1370
25308W        W44842   5.519  17.906  14.517  0.0962 -0.0557  0.4634
25309W        W44843  13.736  12.024   2.885  0.0824 -0.1061 -0.0546
25310W        W44844   2.863   4.290  13.717 -0.1487 -0.0917 -0.1059
25311W        W44845  17.150  12.872   3.036 -0.0035  0.1879 -0.0526
25312W        W44846  17.626   7.341   3.908 -0.1001 -0.1974 -0.1422
25313W        W44847   7.150   9.337  14.375  0.0858  0.2592  0.0370
25314W        W44848   9.564   3.711   0.248 -0.0224 -0.0464 -0.2598
25315W        W44849  15.619   3.143   2.665  0.0843 -0.0486 -0.0808
25316W        W44850  10.185   5.996   1.260 -0.1840 -0.1403 -0.2853
25317W        W44851   3.217  17.901  12.135 -0.0223 -0.0480  0.1105
25318W        W44852  10.781   0.576   4.596  0.0750  0.0383  0.2453
25319W        W44853   9.556   3.166   0.081  0.1791 -0.1049 -0.0350
25320W        W44854  18.403   4.561   3.731  0.2443  0.1849 -0.0814
25321W        W44855  13.105   9.628   2.826 -0.1473  0.2786 -0.0799
25322W        W44856   7.740  16.074  10.318  0.1832 -0.0553  0.2328
25323W        W44857   4.366  15.020  11.130  0.1555  0.0219 -0.2181
25324W        W44858   3.668   5.526  12.186 -0.0374 -0.0427 -0.1583
25325W        W44859  14.542  18.376   0.897  0.0901  0.0017 -0.0026
25326W        W44860   0.275  10.058  10.433  0.1461 -0.2483  0.0008
25327W        W44861  18.877   7.242   0.990 -0.1545  0.1661 -0.0394
25328W        W44862  13.340  18.178  11.216 -0.1863 -0.0450  0.0967
25329W        W44863  15.797   1.711   3.070  0.2146  0.0873  0.2001
25330W        W44864   5.715   2.254   0.369 -0.1075  0.1097  0.0174
25331W        W44865   0.353  16.311   4.052 -0.3306 -0.2911 -0.0925
25332W        W44866  15.504  11.801  10.780 -0.2048  0.0248  0.0393
25333W        W44867  18.464   6.010   0.608  0.1887 -0.1426  0.0450
25334W        W44868  14.954  14.489  11.386 -0.0728  0.0795  0.2897
25335W        W44869   3.272  10.383   2.382 -0.2788  0.2370  0.6280
25336W        W44870  15.043   7.058  14.375  0.2003  0.0062 -0.0446
25337W        W44871  15.815   1.311   2.037 -0.2052 -0.1324  0.0332
25338W        W44872   9.080   3.080  14.764 -0.1467 -0.5803  0.1900
25339W        W44873   1.773   7.678  11.028  0.1857 -0.1498  0.0760
25340W        W44874  15.406  11.759  14.004  0.2127 -0.0197 -0.0077
25341W        W44875  12.022   4.200  14.075 -0.1185  0.0701  0.2253
25342W        W44876  18.147  15.672  14.489  0.0149 -0.1796 -0.1927
25343W        W44877  14.378  15.693   0.134 -0.2246 -0.0592 -0.1000
25344W        W44878   5.884   8.152   2.314  0.1127  0.1225  0.0733
25345W        W44879   0.511  14.428  12.574 -0.1773 -0.0746 -0.0922
25346W        W44880  11.091   2.530   4.428  0.1020 -0.2090 -0.2210
25347W        W44881  13.497   6.123   1.762 -0.0037 -0.0045 -0.1983
25348W        W44882  10.307   8.158   2.988 -0.1316  0.2746 -0.0027
25349W        W44883  12.514  15.588   0.042  0.2180  0.0234  0.2637
25350W        W44884  11.686  15.612  10.700 -0.0089  0.3901  0.0050
25351W        W44885   8.998   9.541   1.386 -0.0262 -0.0625 -0.0142
25352W        W44886  16.131  10.660  12.436  0.0045  0.2625 -0.0689
25353W        W44887  16.942  13.596   1.721 -0.0444  0.0040  0.0570
25354W        W44888   6.198  10.720  12.310  0.2560 -0.0997  0.0842
25355W        W44889   6.921  10.920  12.353  0.0949 -0.0763 -0.1709
25356W        W44890   9.453   0.659   3.219 -0.1270 -0.3102  0.0962
25357W        W44891   9.827  15.742   0.375 -0.0300  0.1549  0.0477
25358W        W44892   4.266  13.982   4.409  0.2367  0.0033  0.1942
25359W        W44893   2.721  12.484   1.197  0.1876 -0.0852  0.0060
25360W        W44894  18.271   4.521  14.495 -0.1924  0.0140 -0.2677
25361W        W44895   4.472   6.419   3.470 -0.1185  0.0962 -0.1205
25362W        W44896  13.668  13.918   9.853  0.1458 -0.0125  0.1694
25363W        W44897  18.238  17.094  12.809 -0.0636  0.1431  0.2164
25364W        W44898   0.964  14.798   3.259 -0.1919  0.0905 -0.0612
25365W        W44899   3.308  17.948   1.371 -0.3944 -0.2166 -0.1673
25366W        W44900  18.983   1.699  13.760  0.0203 -0.1502 -0.0212
25367W        W44901   0.304   8.689  13.275  0.1477 -0.0479  0.0953
25368W        W44902   1.798   0.793   9.993 -0.0708  0.1576 -0.2086
25369W        W44903  11.177   0.944  10.118  0.1964 -0.2648  0.1333
25370W        W44904   3.152   2.964   1.388 -0.2123  0.1092  0.0655
25371W        W44905  14.251  11.050  14.223 -0.0799 -0.2540  0.0432
25372W        W44906   7.114  11.914   1.686  0.1686 -0.0260 -0.0263
25373W        W44907   7.910  15.440  12.353 -0.1019 -0.0512  0.0244
25374W        W44908   0.458  16.544  13.860  0.3899 -0.0632  0.1663
25375W        W44909   8.006  11.155  11.314 -0.0087  0.1398 -0.1386
25376W        W44910   4.112  15.729   3.698  0.0531 -0.2042  0.1329
25377W        W44911  13.859   7.152  12.367  0.1432 -0.0806  0.0842
25378W        W44912   5.578   6.347   1.181 -0.0540 -0.1057 -0.0148
25379W        W44913   6.296   9.685   5.430  0.0301  0.2494 -0.1446
25380W        W44914   5.052   5.189   2.042 -0.2578 -0.1330 -0.0141
25381W        W44915   6.917  13.954  13.355  0.4644  0.1652  0.0883
25382W        W44916  13.755   0.421   0.584 -0.0686  0.0520 -0.0101
25383W        W44917   8.289   2.505   4.329  0.4298  0.3397  0.0671
25384W        W44918  14.898   1.663  13.255 -0.1382 -0.1143 -0.2410
25385W        W44919   4.916   3.004  10.977 -0.1913  0.0478  0.0068
25386W        W44920  18.045  12.184   9.871  0.1408 -0.0617  0.3200
25387W        W44921  14.282   4.064   1.137  0.0675  0.0809 -0.1194
25388W        W44922  14.175   2.081  14.042 -0.1366  0.2604  0.0170
25389W        W44923   4.133   2.804   2.850  0.0162  0.0355  0.1326
25390W        W44924  13.282  11.643  13.960 -0.3563 -0.1941 -0.0208
25391W        W44925  11.670  10.971  11.611  0.2651 -0.2851 -0.0869
25392W        W44926  14.717   3.519   3.985  0.4116 -0.0285  0.0018
25393W        W44927   8.754  14.183  10.594 -0.0808  0.1371 -0.0932
25394W        W44928   7.659   0.830   2.100  0.0054 -0.1356  0.4611
25395W        W44929   4.418  14.950   2.149 -0.4701 -0.1679  0.1038
25396W        W44930   3.423   0.442  12.869  0.0345  0.1071  0.0791
25397W        W44931  15.135   0.607   2.976  0.1175 -0.1658 -0.3992
25398W        W44932  15.080   5.671   3.477 -0.0195  0.1418 -0.1647
25399W        W44933  11.110   4.841  11.494  0.1226 -0.0532  0.1144
25400W        W44934   3.621   3.090   3.499  0.0550  0.1580 -0.0622
25401W        W44935   8.565   6.622  12.656 -0.0083 -0.0620 -0.3940
25402W        W44936   1.769   6.510  13.666  0.2768  0.0576 -0.1298
25403W        W44937   2.644  18.159  12.476  0.0577 -0.2431 -0.0844
25404W        W44938   8.195  18.740   0.767  0.1459 -0.1062  0.0112
25405W        W44939   4.894   7.736   3.692  0.0200 -0.2575  0.1091
25406W        W44940   0.746  16.500   3.159  0.1713 -0.1233 -0.4362
25407W        W44941   7.586   7.568  11.487 -0.2186 -0.0830 -0.4291
25408W        W44942   0.431  15.724   5.245  0.1638 -0.1886  0.2168
25409W        W44943   3.402  14.997  11.087 -0.0455 -0.0605  0.0182
25410W        W44944   2.495   3.839   0.457 -0.0364  0.0612  0.1510
25411W        W44945   7.309  12.708   2.995  0.3355  0.0151 -0.3660
25412W        W44946  15.246  13.524  13.137 -0.0492  0.4437  0.4840
25413W        W44947   4.047   6.916  13.550  0.0824  0.2145 -0.0685
25414W        W44948   7.473   6.438   2.112 -0.2624 -0.1086  0.2141
25415W        W44949  12.368   7.343   0.650  0.1349  0.0953  0.1600
25416W        W44950   3.589   9.196  12.097  0.1258  0.0178 -0.0103
25417W        W44951  11.392  14.732   3.818 -0.2398 -0.1733 -0.0327
25418W        W44952   4.629   5.907   3.735  0.0960  0.1576  0.2668
25419W        W44953  18.500  12.323   2.280  0.1093  0.2280 -0.2641
25420W        W44954  18.496  10.238   3.585  0.0482 -0.2814  0.1052
25421W        W44955   9.402  10.792  11.341 -0.1741 -0.0804 -0.0752
25422W        W44956  11.426   2.360  12.312  0.2212  0.2438  0.3118
25423W        W44957  10.284  11.326  12.928 -0.1631  0.3301 -0.0405
25424W        W44958   0.632   5.033  12.880  0.0017  0.0650  0.0107
25425W        W44959  10.770   3.658   0.016  0.1043 -0.0563  0.0325
25426W        W44960   0.583   5.096   0.345 -0.0886 -0.1263 -0.0947
25427W        W44961  13.435  17.705   3.948 -0.0696  0.0215  0.1217
25428W        W44962  13.464  18.891   4.043 -0.2267  0.0177  0.2623
25429W        W44963   0.090  17.184   3.311 -0.0517  0.0022  0.1452
25430W        W44964   0.476  10.792  11.692  0.1599  0.0006 -0.0242
25431W        W44965   1.213   0.824   3.366 -0.2166  0.1424 -0.0893
25432W        W44966  10.316   3.424   2.906 -0.1348 -0.2363 -0.1001
25433W        W44967  18.134   1.159   0.097 -0.0773  0.0326 -0.1508
25434W        W44968   6.888   8.884  13.296 -0.0832 -0.0848  0.1372
25435W        W44969   0.808   4.615   0.533  0.0276  0.0411 -0.1744
25436W        W44970  17.869  13.543   1.493 -0.1119  0.0056 -0.0598
25437W        W44971  16.136  10.224   1.956  0.0720 -0.1887  0.0900
25438W        W44972  17.543  14.386   3.434  0.1758 -0.0250  0.1533
25439W        W44973   2.415   1.691  11.002 -0.0360 -0.0460  0.1161
25440W        W44974   1.531  17.834   0.263  0.0782 -0.0431 -0.0353
25441W        W44975   1.219  17.351   0.408  0.1780  0.1043 -0.0147
25442W        W44976   9.477   4.457   4.043 -0.0810  0.2509 -0.0955
25443W        W44977   2.259  10.328   3.208 -0.0499 -0.0045  0.4069
25444W        W44978   1.842   9.576  11.664 -0.1628  0.0711  0.0833
25445W        W44979  13.225  10.331   4.047  0.0126 -0.0134  0.0420
25446W        W44980  15.715   7.279  11.728 -0.0428 -0.1463 -0.0014
25447W        W44981  15.816  12.547   3.891  0.2097 -0.0144  0.1403
25448W        W44982   3.446   5.922   0.021 -0.0428  0.2049 -0.3527
25449W        W44983  18.298   9.091  11.823  0.0500  0.0104 -0.2551
25450W        W44984   3.433  10.445   3.657  0.1161  0.3533  0.0638
25451W        W44985  18.260  13.724  11.701 -0.1133  0.0993  0.1194
25452W        W44986   1.100   8.695   2.643 -0.0480 -0.0374  0.1123
25453W        W44987  12.815   6.885  12.467 -0.1289 -0.1049  0.1598
25454W        W44988  17.162  15.188   3.237  0.2438 -0.2558 -0.0954
25455W        W44989  12.235   3.449   2.912  0.0896 -0.0113  0.1394
25456W        W44990   2.425  16.089   3.657 -0.2993  0.1063  0.2220
25457W        W44991  12.967  13.187   2.362 -0.1395 -0.0963 -0.0632
25458W        W44992   9.436  12.486  11.332 -0.3371  0.1744 -0.2734
25459W        W44993   2.728   3.178   3.057  0.1655  0.3657 -0.3791
25460W        W44994   0.180  11.555   1.650 -0.0126  0.2275 -0.0578
25461W        W44995  16.120   5.584   1.675 -0.0492 -0.1144  0.1691
25462W        W44996  14.023  14.740  11.259  0.0331  0.3958 -0.0705
25463W        W44997   4.748   5.942   1.207  0.0640  0.2863 -0.0695
25464W        W44998   2.741   1.785  12.676  0.0700  0.3871 -0.0428
25465W        W44999   4.094  14.003  13.783 -0.1499  0.1353  0.2591
25466W        W45000   0.065  14.740   1.315  0.2449  0.1102  0.1581
25467W        W45001  10.759  17.552   2.193 -0.1051 -0.2048 -0.2525
25468W        W45002  11.875   9.642   0.874 -0.1566  0.0477  0.1379
25469W        W45003   0.199  15.388   0.948 -0.0002  0.0087  0.1754
25470W        W45004   5.115   0.332   2.106 -0.4072 -0.0401  0.3539
25471W        W45005  17.953  17.140  10.350  0.2909  0.3015  0.0886
25472W        W45006  18.414  16.073  11.814  0.1019  0.1353  0.2658
25473W        W45007   5.384  16.951   1.487 -0.4039 -0.0845  0.0216
25474W        W45008   5.430   3.931   1.651 -0.1594 -0.1811 -0.0798
25475W        W45009  14.641  17.382   1.037 -0.0758 -0.1151 -0.1239
25476W        W45010   2.411  11.550   4.243 -0.3503 -0.0227 -0.2799
25477W        W45011   1.042   3.631  13.168 -0.1483  0.0680 -0.3235
25478W        W45012  18.683  15.794   2.556  0.0797 -0.4284 -0.5383
25479W        W45013  18.829  16.751   3.416 -0.1783 -0.2334  0.2990
25480W        W45014   1.001   7.993   4.227  0.1371 -0.1127  0.2203
25481W        W45015  16.829   9.596  10.577  0.0375 -0.1692 -0.1507
25482W        W45016  16.231  14.166  13.937 -0.0538 -0.4015  0.3071
25483W        W45017  18.875  13.730  12.437  0.2013  0.0260  0.1252
25484W        W45018  17.553   0.884   2.541 -0.1878 -0.0567  0.0463
25485W        W45019  11.254  17.269   3.483  0.1356  0.1925 -0.0345
25486W        W45020  15.329  18.122   4.014  0.0117  0.0891 -0.0369
25487W        W45021  10.440   6.951   1.844 -0.2777 -0.2993  0.3349
25488W        W45022   9.931   5.441  13.930  0.1051 -0.0586 -0.1237
25489W        W45023   0.368   2.174  11.005 -0.3413 -0.0620  0.0292
25490W        W45024   9.122  16.460   0.340 -0.0139 -0.2759  0.0628
25491W        W45025   2.559  12.407   2.147  0.1057 -0.1144  0.1304
25492W        W45026   5.927   3.004   0.463  0.1415  0.0788  0.1437
25493W        W45027   3.861   4.132   3.130 -0.0242  0.3627  0.1018
25494W        W45028  12.543   1.511   1.806  0.2516 -0.2284  0.1013
25495W        W45029   0.187   5.290   1.194 -0.0505  0.1278 -0.1078
25496W        W45030  15.535   3.098  10.098 -0.0490 -0.3201 -0.2005
25497W        W45031   0.306   0.794   1.590  0.1981  0.0426 -0.0880
25498W        W45032  12.987   5.088  11.565  0.1590 -0.1599 -0.1525
25499W        W45033  12.552  12.221  12.530 -0.1552  0.4571 -0.3327
25500W        W45034  16.031  10.692   2.158  0.2731 -0.1931  0.1566
25501W        W45035  11.101   7.387   1.488  0.0651 -0.2695  0.0698
25502W        W45036   1.214  16.187  12.111  0.3642  0.1444 -0.2378
25503W        W45037   9.476   4.951   3.191 -0.0091 -0.0681 -0.1284
25504W        W45038  18.914  10.864   1.761 -0.1199 -0.2163  0.0888
25505W        W45039  17.791  10.436  14.114  0.1701 -0.0943  0.0959
25506W        W45040  11.756   2.620   2.121  0.1061 -0.1569  0.1449
25507W        W45041  14.791  18.539   3.130  0.0656  0.0024  0.2671
25508W        W45042  12.505   5.535  12.938 -0.0325 -0.0676 -0.3483
25509W        W45043   1.029   3.548   2.503  0.0939 -0.2313  0.4874
25510W        W45044   7.961  12.131  12.968  0.0440 -0.2433 -0.0289
25511W        W45045   3.854  11.341  10.651  0.0631 -0.3219  0.0132
25512W        W45046   2.018  13.147   1.188 -0.0028  0.1388  0.1376
25513W        W45047  11.966   8.862   1.870 -0.4534  0.1804  0.1088
25514W        W45048   5.346   6.719   3.748  0.2873 -0.0042 -0.0510
25515W        W45049  14.577  16.316  10.529 -0.1030 -0.0074 -0.0563
25516W        W45050   7.064   4.031  10.939 -0.5744 -0.1617 -0.0519
25517W        W45051   1.950  16.281   3.828 -0.0879  0.3035 -0.1003
25518W        W45052  17.917  10.497   2.263 -0.1246 -0.0465  0.1338
25519W        W45053   6.245  15.400  14.194  0.4895  0.1663 -0.3317
25520W        W45054  18.892  15.774   2.078 -0.2422  0.2544 -0.0291
25521W        W45055   3.767  10.678   2.825 -0.0228  0.0259 -0.1199
25522W        W45056  10.638   2.996   2.956 -0.0280 -0.2409  0.0634
25523W        W45057  13.338   5.647   1.620  0.0848  0.5759  0.2564
25524W        W45058   4.361   7.177  10.611  0.0420 -0.1045  0.1315
25525W        W45059   4.349  14.448  12.528  0.1916 -0.0546  0.1035
25526W        W45060  17.094  18.675  10.855  0.1677  0.0472 -0.2254
25527W        W45061   1.067   7.802   0.323 -0.4589  0.0987 -0.1829
25528W        W45062   5.367   3.386  11.342  0.2714  0.1117 -0.1103
25529W        W45063   2.675   8.178  11.604  0.4267 -0.2532  0.0467
25530W        W45064   8.528  16.701  12.151 -0.0644  0.1948 -0.1009
25531W        W45065   2.431  15.388   2.470 -0.1620 -0.2731 -0.1355
25532W        W45066  18.623   3.901  11.302  0.1645 -0.1153 -0.0484
25533W        W45067  14.338   6.175   2.098  0.0350 -0.2771  0.0374
25534W        W45068  15.920   9.088   3.375 -0.3671 -0.1167 -0.0202
25535W        W45069  16.211   2.335  14.482 -0.2488 -0.1129  0.0709
25536W        W45070   4.914   4.092   3.813 -0.2157  0.1060  0.0686
25537W        W45071  15.202  15.266   0.571  0.2510 -0.2444  0.0503
25538W        W45072  13.301   9.541  14.261 -0.0303 -0.1546 -0.3151
25539W        W45073   6.737   2.775   0.302 -0.1463  0.0959 -0.0397
25540W        W45074   8.682  15.970   2.987  0.2371 -0.0002  0.2627
25541W        W45075  12.203  16.428   1.751  0.0023  0.0889  0.0939
25542W        W45076  10.797  17.190  13.422  0.0252 -0.1537 -0.1857
25543W        W45077   0.635   4.009  12.862 -0.1911 -0.1391  0.0957
25544W        W45078   4.774  11.279  11.847 -0.0345  0.0755  0.0513
25545W        W45079  13.810   1.311   3.262 -0.3490  0.0505 -0.0041
25546W        W45080   8.832  17.034   2.152  0.3654 -0.0260 -0.0218
25547W        W45081   3.229   2.703  13.411 -0.0096 -0.1979  0.0593
25548W        W45082   7.676   8.274   2.962 -0.3218  0.0910  0.0337
25549W        W45083   3.545   5.665   4.227 -0.3999  0.2281 -0.1726
25550W        W45084   8.994  16.529  13.740  0.0134  0.1262  0.0290
25551W        W45085   5.580   7.622   0.243  0.0915  0.1059  0.3727
25552W        W45086  16.036   8.603   3.379  0.1682 -0.2942  0.0807
25553W        W45087  11.546   7.559  13.703  0.3009  0.0570  0.0477
25554W        W45088  15.284   5.762   4.015  0.1867 -0.0105 -0.2814
25555W        W45089  16.989  13.374  11.428  0.3537 -0.0468  0.1170
25556W        W45090  12.532  14.050  12.006 -0.1966 -0.1797  0.0524
25557W        W45091  16.698   2.024   3.592  0.3386 -0.0946 -0.1620
25558W        W45092  16.276   7.357   2.801  0.0664  0.1506  0.0355
25559W        W45093   7.335  12.930  11.610  0.1657  0.4131 -0.1390
25560W        W45094  10.333   3.770  13.537 -0.1593 -0.1159  0.0083
25561W        W45095   9.440  12.614   5.418 -0.3497 -0.1240 -0.0718
25562W        W45096   7.647   4.837  14.607  0.0346 -0.1662 -0.2096
25563W        W45097  17.566   0.736   1.273  0.4599 -0.0671 -0.0125
25564W        W45098  11.940   9.789  12.189  0.1485  0.2478 -0.1110
25565W        W45099  14.333  13.184  10.521  0.1357  0.1760  0.3495
25566W        W45100  13.547  10.114  12.211  0.0529  0.0418 -0.1140
25567W        W45101   2.763  15.893   3.302  0.0440  0.0482 -0.2116
25568W        W45102   6.429  14.060   3.731 -0.0277  0.2789 -0.0840
25569W        W45103  12.720   8.194  11.235  0.0370  0.0900  0.2308
25570W        W45104  15.973   1.026   1.569 -0.1800 -0.2472  0.0727
25571W        W45105  12.045   2.184   3.567 -0.1219 -0.1098 -0.2465
25572W        W45106   8.205   2.069   3.863  0.1280 -0.0926 -0.0664
25573W        W45107   4.765  17.152  14.103  0.2538  0.1353  0.0722
25574W        W45108  13.658  16.260  12.208 -0.0374 -0.1602  0.1079
25575W        W45109  12.606  10.384  13.476 -0.1651  0.0716 -0.2193
25576W        W45110   7.121  16.917  10.276  0.2344 -0.0348 -0.0320
25577W        W45111   8.551  12.597  14.171  0.0309  0.1786  0.0721
25578W        W45112  17.432   8.570   0.232  0.2903 -0.4110  0.1727
25579W        W45113   2.753   3.012   4.565 -0.1170 -0.4396  0.1115
25580W        W45114  15.458  14.564   4.127  0.2735  0.2758 -0.1139
25581W        W45115   6.439   2.707   9.629 -0.1130 -0.1809  0.4895
25582W        W45116   6.787  15.123  13.446 -0.0314  0.2832  0.0497
25583W        W45117  16.632  10.614   2.838 -0.2298  0.1315 -0.0821
25584W        W45118   5.406  15.869   3.998  0.0097 -0.1048 -0.0518
25585W        W45119   1.825  11.202   0.414 -0.0064 -0.0341  0.0239
25586W        W45120   4.411   1.034   2.296  0.1991  0.0517  0.0102
25587W        W45121  17.046  18.855  14.077  0.0723  0.1659 -0.1286
25588W        W45122  14.370  16.697  11.572  0.0815  0.2750  0.1060
25589W        W45123   9.551  11.227   0.793  0.0032  0.0033 -0.1657
25590W        W45124  14.346  18.942  12.785  0.1765 -0.0092  0.0750
25591W        W45125  12.518  16.066   0.291 -0.0025 -0.2802 -0.2536
25592W        W45126  11.824  10.917   0.653 -0.0851  0.4692  0.0037
25593W        W45127  17.725   2.674  12.581  0.2339  0.2017 -0.0306
25594W        W45128  13.470  19.113   3.034 -0.1095  0.0125 -0.0134
25595W        W45129  18.456  14.928  11.192  0.3312  0.2980 -0.2307
25596W        W45130  11.403   1.887   0.604  0.1040  0.0359  0.3236
25597W        W45131   3.563   3.324  12.053  0.2196  0.0328 -0.1653
25598W        W45132   1.044  13.068   3.346 -0.2837  0.2612  0.1233
25599W        W45133   8.061  17.206   4.319 -0.2544  0.1090 -0.2293
25600W        W45134   6.415  13.329   0.347 -0.0129  0.0651  0.0270
25601W        W45135   3.950  10.750   1.622  0.0027 -0.0834 -0.1197
25602W        W45136  14.846  16.224  13.609  0.2986 -0.2625 -0.0456
25603W        W45137   2.957   0.078   0.258 -0.2477 -0.0209 -0.2473
25604W        W45138  15.987   1.245  14.524  0.1622 -0.3345 -0.1215
25605W        W45139   3.263   3.246   3.024 -0.3618 -0.0360 -0.0519
25606W        W45140   5.455   0.219  11.631  0.2879 -0.1781  0.0300
25607W        W45141   1.515  19.083  10.097  0.1877 -0.0611  0.2438
25608W        W45142  10.530  15.936   4.282  0.1388 -0.1136 -0.3691
25609W        W45143   3.017   1.140   0.174  0.0966 -0.1422  0.0158
25610W        W45144  11.969   5.351   1.319 -0.4700  0.0170  0.4634
25611W        W45145   4.801  12.568  12.060  0.0283 -0.2742  0.0200
25612W        W45146   5.385   3.384  12.126  0.0354 -0.3854  0.2233
25613W        W45147  15.326  10.401   1.782 -0.1486  0.1981  0.3488
25614W        W45148  12.969  12.463   0.447 -0.0773  0.0879 -0.0585
25615W        W45149   9.528   3.352  12.988 -0.1317 -0.2422  0.0785
25616W        W45150   8.161  18.184   0.869  0.3405 -0.1103  0.2345
25617W        W45151   3.697   5.017  12.308  0.2282  0.5561  0.2609
25618W        W45152   0.063  12.691  12.255  0.2615  0.2491  0.0142
25619W        W45153   4.404  17.628   3.009  0.0139  0.0398  0.2654
25620W        W45154  19.034  12.677  13.537 -0.0104 -0.2471  0.1017
25621W        W45155  12.842   5.386   3.351  0.3031  0.0380 -0.2192
25622W        W45156  10.974  12.864   0.859 -0.0464  0.1622 -0.3480
25623W        W45157   9.477  12.444   1.525 -0.1184  0.0767 -0.0648
25624W        W45158   3.554  12.712  11.482 -0.1149 -0.2282 -0.2191
25625W        W45159  17.156   5.055   2.548  0.0404  0.0650 -0.0701
25626W        W45160   1.448  10.579  14.778  0.2316  0.0070  0.2573
25627W        W45161  12.034   4.170  13.592  0.3901 -0.2387 -0.0145
25628W        W45162   2.303   6.366  14.509  0.0424  0.1486 -0.1340
25629W        W45163  15.032   5.409   2.645 -0.2864  0.2898 -0.0420
25630W        W45164  13.139   8.266   3.975  0.0537 -0.1024  0.0638
25631W        W45165   7.939   9.130  14.555  0.0432  0.0625 -0.2664
25632W        W45166   6.112  11.762   3.267 -0.1723  0.2279  0.0098
25633W        W45167  12.704   3.610  14.472  0.1150 -0.0688 -0.0593
25634W        W45168   5.420   8.314  12.804 -0.3991 -0.2223  0.1660
25635W        W45169  13.176   7.032  14.154  0.0250  0.1365  0.1503
25636W        W45170  15.711   0.962  11.691 -0.1486  0.3367 -0.0127
25637W        W45171  17.268   6.042   3.846  0.1976  0.1228 -0.1700
25638W        W45172  16.203  19.046  12.816 -0.2810 -0.1218  0.1811
25639W        W45173  10.158  12.757   2.466 -0.0697 -0.2921  0.0289
25640W        W45174   7.654   2.091  11.146 -0.3193 -0.2427  0.3407
25641W        W45175  11.908   0.450   1.978 -0.3236 -0.0455 -0.3314
25642W        W45176   3.953  15.239   0.227 -0.0833 -0.0036 -0.0164
25643W        W45177  18.626   0.314  14.687 -0.2095 -0.1888  0.1126
25644W        W45178  13.348   8.799  10.819  0.0643 -0.2581 -0.2654
25645W        W45179   6.510  17.837   2.683 -0.0298  0.0227 -0.0088
25646W        W45180  11.723   5.381  14.247  0.2349 -0.1053 -0.0125
25647W        W45181   4.762   2.538  13.471  0.1969 -0.0406 -0.2160
25648W        W45182  12.982   3.220   1.530 -0.2334 -0.0739  0.1145
25649W        W45183   0.869   5.790   9.188 -0.0091 -0.2823 -0.0288
25650W        W45184   9.836   6.427  11.446  0.0843  0.4453 -0.1189
25651W        W45185  15.292   2.446  10.789  0.3226 -0.0090 -0.0538
25652W        W45186  12.676  16.337  13.907 -0.0866  0.0748  0.0203
25653W        W45187   5.617  17.442   1.124 -0.2303  0.0150 -0.1391
25654W        W45188  10.881  13.727   0.515 -0.0904 -0.1398  0.2789
25655W        W45189   5.823  10.332   1.849 -0.2609  0.0210  0.4424
25656W        W45190  12.162  17.085   1.406  0.2046  0.2957  0.1192
25657W        W45191  13.718  10.298  14.800  0.1169  0.1479 -0.0306
25658W        W45192   2.957  18.830  14.083  0.2091  0.2678 -0.3962
25659W        W45193   1.044   1.139   4.747  0.2998 -0.3333 -0.0690
25660W        W45194  14.006   9.434  10.818 -0.1587 -0.0132 -0.0422
25661W        W45195   9.817  14.512   1.129 -0.2245  0.2033  0.1915
25662W        W45196   1.433  12.535  11.073  0.0575 -0.4165  0.2173
25663W        W45197  16.770   3.274  13.010 -0.0706  0.3777 -0.4178
25664W        W45198   8.165   0.863   3.877  0.0487  0.1513  0.2830
25665W        W45199   2.770   1.570  11.995 -0.1350 -0.1719 -0.1584
25666W        W45200   7.652  16.286  13.728 -0.3142  0.0573  0.1327
25667W        W45201  12.997  16.805  12.350  0.1574  0.2883  0.1131
25668W        W45202  14.028  13.053   0.458  0.1704 -0.2260 -0.0453
25669W        W45203   6.285  14.910  12.064 -0.0045 -0.0817  0.2729
25670W        W45204   9.399   8.962  13.904 -0.2596  0.0646 -0.0930
25671W        W45205   5.738  10.303  12.282  0.1078  0.1898  0.0355
25672W        W45206   9.409  13.223  13.595  0.1666  0.0313 -0.0317
25673W        W45207  16.388   3.074   0.556 -0.1166 -0.3497 -0.0930
25674W        W45208   1.167   3.520  11.409  0.1998  0.2388 -0.1462
25675W        W45209   8.548   4.271   2.920 -0.1104  0.2292  0.2145
25676W        W45210   6.182  11.723   1.001 -0.0477  0.1286 -0.2447
25677W        W45211   5.928   7.645   2.179 -0.3286 -0.0271  0.0344
25678W        W45212   2.065  11.858   3.854  0.0985 -0.1273 -0.1925
25679W        W45213   3.804   8.765  13.403 -0.0282  0.0302  0.0804
25680W        W45214   6.611   7.293  13.195  0.0500 -0.1173 -0.0767
25681W        W45215  14.396  13.663  12.917 -0.1535  0.2051  0.4762
25682W        W45216   9.830   1.373   1.979 -0.4878  0.1871  0.0450
25683W        W45217  17.616   2.174   3.655 -0.0852 -0.2351  0.0156
25684W        W45218  10.874   7.237   1.893 -0.0240 -0.0008  0.2300
25685W        W45219  17.701   9.064   1.708 -0.0015  0.3540 -0.1522
25686W        W45220   4.554  18.225  10.323 -0.2194 -0.0098 -0.4958
25687W        W45221   0.440   2.781  14.235  0.1250  0.0265 -0.1952
25688W        W45222   2.228  17.790  13.692 -0.4244 -0.0384  0.1020
25689W        W45223   9.807   3.136   3.173 -0.1738  0.0080 -0.1476
25690W        W45224   1.410   6.940   0.869 -0.0239 -0.0913  0.0994
25691W        W45225  17.678   5.926   0.944  0.2748 -0.0705 -0.0838
25692W        W45226  17.460   3.529   0.442  0.2971 -0.2105 -0.0021
25693W        W45227   4.641  17.604   0.069  0.1202 -0.0739  0.0448
25694W        W45228   4.919   5.912  13.687 -0.0410 -0.1243 -0.1069
25695W        W45229   6.942   3.461   0.831  0.1021  0.1597 -0.1546
25696W        W45230   0.855  13.568   1.228 -0.0029 -0.1776 -0.0811
25697W        W45231  10.694  14.981  11.038 -0.2219  0.0058 -0.2134
25698W        W45232   9.782   7.163   3.229 -0.0056  0.2998 -0.3116
25699W        W45233   3.832   7.094  13.106  0.3424 -0.2432 -0.1272
25700W        W45234   8.161   3.185   3.743  0.0472  0.0372 -0.0444
25701W        W45235   8.723   4.176   2.092 -0.2549  0.0862 -0.2368
25702W        W45236   2.448   7.929   2.877  0.0896  0.1521 -0.0324
25703W        W45237  15.028  14.004   0.015  0.0638  0.1330  0.0603
25704W        W45238  12.425  11.675   0.350 -0.2174 -0.4158  0.1962
25705W        W45239   9.846   3.975   0.591  0.0967 -0.0867  0.0586
25706W        W45240  15.128  11.373   0.221 -0.0867  0.0344 -0.1656
25707W        W45241  14.950   5.675  13.991  0.0006  0.2252  0.1064
25708W        W45242  13.955   5.201  10.929  0.2951 -0.0857 -0.0708
25709W        W45243  11.602   4.578   4.135  0.0245  0.0835 -0.0680
25710W        W45244  10.227   3.855  14.526  0.0026 -0.4064  0.3623
25711W        W45245  11.209   5.492   3.295  0.0122  0.0860  0.0300
25712W        W45246  13.800  14.410   1.517 -0.1437 -0.1206  0.0040
25713W        W45247  13.865  17.950  13.463  0.0539  0.0548 -0.0200
25714W        W45248  14.815   1.316  12.810 -0.2870 -0.3012  0.2586
25715W        W45249  15.627  11.769   3.618  0.0170  0.3946 -0.0310
25716W        W45250   6.796   9.365   4.179 -0.2100 -0.0841 -0.3000
25717W        W45251   7.742   4.635   1.238  0.0116  0.2250 -0.1543
25718W        W45252  13.552  14.023   0.564 -0.3857  0.0436 -0.0668
25719W        W45253  14.540   1.768   1.960 -0.0078  0.2428 -0.0359
25720W        W45254  14.941  15.216  11.899  0.1319  0.0565  0.1534
25721W        W45255   8.270  16.920   3.881 -0.2114  0.1751 -0.0270
25722W        W45256   2.449   8.426   0.156  0.0548  0.0608  0.0442
25723W        W45257  16.403   4.551  13.278 -0.2726 -0.2271 -0.1345
25724W        W45258   3.296   2.617  14.759  0.2694  0.0837  0.0626
25725W        W45259   3.056   4.835  11.213  0.2931  0.1529  0.0005
25726W        W45260  10.607   3.248  13.163 -0.0277 -0.1700 -0.3959
25727W        W45261   0.294  11.333   3.848 -0.2176  0.3636 -0.0768
25728W        W45262   7.554  17.052  11.656  0.1612  0.0069  0.1349
25729W        W45263   9.192   6.632  10.202  0.0736  0.0084 -0.1767
25730W        W45264  17.593   7.978  12.474 -0.0333  0.1393 -0.0167
25731W        W45265   2.430  18.162   0.291  0.0029  0.0621  0.1795
25732W        W45266  10.944   5.140   2.494  0.0393  0.1920  0.1198
25733W        W45267   9.651  15.448  12.996 -0.0352  0.2089  0.2478
25734W        W45268  11.745  17.505  14.154  0.2009  0.0319 -0.0713
25735W        W45269   8.148   2.529  11.296  0.1683 -0.1964 -0.3283
25736W        W45270   7.602  17.161   2.941 -0.3264  0.0946 -0.2843
25737W        W45271   1.569  13.550   4.313 -0.1165  0.1391  0.1463
25738W        W45272   9.979  16.928   0.985 -0.1687 -0.0125 -0.1210
25739W        W45273   5.110   5.836   3.842  0.0020 -0.0786 -0.1045
25740W        W45274  11.869  16.739   0.482  0.1137  0.2354  0.2875
25741W        W45275   7.390  15.204   1.877 -0.1056 -0.3152 -0.1627
25742W        W45276  15.810   5.956   2.996  0.1239 -0.3468 -0.0690
25743W        W45277   2.174  10.557   4.340  0.2294 -0.4023  0.1373
25744W        W45278   0.644  12.203   3.404 -0.1759 -0.0384 -0.2197
25745W        W45279  13.167   5.151   0.961 -0.1219  0.0566  0.2629
25746W        W45280   2.067   5.321   0.850 -0.0761  0.0246  0.0910
25747W        W45281   8.870   3.464   0.606 -0.2219  0.1630 -0.2302
25748W        W45282  17.137  13.874  10.779  0.0985  0.2285  0.3564
25749W        W45283  12.009  13.489  14.771  0.0702  0.2929  0.1813
25750W        W45284  15.131   8.691   9.630  0.0788  0.0450 -0.0815
25751W        W45285   7.477   1.262  12.983 -0.0889  0.1550  0.0631
25752W        W45286  15.742  15.076  13.905  0.0423  0.0748  0.2055
25753W        W45287  16.296  17.754  10.778  0.2447 -0.0376 -0.5055
25754W        W45288  13.635   6.216   0.350  0.2810  0.0628 -0.1244
25755W        W45289  11.245   0.826  10.883  0.1744  0.1128  0.2663
25756W        W45290   1.526  11.859  14.822  0.0354  0.3854  0.1502
25757W        W45291   0.488  15.707  13.184 -0.1471  0.2110 -0.2416
25758W        W45292  13.113  15.052   0.288  0.0544 -0.1331  0.3038
25759W        W45293  13.020  10.520   1.938  0.0167  0.2046 -0.0642
25760W        W45294   4.913  11.744   1.806 -0.2121 -0.1738 -0.0545
25761W        W45295   0.183   0.552  14.478  0.1066  0.0514  0.0071
25762W        W45296  15.870  13.026   1.491  0.0634 -0.3284  0.0772
25763W        W45297  17.396  16.856   3.336  0.1358  0.2469  0.1386
25764W        W45298   7.339  13.157  12.070  0.0014 -0.0633 -0.2466
25765W        W45299   0.877   4.373  14.438  0.0197  0.1232 -0.0082
25766W        W45300  10.388   5.428  11.470  0.0397 -0.4342  0.0676
25767W        W45301  13.490   9.955   2.874  0.4303  0.1770  0.0731
25768W        W45302   6.845  18.650  14.197 -0.2393 -0.0281  0.0403
25769W        W45303   9.236  16.485  14.223  0.0155 -0.2064 -0.0118
25770W        W45304   4.670   8.224   5.133  0.3315 -0.1070  0.0287
25771W        W45305  16.245   6.253  13.123 -0.1517 -0.1134  0.1318
25772W        W45306  11.519  11.853  13.797  0.0259  0.0414  0.3727
25773W        W45307   0.415   0.642  10.933  0.5020  0.0450 -0.1864
25774W        W45308  12.306   5.524   3.177  0.0402 -0.1443  0.0500
25775W        W45309   1.150   5.138  12.548  0.1024  0.1260 -0.4740
25776W        W45310   5.427   2.325   3.072 -0.2922 -0.0549  0.0377
25777W        W45311   7.062  11.995  12.893  0.1527 -0.2040 -0.1324
25778W        W45312  14.870  18.208   0.596 -0.1898  0.2907 -0.0395
25779W        W45313   8.857  13.695   2.494 -0.1147  0.1442 -0.2523
25780W        W45314  12.822  16.018  14.640 -0.1090 -0.1493  0.1500
25781W        W45315   2.416   4.134  11.528  0.2522  0.1953 -0.1877
25782W        W45316  15.789  12.880   0.977  0.3055 -0.1147 -0.1173
25783W        W45317   6.405   3.769   3.306  0.1927 -0.2061  0.2968
25784W        W45318  11.953  14.853  11.175  0.1276  0.2583  0.0706
25785W        W45319  12.137  12.989   2.268 -0.1408 -0.2392 -0.0010
25786W        W45320  12.422  14.673  13.209  0.1660  0.4646 -0.0234
25787W        W45321   6.562   9.259   0.821 -0.2014 -0.0132 -0.2124
25788W        W45322  15.540   7.049  14.388  0.1927 -0.0370  0.3663
25789W        W45323  15.032   0.046  13.306  0.1108 -0.2203 -0.1105
25790W        W45324   1.557   4.826  12.787 -0.0013  0.0382 -0.1849
25791W        W45325   5.113   3.537   1.995 -0.2736  0.2550  0.0163
25792W        W45326  18.826   5.995  10.752  0.2180  0.2562  0.0527
25793W        W45327   0.674  12.202   3.912  0.0505  0.2011 -0.2432
25794W        W45328   3.304   5.794   2.474 -0.0655  0.1569  0.2922
25795W        W45329  11.561   0.787   2.346 -0.0604 -0.2072 -0.0321
25796W        W45330   9.067  10.052   3.588  0.1556 -0.1899 -0.4464
25797W        W45331   9.486  12.345  13.264  0.1580  0.1570 -0.2619
25798W        W45332  14.429   1.817  13.711 -0.1203 -0.0487 -0.0617
25799W        W45333   3.706   2.326   3.666  0.1396  0.0553 -0.2843
25800W        W45334  11.704   3.322  13.317 -0.1187 -0.3645  0.2259
25801W        W45335   0.952   7.864   2.728  0.0317  0.1268  0.1123
25802W        W45336  16.320  18.315   3.491 -0.3126 -0.0754 -0.1960
25803W        W45337   1.548   6.638  10.774 -0.0277  0.2761 -0.1240
25804W        W45338   7.583   9.161   2.515  0.1320 -0.0270  0.0355
25805W        W45339   9.196   7.025  13.415 -0.0090 -0.0143 -0.0582
25806W        W45340  11.188   0.741   2.795  0.0531  0.1720 -0.0144
25807W        W45341  17.938   5.135   1.920  0.0271  0.0976  0.1507
25808W        W45342   1.937  17.081   3.880 -0.1320 -0.0513  0.0171
25809W        W45343  11.297   5.453   2.243 -0.0741 -0.2547  0.0512
25810W        W45344  11.886  13.345   4.390 -0.1389 -0.1597  0.0533
25811W        W45345   9.103  15.963   2.794  0.0965  0.0115 -0.0698
25812W        W45346  10.568   0.768   3.183  0.1137  0.1948 -0.1927
25813W        W45347   6.592   0.769  14.125  0.0982 -0.1922  0.0915
25814W        W45348   3.433  11.127   0.860 -0.1531  0.1024  0.3132
25815W        W45349  16.084  13.488   3.845 -0.0821  0.0795 -0.2963
25816W        W45350   0.148  18.495   2.212  0.0641  0.1258 -0.3653
25817W        W45351   0.433   2.855   0.829 -0.3356 -0.0392 -0.1094
25818W        W45352   7.300   3.571  14.829  0.2656 -0.0481  0.0441
25819W        W45353  12.780  12.441  11.041 -0.3321  0.0115  0.2782
25820W        W45354  16.052  12.697  14.588  0.1904 -0.0307 -0.1076
25821W        W45355   4.795   9.017  14.017  0.0358  0.1794  0.1082
25822W        W45356  12.252  14.212   4.424 -0.0322  0.0667 -0.3992
25823W        W45357   5.328  13.905  11.768 -0.1400  0.2168 -0.3558
25824W        W45358   1.923   4.356  12.436  0.1314 -0.2584  0.1189
25825W        W45359  14.266  13.380   2.595  0.1358  0.2689  0.2509
25826W        W45360  10.665  11.143  11.343 -0.1260 -0.0159  0.0883
25827W        W45361  15.749   8.251   0.050 -0.0202  0.1588  0.0437
25828W        W45362   9.429   1.703  12.123  0.1844 -0.2344  0.1325
25829W        W45363  12.507  13.901   4.154  0.3159 -0.2031  0.1070
25830W        W45364  10.390  11.862   9.338  0.3610 -0.0135  0.0074
25831W        W45365   2.063   8.250   0.473 -0.0363 -0.0133 -0.0411
25832W        W45366   4.307  18.076   1.090  0.2265 -0.0084  0.1699
25833W        W45367   8.747  10.093  10.527  0.0926  0.0746 -0.2482
25834W        W45368   2.772   8.408  13.408 -0.0053 -0.1114  0.2179
25835W        W45369   4.334   4.948   0.124 -0.2896 -0.1947 -0.4384
25836W        W45370  16.640  13.613  12.364 -0.0488  0.2905 -0.0583
25837W        W45371  14.237  16.855   2.724  0.2530 -0.2452  0.1111
25838W        W45372  18.178  10.632  14.392 -0.1536  0.0181 -0.5671
25839W        W45373  14.408  16.116   3.366 -0.1542  0.0824  0.0208
25840W        W45374   2.256   3.205   3.174 -0.0994 -0.4378  0.0746
25841W        W45375   9.966  13.873   3.926 -0.0645 -0.0690  0.0587
25842W        W45376   3.667   0.701   1.576  0.2182  0.1317 -0.0897
25843W        W45377   7.447   5.502   4.856  0.1754 -0.0719  0.0997
25844W        W45378   3.550  13.278  13.079  0.2603 -0.0549  0.1879
25845W        W45379   4.505   4.623  11.512 -0.0556 -0.1919 -0.1724
25846W        W45380   9.872   3.652   1.876  0.0477 -0.0425 -0.0304
25847W        W45381   3.001   0.389   1.324 -0.1092 -0.0180 -0.0562
25848W        W45382  16.426  17.820   3.314  0.1186 -0.0352 -0.2256
25849W        W45383   2.300   9.200   4.229 -0.1142  0.2907  0.2786
25850W        W45384  14.821   6.152   3.235  0.1148 -0.1697  0.2622
25851W        W45385  15.249   6.679  14.569  0.0635  0.0096 -0.2030
25852W        W45386  18.364  15.309   0.838 -0.0456  0.0284 -0.1158
25853W        W45387   7.815   9.916  12.165  0.0187 -0.1495  0.0418
25854W        W45388  16.953   3.958   2.003 -0.2444 -0.0876 -0.0029
25855W        W45389  17.380   1.339   0.112  0.4157  0.0664 -0.0531
25856W        W45390  11.668  12.982  10.746  0.0454 -0.0584 -0.0910
25857W        W45391  10.986  15.584  10.182  0.0275  0.1188  0.0945
25858W        W45392   1.401   7.294  12.442  0.1346 -0.0044 -0.2933
25859W        W45393  15.272  11.276  10.325 -0.1835 -0.0817  0.2371
25860W        W45394   5.544   1.464  11.736 -0.1908 -0.2790  0.0490
25861W        W45395  16.196  11.946  10.024 -0.1869 -0.2485 -0.0074
25862W        W45396   6.009   5.182   0.834 -0.0637  0.0359 -0.3181
25863W        W45397  13.645  13.067   1.244  0.0182  0.1480 -0.0749
25864W        W45398  12.882  18.860   0.286 -0.2098  0.1365  0.4777
25865W        W45399  13.394  19.111  12.960 -0.1542  0.2515  0.3139
25866W        W45400  12.485  15.453  12.865  0.3587 -0.0700 -0.0358
25867W        W45401  11.325  13.520   0.600  0.0806 -0.0219 -0.0538
25868W        W45402  17.699   3.966  11.950  0.5031  0.1208 -0.2330
25869W        W45403   3.118   6.472   1.996 -0.0935  0.1688 -0.1039
25870W        W45404   3.742  16.960   0.872  0.1200  0.0936 -0.1585
25871W        W45405   2.537   4.653  13.990 -0.1877 -0.1478 -0.3023
25872W        W45406   8.417  17.380  11.464  0.1071 -0.0598  0.2105
25873W        W45407   2.901  11.814   0.466  0.2953 -0.0509 -0.2838
25874W        W45408   8.790   7.520  13.495 -0.1657  0.0261  0.0683
25875W        W45409  14.049  16.672   1.285 -0.2160  0.0050  0.0851
25876W        W45410  11.777  13.588  13.768 -0.0876  0.0153  0.1005
25877W        W45411  14.978   3.588  11.204 -0.2191  0.1969  0.0725
25878W        W45412   0.533  11.572   1.228  0.0260  0.0054  0.1273
25879W        W45413   9.168   3.707  12.855  0.2050  0.2586 -0.2668
25880W        W45414   8.683  12.639   3.719 -0.3794  0.1030 -0.2448
25881W        W45415  13.407   6.871  11.652 -0.1136  0.1929  0.0744
25882W        W45416  11.639   1.418   0.036  0.0320 -0.0155 -0.0656
25883W        W45417   8.402   9.792  11.413  0.0328 -0.4351  0.3069
25884W        W45418   2.053   3.988   4.145 -0.1670  0.2318 -0.1459
25885W        W45419   2.410  13.530  12.435 -0.1813 -0.0297 -0.0294
25886W        W45420  19.064  11.249   2.006  0.1125 -0.1316 -0.0037
25887W        W45421   3.546  15.627   0.990 -0.4101  0.0385 -0.1519
25888W        W45422   7.993   8.616   1.880  0.0766  0.0556 -0.1002
25889W        W45423   9.834  13.727   3.383 -0.0984  0.1874 -0.1179
25890W        W45424   7.946  13.208  13.376 -0.2298  0.1816  0.2550
25891W        W45425  11.300  18.592  13.378 -0.2285 -0.1381 -0.1341
25892W        W45426  16.642  12.811   3.712  0.2010 -0.0108 -0.6269
25893W        W45427  11.847  10.011   0.511 -0.0486 -0.4159  0.1058
25894W        W45428   8.858  18.696  12.947 -0.0729 -0.2488  0.2722
25895W        W45429   8.295  15.103  12.182 -0.2626  0.0965 -0.0280
25896W        W45430   8.249   7.491   2.614  0.0648  0.2155  0.0649
25897W        W45431   9.062  12.609   1.761  0.1365 -0.1878 -0.3182
25898W        W45432   3.241  10.923  13.206 -0.2360 -0.1695  0.2333
25899W        W45433  13.554   7.950  14.410 -0.0977  0.2078 -0.0722
25900W        W45434  10.563   2.002   3.343  0.1836 -0.1217  0.0366
25901W        W45435  17.236  10.137  13.431  0.5529 -0.2124  0.0211
25902W        W45436   8.753  13.444   1.350  0.0791 -0.0505  0.2226
25903W        W45437   3.721  15.514  12.688 -0.0220 -0.1794  0.3423
25904W        W45438   1.865  17.201   1.598 -0.0847 -0.1100  0.0152
25905W        W45439   8.348   0.045   3.250  0.2023  0.0801  0.0546
25906W        W45440  19.081  10.280  14.449  0.0197 -0.2344  0.3076
25907W        W45441  18.325  14.502  14.297 -0.2500 -0.1509  0.2423
25908W        W45442  13.746  17.372  11.563  0.1887  0.1395  0.1738
25909W        W45443   7.245  10.070   3.432  0.0227  0.0457 -0.4594
25910W        W45444   6.010  13.262   2.920 -0.1930 -0.0366  0.3971
25911W        W45445   4.599   7.886   1.356  0.0172 -0.1582 -0.0592
25912W        W45446  16.163   3.296   3.955 -0.0681  0.1236  0.0872
25913W        W45447  18.372  17.070   3.111  0.0711 -0.1800 -0.1474
25914W        W45448  17.736   0.838  10.970  0.0106 -0.0689  0.1564
25915W        W45449  11.858   3.870   0.096 -0.1616  0.0038 -0.0052
25916W        W45450  17.083  10.031   9.942 -0.0738 -0.3321  0.1078
25917W        W45451   5.039  15.033   4.163 -0.0965 -0.0734 -0.0102
25918W        W45452  10.143   7.089  12.994  0.0312  0.0962  0.1714
25919W        W45453   0.105  11.613   3.498  0.0968 -0.2676 -0.0943
25920W        W45454  18.332   9.590  14.512  0.1227  0.0680 -0.1430
25921W        W45455  13.987   3.324   1.478  0.1015 -0.0730 -0.1604
25922W        W45456   3.388  16.501  13.106 -0.3395  0.2237 -0.3262
25923W        W45457  16.191   7.412  11.054  0.2566  0.0474  0.0795
25924W        W45458   9.051   6.058   0.189 -0.2545  0.0493  0.2712
25925W        W45459   3.909  14.387  12.270 -0.1017  0.1921 -0.0888
25926W        W45460  13.472  18.560   2.126 -0.0248 -0.0654  0.0956
25927W        W45461  15.409   1.563  10.773 -0.2085 -0.1356  0.2524
25928W        W45462   7.045  11.069  11.080 -0.0689 -0.0613 -0.1173
25929W        W45463   9.426   3.330   0.543 -0.0512 -0.1161  0.1503
25930W        W45464   6.453   8.130  12.026 -0.0664  0.0099  0.3548
25931W        W45465   1.663  14.530  11.242  0.0028 -0.0311  0.2179
25932W        W45466   7.147  12.822  12.570 -0.1800 -0.0442  0.1086
25933W        W45467   2.117   7.313   0.842  0.4143 -0.0088 -0.2036
25934W        W45468  13.006   3.518  11.789  0.0367 -0.1268 -0.0717
25935W        W45469   1.091  12.961   0.134  0.1681 -0.0367  0.2631
25936W        W45470   7.469  18.922   3.332  0.0887 -0.0019 -0.1656
25937W        W45471   3.430   4.384  14.507  0.3562  0.1990 -0.4925
25938W        W45472   4.318   5.571  10.528  0.1789 -0.1815  0.1617
25939W        W45473   7.127  18.486   3.478 -0.1278  0.4842 -0.0132
25940W        W45474  18.263   3.432   0.088  0.0373 -0.4093 -0.0008
25941W        W45475  13.400  11.565  12.409  0.2052 -0.0747  0.0194
25942W        W45476   4.634  11.854  14.206  0.2903  0.1570 -0.2805
25943W        W45477   7.398   8.270   0.304  0.0582 -0.0275  0.2405
25944W        W45478  14.341   0.070  11.178  0.3008 -0.0850  0.2181
25945W        W45479  11.640   5.443  13.522  0.1036  0.3513 -0.0531
25946W        W45480   0.743  13.808  11.164  0.4280  0.0275  0.0133
25947W        W45481   7.369   6.189  12.726 -0.0250  0.0651 -0.1277
25948W        W45482   3.400  11.841  14.273 -0.1311  0.0186 -0.1396
25949W        W45483  11.748  14.456   3.169 -0.0759 -0.1768  0.0948
25950W        W45484  12.213   1.296   1.442 -0.2498  0.1967  0.2744
25951W        W45485  18.476  10.062   1.951 -0.1147  0.4070  0.1690
25952W        W45486  11.139   7.355  11.776  0.0179  0.0142  0.1812
25953W        W45487   2.715  13.957   2.361 -0.0264 -0.0769 -0.1879
25954W        W45488  18.645  15.991   3.988  0.0697  0.3587 -0.0590
25955W        W45489  14.280  12.212  14.787  0.2345  0.1491 -0.0109
25956W        W45490  14.593  10.997  14.632 -0.1936 -0.1505  0.2184
25957W        W45491   0.977   6.803  11.253  0.3379 -0.0642 -0.2832
25958W        W45492  17.495   1.916  13.973  0.3464  0.1056 -0.0130
25959W        W45493  19.002   6.175  12.709  0.0920  0.2079 -0.2234
25960W        W45494  15.758   5.677   1.045 -0.1401 -0.0613  0.2038
25961W        W45495   1.690  15.824   2.290  0.1250  0.1261 -0.0325
25962W        W45496  13.868   9.618  14.408  0.1530 -0.0714  0.0630
25963W        W45497   4.609  16.566   2.691  0.1848 -0.1020 -0.1271
25964W        W45498   7.183  15.675  12.379 -0.2993 -0.0638  0.1782
25965W        W45499  12.771   5.177   0.556  0.1385 -0.1227 -0.2266
25966W        W45500   5.073   2.575   0.787  0.0521  0.0268 -0.0708
25967W        W45501  16.344   3.653  13.886  0.3069  0.1142  0.1631
25968W        W45502   1.289  18.289   4.271 -0.2014  0.0692  0.2074
25969W        W45503  12.488  15.198  11.341  0.1395 -0.2690  0.1314
25970W        W45504  18.679   0.708   2.313  0.4700  0.0217  0.2638
25971W        W45505   3.583  11.972  10.896  0.4236  0.0688 -0.2052
25972W        W45506   7.842  12.763  10.631 -0.0261 -0.2026 -0.2402
25973W        W45507   8.679  15.816  12.063  0.1169 -0.0971 -0.1512
25974W        W45508   6.978   4.340   1.273  0.0592 -0.3032  0.0205
25975W        W45509  17.751   4.091   0.360  0.3215 -0.0370 -0.1425
25976W        W45510   9.507   6.373  12.651  0.0255 -0.2635 -0.0235
25977W        W45511  18.102  12.446   1.145 -0.1518 -0.2148  0.1769
25978W        W45512  14.102   3.193   3.508 -0.0322  0.0776  0.0015
25979W        W45513  10.488  15.399   2.018  0.1157  0.1767 -0.0233
25980W        W45514   7.945  18.851   2.384  0.4689 -0.0681  0.1778
25981W        W45515   6.965  14.289   4.191  0.1145 -0.3848  0.1234
25982W        W45516   9.167   3.982   2.292 -0.0675 -0.2548  0.1748
25983W        W45517  13.614  14.876  13.404  0.1077 -0.0177  0.0353
25984W        W45518  13.197  11.879  12.025  0.0651  0.3404 -0.3556
25985W        W45519  18.111  13.184  13.262  0.1674 -0.3463 -0.0914
25986W        W45520   8.684   4.830  12.303  0.0652  0.0980 -0.1156
25987W        W45521  15.227   3.761   3.559 -0.4079 -0.0804 -0.1098
25988W        W45522  17.224  17.543  13.609 -0.0321 -0.1908  0.1357
25989W        W45523   3.028   8.262  11.223 -0.0692  0.1155 -0.0275
25990W        W45524   0.346   7.297   2.830 -0.0508  0.1996 -0.2040
25991W        W45525   8.017   0.461   1.860  0.1847  0.1665  0.2161
25992W        W45526  14.543   8.826  13.034 -0.0334 -0.0449 -0.0361
25993W        W45527   3.971  14.654  12.776 -0.2429  0.1881 -0.1263
25994W        W45528  10.923  12.855  12.228 -0.0452  0.0709  0.1759
25995W        W45529  12.379   8.418   5.157  0.0562  0.0055 -0.2304
25996W        W45530  15.349   4.278  11.712  0.1243  0.3526  0.0174
25997W        W45531  11.119  12.253  12.249 -0.0500  0.2171 -0.0639
25998W        W45532   3.064  15.562   3.035 -0.1752  0.1113 -0.2130
25999W        W45533   2.588  16.376   4.103  0.0860 -0.1678 -0.2813
26000W        W45534   2.081  17.668   0.172  0.3109 -0.1903  0.0202
26001W        W45535  11.967  14.531   0.124 -0.3759  0.3306  0.0430
26002W        W45536   0.209   8.814   1.135 -0.1064 -0.1635  0.0585
26003W        W45537  10.768  16.568   0.616  0.0507 -0.1813  0.2516
26004W        W45538  15.539   2.841   0.777  0.0847  0.1074  0.2260
26005W        W45539  11.249  15.591  10.882 -0.0866  0.1259 -0.1240
26006W        W45540  16.221   8.481   0.159 -0.2396 -0.1987  0.1321
26007W        W45541   8.994  11.085  10.223 -0.0259  0.1845 -0.1907
26008W        W45542  14.282   0.533   1.015 -0.0612 -0.3200 -0.0533
26009W        W45543  10.964  13.644  12.753  0.2323  0.0114 -0.1837
26010W        W45544   3.997   3.488   1.145  0.0886 -0.2133  0.1190
26011W        W45545   8.639   8.007  12.260 -0.0094 -0.0102  0.4344
26012W        W45546   7.517  11.575  11.782 -0.2154  0.1875 -0.3968
26013W        W45547  15.287   8.919   4.683 -0.0886  0.1958  0.1690
26014W        W45548  11.262  16.386   3.268  0.2132 -0.2169 -0.1266
26015W        W45549   8.156   5.957   1.676 -0.0793 -0.0945 -0.1811
26016W        W45550   7.288   3.299  11.883 -0.1054  0.1579  0.1130
26017W        W45551  14.151  16.724   4.169 -0.2972 -0.2909  0.0615
26018W        W45552   5.302   1.655  14.261 -0.1166  0.1665  0.1368
26019W        W45553  12.442  17.957   1.430  0.0741 -0.0996  0.0621
26020W        W45554  17.577   3.796   2.263  0.1081 -0.0672 -0.0064
26021W        W45555   8.657  18.778   2.532 -0.2782 -0.1725 -0.3054
26022W        W45556  15.218  11.254   3.475  0.0716  0.0365  0.1227
26023W        W45557  14.247  14.421   0.440  0.2518 -0.2743  0.1413
26024W        W45558   8.300  11.851  12.105 -0.0952 -0.0438 -0.1163
26025W        W45559   0.519   0.020   3.350  0.2632 -0.3826  0.1588
26026W        W45560  11.177  12.945  14.813 -0.0679  0.1773  0.2282
26027W        W45561  10.241  12.800  11.169  0.3441  0.2136  0.2318
26028W        W45562   5.596  17.136   0.350  0.0457 -0.0485 -0.0624
26029W        W45563   0.624   3.749  10.756  0.1180  0.0468 -0.1253
26030W        W45564   9.055   8.513   0.050  0.2016  0.1612  0.1207
26031W        W45565   0.824  10.852  12.437 -0.1109  0.1914  0.2105
26032W        W45566  13.611  10.395  13.958 -0.0090 -0.0027  0.0727
26033W        W45567   1.586  17.698   3.605  0.0376 -0.3262  0.0115
26034W        W45568  16.942   3.746   0.155 -0.3006  0.2825 -0.1390
26035W        W45569   7.220   3.048  13.846 -0.0417 -0.2600  0.3081
26036W        W45570  13.228  14.545   1.626 -0.1388 -0.0106 -0.2468
26037W        W45571  10.524  16.243   2.091  0.1582  0.2031 -0.0973
26038W        W45572   5.844  15.363   3.114  0.0390  0.2442 -0.2921
26039W        W45573   1.555   2.960  12.077  0.1268  0.1743 -0.0605
26040W        W45574   2.254   3.447  12.144 -0.0669  0.0512  0.0542
26041W        W45575   5.321  15.125  14.629  0.3652  0.4282 -0.1131
26042W        W45576   9.798   5.934  12.709  0.0471 -0.2961  0.1222
26043W        W45577   0.710  14.373   3.301 -0.0451 -0.0477  0.3954
26044W        W45578  12.989  17.509  12.725  0.0006 -0.2071  0.2778
26045W        W45579   2.446   5.731   2.938  0.1987 -0.2847  0.3602
26046W        W45580  16.210  18.910   3.535 -0.3220  0.1152  0.0039
26047W        W45581   8.551  16.334  12.497  0.0475 -0.1126 -0.1939
26048W        W45582   9.087  12.127   1.588  0.2112  0.0182 -0.1213
26049W        W45583  13.369   1.237  11.621  0.1771  0.2238 -0.0063
26050W        W45584   1.469  16.960  11.744 -0.3453 -0.0835 -0.0515
26051W        W45585  13.326  17.029  13.401  0.1203 -0.3714  0.0840
26052W        W45586   1.433   7.748  12.752  0.0566  0.0229  0.0192
26053W        W45587  13.813  17.433   4.072 -0.0840 -0.2146  0.2638
26054W        W45588   2.612  12.381   0.519 -0.3101 -0.0017 -0.0546
26055W        W45589  13.577  15.075   4.202 -0.0776 -0.1299 -0.1207
26056W        W45590   8.024   9.436   0.091 -0.0801 -0.2304  0.1651
26057W        W45591  10.805   1.771   3.922  0.0221  0.0157  0.0061
26058W        W45592  13.805  13.072  13.327 -0.0798  0.2193 -0.0763
26059W        W45593  12.833   7.635  11.286  0.2435 -0.0739 -0.0431
26060W        W45594   5.453   8.499   2.977  0.1909 -0.3202  0.0220
26061W        W45595   3.466   5.048   3.490  0.0461 -0.1569 -0.0519
26062W        W45596  10.756   7.454  13.427 -0.0727  0.3892 -0.0044
26063W        W45597  12.852   3.842  12.552 -0.0333 -0.0852 -0.0833
26064W        W45598  10.727   6.749   3.427  0.1969  0.0361  0.3086
26065W        W45599  12.449  16.686   4.775  0.1249  0.1737  0.0254
26066W        W45600   9.974   6.689  11.876 -0.2271 -0.1891 -0.0468
26067W        W45601   6.151   4.500   0.290 -0.4825  0.1583  0.2640
26068W        W45602   0.892  10.322  11.484  0.1286  0.0318 -0.0328
26069W        W45603   2.352  11.725   1.164 -0.1182 -0.3293  0.0766
26070W        W45604   3.945   3.316  13.838  0.3798  0.1150 -0.2151
26071W        W45605  17.446  13.904  12.715 -0.0083 -0.1162  0.0418
26072W        W45606  16.403   7.018   1.415  0.1150 -0.0803  0.0155
26073W        W45607   1.105   1.136  13.588 -0.0536  0.1371 -0.1484
26074W        W45608   1.398   5.508  12.770 -0.0680  0.1476 -0.1635
26075W        W45609  14.212   4.547   4.444 -0.2121 -0.1518 -0.0163
26076W        W45610   0.145   1.316  10.951  0.3219  0.0875 -0.1366
26077W        W45611   1.518   6.032  11.437  0.3763 -0.1818  0.1935
26078W        W45612  15.881  11.200  12.644 -0.0437 -0.2109  0.0510
26079W        W45613   9.671   0.589   0.571  0.1452 -0.1660 -0.0513
26080W        W45614   1.004   1.831   2.299  0.0339 -0.2592  0.2802
26081W        W45615  10.961   9.456   1.248  0.0591 -0.0350 -0.2363
26082W        W45616  14.502  14.188   3.162 -0.0418  0.1291  0.0222
26083W        W45617   2.449  14.538   1.568 -0.1220  0.1970 -0.0531
26084W        W45618   0.142   6.446   3.248  0.1098 -0.1337 -0.5310
26085W        W45619   8.889   4.008   0.767  0.1648 -0.0152  0.2124
26086W        W45620  11.386  10.205  14.062 -0.2349  0.0983 -0.1162
26087W        W45621  11.228   1.993   4.301 -0.0788 -0.0441  0.3568
26088W        W45622   0.662   0.920  12.900 -0.0929  0.1845  0.1133
26089W        W45623  14.178   7.957  11.999  0.1665  0.0990  0.1772
26090W        W45624  16.534   3.801  13.457  0.0418  0.1188  0.4722
26091W        W45625   4.758   1.740  11.817 -0.0030 -0.0605  0.1151
26092W        W45626   3.831   1.621   2.560 -0.2622 -0.1691  0.3455
26093W        W45627   6.170   7.704  12.855  0.2029 -0.0587  0.5445
26094W        W45628   8.973  15.791  14.396 -0.1154 -0.0177  0.1204
26095W        W45629   0.896  16.788  11.470 -0.3037 -0.0921 -0.5324
26096W        W45630   1.795   4.332   0.318 -0.1494  0.0522  0.0407
26097W        W45631  11.348  10.146  12.222 -0.4744 -0.0104 -0.2265
26098W        W45632   8.346  16.409   1.444 -0.0336  0.2754 -0.2667
26099W        W45633   0.101   3.208  12.627  0.2611 -0.0955  0.0382
26100W        W45634   0.896  10.380   1.801  0.0154 -0.0212 -0.0751
26101W        W45635  15.138   9.554   3.383  0.0287 -0.1720 -0.5004
26102W        W45636   4.265   0.744  14.333 -0.1316  0.2092 -0.0649
26103W        W45637  13.663   9.690  13.947  0.1389 -0.1003  0.2700
26104W        W45638  16.168   2.679  10.965 -0.0817  0.1002  0.2456
26105W        W45639   1.672  11.857  10.535  0.0010  0.1128 -0.2026
26106W        W45640   6.467  14.783  13.000  0.0894  0.0875  0.2549
26107W        W45641  18.563   8.028   0.572 -0.1912 -0.0635  0.1725
26108W        W45642  14.842  17.712   2.907 -0.1183  0.2872  0.0824
26109W        W45643  15.540  10.807  13.008 -0.2203 -0.0416 -0.0304
26110W        W45644   5.807  13.231  10.459 -0.0921 -0.0455 -0.2827
26111W        W45645  11.795   3.682  10.924 -0.1245 -0.0341 -0.1450
26112W        W45646   4.465  14.174   2.417 -0.1624 -0.0598 -0.2198
26113W        W45647  16.453  16.047  11.233  0.4871  0.3661 -0.0656
26114W        W45648  10.112   7.259  11.754  0.2328  0.1376 -0.2713
26115W        W45649  18.683   8.459  14.342  0.1794  0.1249  0.1753
26116W        W45650  18.714  16.505  13.329 -0.0459  0.2049 -0.2169
26117W        W45651  11.986  16.798  12.568  0.0524 -0.1142  0.0641
26118W        W45652   6.091  17.010  12.892  0.0272 -0.3239  0.0313
26119W        W45653   9.694  10.330   3.040  0.0863 -0.2089 -0.1633
26120W        W45654  12.686   8.359   1.581 -0.3531  0.0683  0.0003
26121W        W45655   4.966   6.088   1.915 -0.2497  0.1505 -0.0026
26122W        W45656  14.262  15.983   2.898 -0.0211  0.3084  0.1544
26123W        W45657  16.737  10.519   4.229  0.3341 -0.1107 -0.0400
26124W        W45658  17.940   8.603  11.187  0.0094 -0.0465 -0.0392
26125W        W45659  14.437  17.938  12.132 -0.0028 -0.1682 -0.1594
26126W        W45660  16.096  18.208  11.025  0.2152 -0.1660 -0.2555
26127W        W45661   8.124   6.787  12.452 -0.0122 -0.0091  0.2710
26128W        W45662   4.124   5.530   5.139  0.1954  0.0600 -0.0668
26129W        W45663  18.569  14.677  12.698 -0.0333  0.0104  0.1925
26130W        W45664  15.171   6.545  13.484  0.0534 -0.0648  0.0998
26131W        W45665   4.950  13.322   4.604  0.0028 -0.0308  0.3087
26132W        W45666   4.681   8.846   1.716 -0.3258 -0.0215 -0.1987
26133W        W45667  18.057  13.050   3.849  0.3701  0.1989 -0.0937
26134W        W45668  17.889  11.506   3.186 -0.1705  0.1240  0.0553
26135W        W45669   8.844   8.215  13.541 -0.2248  0.1999 -0.0534
26136W        W45670  12.789  17.090   2.356 -0.0562 -0.0452  0.4318
26137W        W45671   8.814   5.846  12.656 -0.3090  0.2540 -0.1109
26138W        W45672  18.262  10.832   2.420 -0.0925 -0.2294 -0.0638
26139W        W45673  16.443   7.249  10.665  0.3440  0.0613 -0.1250
26140W        W45674   3.836  17.694   3.262  0.1492  0.0346 -0.3997
26141W        W45675   0.073  15.183  10.854  0.0624 -0.0282  0.0731
26142W        W45676   4.802   7.258   4.137  0.1093 -0.0032 -0.2276
26143W        W45677   1.662   1.127   3.457 -0.0120 -0.3766 -0.2463
26144W        W45678  14.538   6.116   2.605  0.1007  0.0889 -0.0345
26145W        W45679   2.596   3.282  11.846  0.0455 -0.0338 -0.2805
26146W        W45680  14.175  15.791   1.465  0.0580 -0.4932  0.1909
26147W        W45681  12.796   5.961   0.126 -0.1805  0.0273 -0.1038
26148W        W45682   3.182   2.620   0.841  0.2210  0.4205  0.4263
26149W        W45683   0.210   0.878  12.174  0.0125 -0.0374  0.2733
26150W        W45684   9.517  13.908   2.213 -0.1283 -0.3313 -0.3080
26151W        W45685  12.366  16.442   3.488  0.0467  0.2722  0.0920
26152W        W45686   8.057  16.027  11.293 -0.0999  0.0915  0.0050
26153W        W45687  11.551   1.330  14.064 -0.0109 -0.0695  0.3012
26154W        W45688  12.975  14.392   3.763  0.0244  0.3539 -0.0440
26155W        W45689   2.910   6.078   0.082  0.1541  0.3165  0.0919
26156W        W45690   9.203   5.425  11.793  0.0321  0.1843  0.1312
26157W        W45691   9.089   4.291   1.820  0.0040  0.2548 -0.1833
26158W        W45692  10.860  12.098  14.291 -0.1904 -0.1759 -0.0931
26159W        W45693  15.806  17.635   1.296  0.7583 -0.0533  0.1413
26160W        W45694   5.996   6.807  14.651  0.2090 -0.0357 -0.0509
26161W        W45695   1.956  17.942   0.637 -0.0535 -0.1614 -0.1385
26162W        W45696  11.145   6.728   0.602 -0.1050  0.1701 -0.0642
26163W        W45697  15.393   9.365  10.629  0.3928 -0.1039 -0.1650
26164W        W45698   5.918  10.939   1.840 -0.0351  0.0704  0.0160
26165W        W45699  10.586   9.019  11.876  0.0991  0.2478 -0.0481
26166W        W45700  14.289   6.628  10.494 -0.0168  0.0811  0.0355
26167W        W45701  12.047   5.695  13.329  0.0457 -0.0818 -0.1580
26168W        W45702   3.008  14.783   4.218  0.3255 -0.0313  0.0534
26169W        W45703   2.803  19.035   1.614 -0.2161 -0.1751 -0.1517
26170W        W45704   8.271  12.987   2.886 -0.1719  0.2665  0.1319
26171W        W45705  11.037  10.992   1.059  0.0024 -0.0577  0.1610
26172W        W45706  12.433  14.131  10.404  0.1920 -0.2597  0.1666
26173W        W45707  16.370  11.103  12.603 -0.0527  0.0334 -0.4758
26174W        W45708   3.716   3.138  14.277 -0.0226  0.2516 -0.2971
26175W        W45709   5.462   2.529  14.401 -0.4456  0.0554 -0.0165
26176W        W45710  16.314  11.995   1.388  0.2055 -0.0593  0.2301
26177W        W45711   4.037  17.333  13.212  0.0604  0.0316  0.1023
26178W        W45712   9.483  16.082   1.842  0.2009 -0.0641  0.2525
26179W        W45713   5.763   0.246   3.045 -0.0250  0.3078 -0.1834
26180W        W45714  17.365  15.027  13.943  0.0659  0.0370  0.0374
26181W        W45715   4.366   9.118   2.370 -0.0321  0.2784  0.2344
26182W        W45716   9.331  10.636   1.595  0.0331  0.0715 -0.0864
26183W        W45717   8.031   5.997   3.024 -0.3017 -0.2319 -0.0313
26184W        W45718   9.202   7.885   0.701 -0.1383  0.1278  0.1429
26185W        W45719  12.349   2.978   2.891 -0.1243  0.2116  0.1647
26186W        W45720   6.192  12.170  11.889  0.0046 -0.1833  0.1720
26187W        W45721   5.478   0.985   0.102 -0.2109  0.1246 -0.5471
26188W        W45722   1.126   8.386  13.343  0.0198 -0.0350  0.1491
26189W        W45723  17.329   4.132   4.969 -0.1794 -0.0417  0.2761
26190W        W45724  17.992   6.197   3.793  0.0930 -0.0375 -0.0478
26191W        W45725  10.991  11.458   0.824 -0.0015 -0.1542  0.0356
26192W        W45726   7.351  15.679  13.363  0.0379  0.0746  0.1281
26193W        W45727  18.714   3.987  12.183 -0.2321  0.0308  0.0914
26194W        W45728   3.295  14.145  11.959  0.0348 -0.0584 -0.0976
26195W        W45729  13.455  13.765   2.721 -0.2871 -0.3047 -0.0073
26196W        W45730   2.856  17.303   2.899  0.1011  0.2208 -0.2786
26197W        W45731   4.565  15.948  10.663 -0.3109  0.1580 -0.0558
26198W        W45732  17.407   3.389   0.892  0.1552 -0.0399  0.1584
26199W        W45733  13.339  16.242   0.569  0.1009 -0.0446 -0.0608
26200W        W45734  17.238  10.430  13.901 -0.0934 -0.1017 -0.0904
26201W        W45735  19.096   2.820  13.628 -0.1327 -0.5197  0.2740
26202W        W45736  14.533  18.339  13.524 -0.1674 -0.2617 -0.1997
26203W        W45737  17.446   4.966   4.412 -0.2994  0.3212  0.1526
26204W        W45738   1.768   4.060  14.402 -0.0428  0.0095 -0.1361
26205W        W45739  17.956  15.219   3.770 -0.1303  0.0680  0.1667
26206W        W45740  18.324   6.580  14.800 -0.4319  0.1672 -0.1491
26207W        W45741   1.991   5.127   2.029 -0.3202  0.0050 -0.2890
26208W        W45742   9.685   8.526  13.066 -0.3360 -0.0936 -0.1686
26209W        W45743  15.180   5.441  14.424  0.0284  0.1111  0.1080
26210W        W45744   0.518   3.485   4.545 -0.0793 -0.0006 -0.0807
26211W        W45745   6.884   9.178  12.233 -0.1774 -0.1063  0.0419
26212W        W45746  11.216  19.009   4.115 -0.0154  0.0870 -0.2960
26213W        W45747  15.215   4.613   1.699  0.0490 -0.0369 -0.1684
26214W        W45748   0.080  11.758  11.275 -0.0129  0.0710 -0.1751
26215W        W45749   3.821   0.298  13.215 -0.0815 -0.1891 -0.2408
26216W        W45750  18.456   5.988  12.507 -0.0276 -0.3232 -0.3815
26217W        W45751   9.459   1.840  12.622 -0.0992 -0.4400 -0.0505
26218W        W45752  17.455   6.793   1.519 -0.2359  0.1058 -0.0125
26219W        W45753   9.809   6.285   3.607  0.2502  0.2555  0.0071
26220W        W45754  15.701  16.798  11.498  0.1786 -0.0916 -0.1662
26221W        W45755   6.990   0.367   3.525 -0.0557 -0.2359 -0.1958
26222W        W45756   7.799  18.361  12.201  0.1270 -0.0383 -0.1399
26223W        W45757   2.003   1.479  13.979 -0.1994  0.0955 -0.2435
26224W        W45758  11.176   8.396  13.818  0.1132 -0.1372 -0.0469
26225W        W45759   2.711   2.652  13.235 -0.1902  0.0347  0.1088
26226W        W45760   7.790  18.970   0.651 -0.3129 -0.2232  0.1121
26227W        W45761  15.716  11.842  10.142  0.1080 -0.2380 -0.1909
26228W        W45762   2.620   0.450  13.433  0.1693 -0.2750  0.3391
26229W        W45763   1.685  16.885  11.106  0.2068  0.0659  0.0566
26230W        W45764  16.632   4.576  14.528 -0.1162 -0.0927 -0.0213
26231W        W45765   8.878  13.148   3.656 -0.0328  0.0642 -0.1205
26232W        W45766  10.610  16.350   1.461  0.1011  0.1887 -0.0039
26233W        W45767   9.636  17.399   0.238  0.3077 -0.1265 -0.0477
26234W        W45768  12.956   6.594   3.516 -0.3988 -0.0457 -0.2513
26235W        W45769   9.693  16.720  11.891 -0.0057  0.1293 -0.0205
26236W        W45770   7.763  17.201   3.876 -0.2073  0.2526  0.1772
26237W        W45771   6.950   5.340  12.761 -0.1503  0.0726  0.1448
26238W        W45772  17.053  14.355  10.773  0.3309 -0.2792 -0.3127
26239W        W45773   1.312   8.437  11.450 -0.0004 -0.3095 -0.0182
26240W        W45774  17.094  17.383   3.529  0.1514  0.0204  0.0190
26241W        W45775   9.639   6.784   2.452 -0.2709  0.2300  0.0267
26242W        W45776  17.041   2.248  12.986  0.1827  0.2930 -0.2382
26243W        W45777   5.275  14.164  12.694 -0.0603 -0.2390  0.3466
26244W        W45778  12.266  16.366  14.194  0.1561  0.1052  0.0530
26245W        W45779   1.236   6.254   3.178  0.0963  0.2415 -0.1847
26246W        W45780   3.285  17.466   2.017 -0.0531  0.2121 -0.1251
26247W        W45781   1.266  10.956  12.178  0.0959 -0.0924  0.1756
26248W        W45782   8.507   1.406   2.059  0.4362  0.3819  0.1926
26249W        W45783  16.779   3.181  10.326 -0.1384  0.1471  0.3015
26250W        W45784  16.402  10.975  12.066  0.0150 -0.0707  0.1861
26251W        W45785   9.233  15.592  11.772 -0.0370  0.0299  0.0269
26252W        W45786  17.361   7.759   1.478 -0.4528 -0.0048  0.1557
26253W        W45787  16.337   3.137  12.667 -0.0114  0.0010 -0.0212
26254W        W45788   7.880   1.055   0.544 -0.0068  0.1203  0.0092
26255W        W45789  15.983  10.087   2.423 -0.0938  0.1127 -0.0932
26256W        W45790  12.472   4.295   4.131 -0.1408  0.1521 -0.1863
26257W        W45791  18.547   9.532   1.930 -0.0201 -0.1179 -0.1713
26258W        W45792   0.575  10.609   1.222 -0.2620  0.3928 -0.1754
26259W        W45793  18.168  17.374  14.707 -0.3577  0.2379 -0.2696
26260W        W45794   2.305   2.532   2.410  0.0855  0.2603  0.0100
26261W        W45795   9.430  10.926  14.615  0.0157  0.1588 -0.0266
26262W        W45796  16.754  17.461   9.727 -0.4190  0.0552  0.0510
26263W        W45797   6.880  12.340   4.742 -0.1201  0.2874 -0.0337
26264W        W45798   1.394  13.959  12.398  0.1910 -0.2113  0.1035
26265W        W45799  17.718  19.077   0.568 -0.0360  0.0263 -0.2602
26266W        W45800  10.591   6.046  11.130  0.0574  0.0759 -0.0611
26267W        W45801   9.855   2.621   0.911 -0.2464 -0.1101 -0.2165
26268W        W45802   8.082   0.219   1.441 -0.0097  0.1723  0.1230
26269W        W45803  16.264  15.055  13.728 -0.0287 -0.0471 -0.2955
26270W        W45804  17.859   7.642   3.522  0.2130 -0.0678  0.2383
26271W        W45805  17.130  16.027  11.656  0.1109 -0.0791 -0.1634
26272W        W45806  17.661   0.517  14.134 -0.2000  0.1188  0.1637
26273W        W45807  17.258   8.843  14.647 -0.1095 -0.0399 -0.2063
26274W        W45808  16.459  12.125  10.701  0.2362  0.0929  0.3902
26275W        W45809   7.986   1.845  10.425 -0.0336 -0.3321  0.0926
26276W        W45810   0.671   3.406  13.649 -0.4189  0.0086  0.1050
26277W        W45811   8.027   7.815   1.309 -0.2197  0.1217 -0.2836
26278W        W45812   9.292   0.973  11.625  0.2115 -0.0942 -0.1254
26279W        W45813   6.447  18.552   1.599  0.1530  0.1948 -0.0056
26280W        W45814   0.858  15.415  11.921 -0.3656  0.2805 -0.3741
26281W        W45815   0.139   3.377   2.791  0.2785 -0.1320 -0.1095
26282W        W45816  13.786  18.950   2.070  0.1059 -0.2802 -0.0792
26283W        W45817   7.257  16.350   3.238  0.0656 -0.0745  0.2815
26284W        W45818  15.078   0.866  12.233  0.0643 -0.5504  0.0714
26285W        W45819  13.322   9.713  13.094 -0.0264 -0.2525 -0.0113
26286W        W45820   0.814   6.502  12.670  0.0929  0.2033 -0.2193
26287W        W45821  15.391  11.561   9.771  0.1847 -0.2722  0.1014
26288W        W45822   1.426  15.830  13.038 -0.0981 -0.0048 -0.1112
26289W        W45823   0.473  16.669  10.766 -0.0805 -0.1017 -0.2849
26290W        W45824  11.098  15.668   2.890 -0.0735  0.1156  0.1748
26291W        W45825  14.674   8.902  11.245 -0.0391 -0.1221  0.1000
26292W        W45826  14.038   4.372   0.758  0.2248  0.3357  0.1041
26293W        W45827  18.566  17.899   2.459  0.1191  0.2746 -0.2745
26294W        W45828   4.056   8.250   3.337  0.1228  0.5018  0.1596
26295W        W45829   6.962  10.354   4.363  0.0205 -0.1119  0.0704
26296W        W45830   1.551  16.818   3.235  0.3465 -0.1808 -0.0902
26297W        W45831   7.830  12.529   0.436 -0.1359  0.0891 -0.1141
26298W        W45832   9.398   3.383  12.026 -0.1057  0.0552 -0.2786
26299W        W45833  11.982   0.985   4.089  0.0417 -0.1617 -0.1601
26300W        W45834   9.534  12.201  13.841 -0.0255 -0.1727  0.3354
26301W        W45835   0.361   3.998  11.497  0.0501 -0.1923 -0.3803
26302W        W45836   4.502   5.103  13.191 -0.1568  0.0591  0.0922
26303W        W45837   1.230   7.921  11.346  0.1410 -0.0987  0.0294
26304W        W45838   4.664   4.308  12.646 -0.0673 -0.0150  0.4367
26305W        W45839   5.905  16.118   3.721 -0.1322  0.2111  0.0484
26306W        W45840   0.257   4.979   3.734 -0.2357 -0.3156 -0.1447
26307W        W45841   0.575  11.818   0.584  0.0096  0.1269 -0.1133
26308W        W45842   4.895  17.534   2.793 -0.1889  0.1849 -0.1731
26309W        W45843   2.883  18.524  14.490 -0.1240 -0.0288  0.2034
26310W        W45844   4.715   2.869   0.171  0.0742  0.2171  0.0879
26311W        W45845  13.363  12.428   3.785  0.1201 -0.1972 -0.0427
26312W        W45846  12.156   9.160   2.924  0.2728 -0.0225  0.2170
26313W        W45847   1.491   1.731  10.306  0.3516 -0.0158 -0.0135
26314W        W45848   2.067  16.909  11.412  0.1419 -0.2099  0.1659
26315W        W45849   9.790   0.914  11.687 -0.0031 -0.0807 -0.1863
26316W        W45850   4.590   5.186  12.685 -0.3305  0.2547 -0.0566
26317W        W45851  10.324   2.958  13.542 -0.0168 -0.0985 -0.1016
26318W        W45852  18.541  14.931   3.177 -0.0617 -0.0956 -0.0745
26319W        W45853  17.457   9.722   9.839 -0.2906  0.4007 -0.4029
26320W        W45854  11.738   2.331   0.960 -0.0719  0.2183 -0.1469
26321W        W45855  10.481   5.326  12.716  0.1666  0.1564  0.1009
26322W        W45856   2.507  11.702   3.670 -0.0913 -0.1485  0.1937
26323W        W45857   6.252  15.282  11.314  0.1797  0.0830 -0.0925
26324W        W45858   5.310   1.428  10.095 -0.0133  0.1406 -0.2027
26325W        W45859   8.409   9.835   2.340 -0.1170 -0.2425  0.1969
26326W        W45860  14.326   6.724   0.105  0.0129 -0.0897  0.2257
26327W        W45861   6.242  10.915  11.690  0.2965 -0.3445 -0.4820
26328W        W45862   3.330   3.917   2.451 -0.2299  0.3199  0.0488
26329W        W45863   5.449  14.801  13.014 -0.1164  0.2826 -0.0479
26330W        W45864  15.672  12.652  12.800  0.2681 -0.2602 -0.2084
26331W        W45865   3.218  15.640   1.333  0.1668 -0.1832 -0.1462
26332W        W45866   1.103  18.501   0.601 -0.4176  0.0251 -0.0900
26333W        W45867   2.869   9.341  13.186  0.1049 -0.1251  0.1160
26334W        W45868   2.984  18.545   0.990 -0.3985  0.0744 -0.1534
26335W        W45869  14.752  12.857  12.172 -0.0558  0.2571 -0.0763
26336W        W45870  10.700   4.679   2.010  0.0979  0.0427  0.0311
26337W        W45871  18.543  13.235   0.817 -0.1592 -0.0981  0.0988
26338W        W45872  10.979  17.923  11.592  0.0382 -0.1961  0.0671
26339W        W45873   6.360   4.831   2.501 -0.0487  0.1477 -0.2543
26340W        W45874  17.835   3.595  12.284  0.3578  0.0248  0.1329
26341W        W45875   1.864  13.636   1.994  0.0384  0.1078 -0.1006
26342W        W45876  15.114   9.739  13.399 -0.0798 -0.4508 -0.2170
26343W        W45877   9.307  10.870  10.671  0.1238 -0.0352  0.2794
26344W        W45878   6.761  17.105   4.185  0.0355  0.1305 -0.2417
26345W        W45879   1.378  17.967   0.730  0.1539  0.1607 -0.1011
26346W        W45880   8.625   1.563  13.536 -0.3302 -0.1835  0.0926
26347W        W45881  15.978  17.216  14.052  0.0920  0.1950  0.1497
26348W        W45882   1.697   8.816   0.802 -0.1553 -0.3671  0.1370
26349W        W45883  11.891   6.554  13.148 -0.0202 -0.0980 -0.0040
26350W        W45884   3.729  17.804  13.998 -0.2294 -0.3683  0.0116
26351W        W45885   8.698  14.278   2.967 -0.1264  0.1555 -0.0697
26352W        W45886   9.223   0.328  13.744  0.2636  0.0111  0.3517
26353W        W45887  14.376  10.924   3.676 -0.0405 -0.1667  0.0979
26354W        W45888   6.012  14.490   4.774 -0.0954 -0.0677 -0.0260
26355W        W45889   6.114   0.214   3.461  0.0324 -0.0704  0.2264
26356W        W45890  13.423   9.835  14.675 -0.2896 -0.2967  0.0776
26357W        W45891  17.456   6.952  12.741  0.2101  0.1459 -0.0843
26358W        W45892   8.510   0.398  10.649  0.0406 -0.1886 -0.3464
26359W        W45893   4.725  15.469  14.005 -0.1817  0.2190 -0.0101
26360W        W45894  18.128  11.457  12.119 -0.2326 -0.3943 -0.2225
26361W        W45895  15.482   8.158  11.679  0.1087 -0.0680 -0.2966
26362W        W45896  18.610  11.133   2.558  0.0739 -0.2645  0.2881
26363W        W45897  17.044   1.698  14.654  0.2399 -0.1305  0.0407
26364W        W45898   2.150   7.775  14.263  0.1736  0.2457 -0.0265
26365W        W45899   2.876  13.530   3.773  0.3663 -0.3164  0.1301
26366W        W45900  12.746  12.259  13.891  0.0700  0.1701  0.0713
26367W        W45901  10.076  18.745   2.760  0.0523 -0.0679  0.0596
26368W        W45902   5.154  18.467  12.848 -0.2755 -0.1028 -0.2047
26369W        W45903   5.799  13.542   1.796  0.0927 -0.0453 -0.2274
26370W        W45904   5.865  16.374  11.536  0.0711  0.0663 -0.1415
26371W        W45905  14.503   1.590  10.303 -0.0426  0.0360 -0.4021
26372W        W45906  11.679  13.148  12.278 -0.0078  0.0687  0.3064
26373W        W45907   6.700   1.813   2.690  0.1921 -0.1574 -0.3683
26374W        W45908  14.630  10.066  14.520 -0.0494  0.0312 -0.1566
26375W        W45909   1.059   5.712   1.598  0.2754 -0.0874  0.0429
26376W        W45910   2.082  16.682   9.848  0.2840 -0.0090 -0.0758
26377W        W45911   2.361   7.921   2.398 -0.0806  0.1601 -0.1335
26378W        W45912  16.721  15.201  13.452 -0.0321  0.0288  0.2284
26379W        W45913   5.057   9.920   0.075 -0.3372 -0.0624 -0.3185
26380W        W45914  10.162   4.927  11.366  0.1260  0.2904  0.1435
26381W        W45915  16.656   6.832   3.403 -0.1951 -0.1126 -0.0196
26382W        W45916   9.991   5.463  11.086 -0.2408 -0.1043  0.2840
26383W        W45917  15.718  17.322  14.835  0.1395  0.0751  0.0851
26384W        W45918   8.453  16.603  12.908 -0.1632  0.0271 -0.0145
26385W        W45919   8.409  18.481  13.213 -0.1442 -0.0450  0.0628
26386W        W45920  16.047  17.625   0.849  0.0627 -0.0501  0.4291
26387W        W45921   2.042   5.015  10.540 -0.0505 -0.0652  0.3310
26388W        W45922   7.142   4.971  13.692  0.2893 -0.0442 -0.1289
26389W        W45923   5.482  17.285   9.737 -0.2143 -0.3321  0.2141
26390W        W45924   3.876  12.003   1.946  0.2901  0.1850  0.2227
26391W        W45925  18.967   0.720  14.163 -0.2320  0.3097 -0.0642
26392W        W45926  17.752  10.807   3.473  0.1176  0.0978  0.1740
26393W        W45927  10.861  14.543   4.679  0.2704 -0.0879 -0.4040
26394W        W45928   2.154   7.964   1.933 -0.1789  0.1240  0.1403
26395W        W45929   8.354  15.919  13.233 -0.0536  0.0626  0.1872
26396W        W45930   1.277  15.826   3.202  0.2448  0.2073  0.0189
26397W        W45931   4.484   3.259   3.369  0.0283 -0.0816 -0.0541
26398W        W45932   8.293  17.033   0.405  0.0846  0.5029  0.1715
26399W        W45933  12.787   2.927   0.015 -0.1689 -0.1055 -0.0100
26400W        W45934   8.719   6.571   1.391 -0.0482  0.1868  0.0131
26401W        W45935   8.570  14.823   1.743  0.1676  0.1082 -0.0728
26402W        W45936  13.067   6.110  11.745  0.2152 -0.1940 -0.0644
26403W        W45937   9.308  12.099  12.078 -0.1982  0.1756  0.1461
26404W        W45938  18.412   8.108   9.754 -0.1958 -0.0010 -0.2036
26405W        W45939  14.880   2.168   0.165  0.1758  0.1831  0.0301
26406W        W45940  13.473  17.109   4.698  0.2303 -0.1267  0.0675
26407W        W45941  16.118   7.792   0.085 -0.0351 -0.3052 -0.0711
26408W        W45942   2.340   2.815  14.040  0.5020 -0.1908 -0.0034
26409W        W45943  11.213  17.396   1.052  0.1002 -0.1960  0.2170
26410W        W45944   8.682   6.010  13.887  0.1325  0.0561 -0.0389
26411W        W45945  14.604   6.300  14.837 -0.0221  0.0834 -0.0051
26412W        W45946  17.464   0.526   0.734  0.2629 -0.1438 -0.1772
26413W        W45947  16.747   0.222   2.835  0.1360 -0.1866  0.0212
26414W        W45948  15.927   3.968   0.037  0.0335 -0.3171 -0.0654
26415W        W45949   7.885   0.009  12.962  0.3612 -0.0848 -0.1607
26416W        W45950  11.631   8.129   2.777 -0.2283  0.1644  0.1806
26417W        W45951   2.201  18.413   1.862  0.0128  0.2740  0.2007
26418W        W45952  16.028  12.900  13.028 -0.2446 -0.3705 -0.1215
26419W        W45953  18.586   3.996   0.800  0.0059 -0.3516  0.1768
26420W        W45954   7.533   6.890   2.842  0.0392 -0.1008 -0.0603
26421W        W45955   3.529   6.957   0.343  0.1453  0.1874 -0.1568
26422W        W45956   7.228  19.105   0.840 -0.2482  0.1935 -0.0918
26423W        W45957  15.549  16.174   1.138  0.0532 -0.0713 -0.2281
26424W        W45958  16.687   5.871   2.531 -0.0684  0.0570  0.2225
26425W        W45959   3.791  18.752  13.164  0.1171 -0.2725  0.0856
26426W        W45960  15.040  12.561  12.467 -0.0347  0.0823  0.0620
26427W        W45961  12.006  14.289   1.106 -0.0906 -0.3105  0.1271
26428W        W45962   8.946  18.102  14.358 -0.0351 -0.0508 -0.0435
26429W        W45963   8.297  16.724   3.305 -0.1081 -0.0959  0.4000
26430W        W45964   7.667   0.395   1.198  0.4054 -0.0585 -0.1581
26431W        W45965  16.045   6.536  14.142  0.1196  0.2036 -0.0543
26432W        W45966   3.133   8.025   3.729 -0.0038  0.0540 -0.0793
26433W        W45967   9.589   9.216  12.922  0.0823  0.0068 -0.1226
26434W        W45968  13.860   2.827   3.000  0.3695 -0.3251  0.4273
26435W        W45969   2.314  18.461   2.329 -0.0838  0.1331  0.1480
26436W        W45970   0.083  17.058  12.359 -0.0600  0.0254  0.2699
26437W        W45971   1.002  17.449  12.987 -0.1115 -0.2316 -0.2930
26438W        W45972   4.837   0.897  14.358  0.0332  0.1689 -0.0744
26439W        W45973  18.744  17.336   1.767 -0.0785  0.3645  0.0889
26440W        W45974  11.042   2.915  11.633 -0.4866  0.0040 -0.0281
26441W        W45975   4.859   1.170  13.474 -0.0045 -0.3669 -0.2390
26442W        W45976  12.498   8.710   1.894 -0.0130  0.0561 -0.0705
26443W        W45977  10.592   4.724  13.540 -0.1310 -0.1433 -0.1862
26444W        W45978   7.740  10.256   2.876  0.1650 -0.4142  0.3097
26445W        W45979   9.988  10.085   0.240  0.1964  0.0741  0.1969
26446W        W45980   8.377  18.874  12.813 -0.0311  0.2199 -0.1053
26447W        W45981  16.832  18.112  12.690  0.2172  0.1202  0.0522
26448W        W45982   4.324  14.576   1.761  0.0298  0.0189 -0.2274
26449W        W45983   3.504  10.101  11.230  0.0256  0.2185 -0.1348
26450W        W45984   8.653  14.466   1.138 -0.0849 -0.0984 -0.1597
26451W        W45985   5.377   8.000   2.949  0.4044 -0.2321 -0.1662
26452W        W45986  12.380   7.511   3.070  0.2461 -0.0283 -0.1718
26453W        W45987  12.395  13.364   4.356 -0.1677  0.1214 -0.0038
26454W        W45988   0.199   2.986  10.659 -0.0376 -0.2812 -0.2457
26455W        W45989  17.829  15.632   2.072  0.0372  0.1410  0.0548
26456W        W45990  18.934   1.346   0.533  0.1011 -0.3943  0.0533
26457W        W45991  14.388  15.207   1.192  0.0205  0.4428  0.1447
26458W        W45992  10.020   2.932   2.346  0.0647  0.2631 -0.1651
26459W        W45993   3.963   3.213   2.641  0.2618  0.2384 -0.1500
26460W        W45994  12.515  16.371  13.098  0.2111 -0.0080  0.1785
26461W        W45995   3.671   7.146  13.783  0.3028  0.2148  0.1346
26462W        W45996   8.161  14.303   1.167  0.2446  0.2283 -0.0018
26463W        W45997   4.846  11.226  11.352  0.0948  0.0939 -0.2534
26464W        W45998  10.884  10.567  12.238 -0.2482 -0.3027 -0.0583
26465W        W45999   5.826  16.660   2.362  0.1752  0.0060 -0.1171
26466W        W46000   0.556  16.987  14.183  0.0797  0.2902 -0.3184
26467W        W46001  10.901  13.067   4.479  0.0957  0.1123  0.0190
26468W        W46002   8.183   3.171   0.168  0.1000  0.1787 -0.0222
26469W        W46003   3.388   4.502   1.876  0.0400 -0.1386 -0.0036
26470W        W46004  13.327  18.696  13.804  0.3021  0.3185 -0.0306
26471W        W46005  16.801   3.389  11.236 -0.1510 -0.3721 -0.2024
26472W        W46006  18.064   5.457   2.777  0.2068 -0.2751 -0.0835
26473W        W46007   0.783  13.598  12.718  0.2420 -0.0551  0.3777
26474W        W46008  15.622   2.935  11.892 -0.0097  0.0083  0.0038
26475W        W46009   5.883   8.614  11.999 -0.2687  0.0233 -0.3447
26476W        W46010   2.629   6.620  12.848  0.1826 -0.2196  0.2605
26477W        W46011  17.094  12.268   1.936 -0.0414  0.1393 -0.1339
26478W        W46012   1.914   3.600   2.524 -0.0537  0.0758  0.0899
26479W        W46013   6.872   4.673   2.359  0.2613 -0.2944  0.1893
26480W        W46014  13.007   8.056   0.130  0.1250  0.1944  0.0300
26481W        W46015   8.538   2.256  14.802 -0.2678  0.2712  0.2064
26482W        W46016   3.100  17.745  13.382 -0.0294  0.1499  0.1352
26483W        W46017   8.675  16.987  12.525 -0.1752  0.2728  0.1072
26484W        W46018   2.018   3.662   0.334  0.0516  0.3934  0.0973
26485W        W46019   7.523   7.751  10.909 -0.1151  0.0048 -0.1129
26486W        W46020   0.252  18.990   9.783 -0.1309  0.0243  0.3602
26487W        W46021  10.041   3.299  13.761  0.0664 -0.0312 -0.0322
26488W        W46022   7.856  13.285   1.545 -0.0792  0.0814  0.0356
26489W        W46023   5.351   3.280  13.995 -0.1297  0.3086  0.2850
26490W        W46024  12.785   7.709   2.875 -0.1388  0.1696  0.0159
26491W        W46025  14.654  17.706   9.918 -0.0466  0.1357  0.0689
26492W        W46026   0.138   1.287  13.505  0.0758 -0.0718  0.3990
26493W        W46027   8.131   4.834  14.311 -0.1954  0.0510  0.3241
26494W        W46028   9.792   8.653  12.531  0.1458 -0.0007  0.1344
26495W        W46029   0.330   5.637  14.543  0.1208  0.0391  0.1159
26496W        W46030   5.487   2.307   1.433 -0.1186  0.1374 -0.0081
26497W        W46031   8.593   5.067  10.016  0.0991  0.1275 -0.1737
26498W        W46032   9.305   6.797   2.091 -0.0341 -0.0504  0.4024
26499W        W46033   0.749   2.683  13.045  0.2287 -0.0669  0.0899
26500W        W46034   6.846  12.863   4.531 -0.4413  0.1037  0.2064
26501W        W46035  10.203   7.345   5.110 -0.1161  0.0105 -0.1829
26502W        W46036   8.037   2.973   4.394 -0.1237  0.3135 -0.0960
26503W        W46037   5.201   2.200   2.033 -0.3982  0.0948  0.1157
26504W        W46038   0.072  13.119   2.406  0.0790  0.0780  0.0638
26505W        W46039  17.694  12.722   4.725  0.1267  0.1773  0.3602
26506W        W46040  16.893  13.342   2.249  0.1154  0.3508  0.0981
26507W        W46041   8.567  10.658   1.779 -0.1236  0.0796 -0.0625
26508W        W46042  16.202   3.922  11.611  0.1762 -0.0433  0.1038
26509W        W46043  17.891  10.257   0.649  0.5095 -0.0580 -0.3100
26510W        W46044   4.009  18.255   3.384 -0.2102 -0.1878 -0.0694
26511W        W46045  14.048   5.418   5.394 -0.0938  0.0669 -0.2666
26512W        W46046  14.646  13.712   3.260  0.2555  0.0718 -0.1507
26513W        W46047  10.783  15.681  11.995  0.1910  0.1053  0.0761
26514W        W46048   9.140  13.190   1.076 -0.0886 -0.2156 -0.0610
26515W        W46049  17.388  12.207  13.980 -0.0076  0.1023 -0.3939
26516W        W46050   6.755   2.907  12.391  0.0542  0.0726 -0.0246
26517W        W46051  11.571   8.988  13.217  0.0911 -0.2440  0.2211
26518W        W46052  13.121   6.714  14.559  0.0632  0.0347 -0.2394
26519W        W46053  16.951  16.925   2.892 -0.0703  0.1340  0.0838
26520W        W46054  10.788  18.022   2.585  0.1509  0.1921 -0.1025
26521W        W46055  14.585  15.926   2.058  0.1914 -0.2089  0.0945
26522W        W46056  18.879   5.933  13.778 -0.2049 -0.0559 -0.1071
26523W        W46057  10.428   2.523   3.139 -0.0818 -0.2458 -0.2637
26524W        W46058   3.484   9.318   3.082  0.1364 -0.1104  0.0307
26525W        W46059  17.469   6.839  11.608  0.2139  0.1646  0.2883
26526W        W46060  16.571  10.378   1.060 -0.1778 -0.1192  0.0632
26527W        W46061   2.083   9.173  14.301 -0.1249  0.1735  0.0805
26528W        W46062  15.070  12.904   3.791 -0.0396 -0.3412 -0.3561
26529W        W46063  12.553   8.776   3.567 -0.2280  0.0214  0.2502
26530W        W46064  16.111  14.983   2.887 -0.1308 -0.1781 -0.4859
26531W        W46065  17.898   4.576   0.437 -0.1125 -0.0190 -0.0158
26532W        W46066   4.178  18.784  11.283  0.0856  0.0442  0.3072
26533W        W46067   0.472   3.242   3.229 -0.1358 -0.2560  0.2828
26534W        W46068   3.457  12.149   2.375  0.0142 -0.2932 -0.0138
26535W        W46069   3.972  12.371   3.968  0.2184 -0.4259  0.2519
26536W        W46070  17.657   3.125  10.413  0.0833  0.0623  0.0266
26537W        W46071   8.564   6.126   3.451  0.2040 -0.0885 -0.3301
26538W        W46072   1.723   2.424  10.902 -0.0504 -0.1793  0.0545
26539W        W46073  14.582   2.386  12.770 -0.0312  0.0299 -0.1987
26540W        W46074   7.743  14.900   2.106 -0.0844  0.2020  0.0279
26541W        W46075  14.694   2.669   0.246 -0.0655  0.1043  0.1488
26542W        W46076   1.139  17.805   1.751  0.1090 -0.1025 -0.0963
26543W        W46077   9.263   9.674   0.518 -0.3013 -0.0284  0.0452
26544W        W46078   0.109  17.187  14.443  0.0714 -0.0449 -0.2747
26545W        W46079  18.824   7.853  13.672  0.0287  0.0404  0.2769
26546W        W46080  12.359   0.822   0.860 -0.0998 -0.2096 -0.1242
26547W        W46081   6.537   4.480  11.597 -0.0923  0.1887  0.1726
26548W        W46082   8.370   0.025  13.877 -0.0164 -0.0024  0.1727
26549W        W46083   0.538   4.538   2.030  0.3971  0.0034  0.0328
26550W        W46084   0.874   1.749   0.225  0.0877  0.1530 -0.2292
26551W        W46085   0.988  17.532   2.167 -0.1127  0.5339 -0.0208
26552W        W46086   9.054   0.265  12.214 -0.1910 -0.1841  0.4370
26553W        W46087   7.552  11.633   1.472 -0.1665  0.1857 -0.1109
26554W        W46088   2.187   7.015   3.993  0.2573  0.2216  0.0492
26555W        W46089   3.022   4.636  14.143 -0.2784  0.4099 -0.1429
26556W        W46090   7.394  16.425   4.146  0.0917 -0.2006  0.3526
26557W        W46091   2.069   3.595  14.670  0.2064 -0.0501  0.1079
26558W        W46092  16.510  16.508   0.435 -0.0056  0.0893  0.3168
26559W        W46093   7.365   0.130   3.775  0.0607  0.4381 -0.0792
26560W        W46094   5.579   0.078   2.179  0.1014  0.1003  0.0912
26561W        W46095   7.732  10.723   2.353 -0.1354  0.1199 -0.2639
26562W        W46096   9.598   5.917   0.071 -0.0726  0.2113 -0.3958
26563W        W46097   3.737  13.452   2.389  0.0320  0.3263  0.0868
26564W        W46098   6.157   7.562  10.536 -0.0731  0.0006 -0.3352
26565W        W46099  12.705   0.634   3.301  0.3181  0.0063  0.2073
26566W        W46100  12.170   0.066   3.511 -0.2474  0.0108 -0.1307
26567W        W46101   9.943   1.917  13.433 -0.4154 -0.4064  0.0700
26568W        W46102   3.994   5.686  10.930  0.0501  0.1463  0.1599
26569W        W46103  14.543  16.712  10.809 -0.0703  0.1365 -0.0922
26570W        W46104  14.752   3.423   0.947  0.0799  0.0894 -0.2050
26571W        W46105  10.015   6.575   4.078  0.1729 -0.0811  0.1015
26572W        W46106   1.659  14.462  10.216 -0.1781  0.0750  0.0795
26573W        W46107  15.400   0.587  14.467  0.3686 -0.0268 -0.1355
26574W        W46108  16.224   6.895   3.656 -0.0963 -0.1151 -0.1057
26575W        W46109   4.986   6.227   3.435 -0.2624 -0.3883  0.1288
26576W        W46110   2.874  17.250   1.208  0.2512  0.1742 -0.0113
26577W        W46111   7.360   5.100   1.667  0.1310 -0.2461  0.2306
26578W        W46112   7.236   0.580   2.993 -0.4477 -0.3404  0.0712
26579W        W46113   0.727   4.846  12.441  0.0244 -0.0759  0.0180
26580W        W46114   5.657   6.693  11.207  0.2582 -0.2319  0.2237
26581W        W46115  16.589   5.786  11.462 -0.2675  0.0348 -0.0849
26582W        W46116  15.640  12.948  14.677 -0.1085  0.1767  0.1881
26583W        W46117  18.171   4.961  11.431 -0.0975 -0.0020 -0.0793
26584W        W46118  16.218  18.426   1.461  0.0501 -0.1784  0.0392
26585W        W46119  11.338   3.966   5.323 -0.1082  0.0525 -0.0276
26586W        W46120   2.682   0.283   3.476 -0.1036  0.1746 -0.1412
26587W        W46121  16.412  14.585   1.263  0.0260  0.3275  0.0221
26588W        W46122   8.021  13.338  12.623  0.0418 -0.2314  0.2031
26589W        W46123  10.544   2.947  11.759  0.0148 -0.0476 -0.0606
26590W        W46124   7.005   7.025   1.685 -0.2526 -0.2070  0.1050
26591W        W46125   8.815  14.927  13.453 -0.2064  0.0662 -0.1111
26592W        W46126  18.905   5.692  12.846  0.0739  0.2619  0.0124
26593W        W46127  14.689   5.211   3.170  0.2896  0.0660 -0.1936
26594W        W46128   2.738   0.500  12.582 -0.1974  0.1735 -0.0967
26595W        W46129  10.303   1.610   0.154 -0.2051  0.2622  0.0054
26596W        W46130   5.870  18.796   0.887  0.0801  0.2929 -0.0435
26597W        W46131   3.985   0.374   0.167 -0.1281  0.1823 -0.0902
26598W        W46132  10.860  14.290   1.244 -0.2560 -0.0779  0.0229
26599W        W46133   1.543   4.315  12.140  0.0931 -0.0343  0.0868
26600W        W46134  18.865  17.940   2.911 -0.1794  0.1796 -0.0827
26601W        W46135   5.687  18.739   4.792  0.1105  0.0304 -0.2201
26602W        W46136  17.226   0.904  14.061 -0.0843  0.1079 -0.1235
26603W        W46137   7.504   8.743   0.060  0.0223 -0.0448 -0.5179
26604W        W46138   4.276  18.588  13.375  0.1681  0.0871 -0.4440
26605W        W46139  15.672  16.329   5.063 -0.3436 -0.1156  0.2429
26606W        W46140  18.810   1.794   0.824  0.2286 -0.1521 -0.0913
26607W        W46141   1.429   9.458   0.941  0.0455 -0.1048 -0.0980
26608W        W46142   7.045   9.713  10.223  0.2507 -0.0639 -0.0549
26609W        W46143  10.725   1.957  10.825 -0.0500  0.3563 -0.0669
26610W        W46144   2.986  12.813  13.094  0.0720  0.0175  0.2621
26611W        W46145  12.795  17.798   1.100  0.1515  0.1266 -0.1070
26612W        W46146  12.135   1.707   0.298 -0.1518  0.1448 -0.1702
26613W        W46147   6.206   3.571   2.089  0.4523 -0.0598  0.1540
26614W        W46148  14.288  17.969   0.579  0.0555  0.1980  0.0666
26615W        W46149  10.660  16.734  11.101  0.1538  0.2400 -0.0716
26616W        W46150   5.142   0.919  11.088 -0.0933  0.3233 -0.1990
26617W        W46151   8.829   7.104   2.184 -0.3091 -0.2646  0.1712
26618W        W46152  11.278  11.787  10.882 -0.0831  0.1530  0.1012
26619W        W46153  14.610   0.910   1.410 -0.2659  0.1622  0.0145
26620W        W46154   4.674  10.378   4.249 -0.1610  0.0423 -0.1571
26621W        W46155   2.080   7.279  10.789 -0.0748 -0.1569  0.0450
26622W        W46156   1.794  12.915   2.578 -0.1662  0.4226 -0.1235
26623W        W46157   7.655   6.932  14.774  0.0364  0.1535 -0.0307
26624W        W46158   0.789  12.677   1.894 -0.1217 -0.0060 -0.0664
26625W        W46159   8.577   2.473  13.167  0.2333  0.2751  0.0347
26626W        W46160  14.593   7.854   1.819 -0.4492  0.0162  0.0273
26627W        W46161  17.806  14.392  11.544  0.0882 -0.1287 -0.1965
26628W        W46162   5.811   4.821   0.551 -0.2014 -0.0641 -0.0080
26629W        W46163   4.951  12.796   4.626 -0.1150  0.1447 -0.5599
26630W        W46164   5.072  17.652   4.244  0.2825 -0.0803 -0.0186
26631W        W46165   2.905  12.821   3.492 -0.2934  0.1978 -0.2646
26632W        W46166   5.902   1.912   1.135 -0.4464 -0.0271 -0.0377
26633W        W46167   3.009   8.332  12.060  0.2784  0.0898  0.0879
26634W        W46168   6.853  18.826   1.017  0.0177 -0.0769  0.4534
26635W        W46169  12.905   1.625   1.308  0.0860 -0.1753  0.3225
26636W        W46170  13.936  15.848   5.030  0.1638  0.0762  0.1445
26637W        W46171   1.303  13.651  13.216  0.2151  0.0175  0.0747
26638W        W46172   7.038  16.647   1.897  0.2852  0.0399  0.0526
26639W        W46173  15.841  13.554   3.378 -0.0038  0.0254 -0.2719
26640W        W46174  11.637   5.470   3.686  0.2849  0.0599 -0.0647
26641W        W46175  11.503  12.684   0.322  0.4156 -0.0469 -0.0880
26642W        W46176  12.417  17.688  11.130 -0.1124 -0.0667 -0.1531
26643W        W46177  15.579   5.948   3.632 -0.0129 -0.0396  0.0070
26644W        W46178  11.389   5.576  13.953  0.0366 -0.2083 -0.0624
26645W        W46179   0.936  18.523  10.994  0.4407 -0.1434  0.1422
26646W        W46180   9.932   4.976  13.763 -0.0423 -0.3722  0.0294
26647W        W46181   0.568   9.014   0.173  0.2374 -0.0603  0.0189
26648W        W46182  16.353   8.397  11.465 -0.0030  0.0071  0.0545
26649W        W46183   5.826  17.682  12.216 -0.3270  0.2577  0.0263
26650W        W46184   2.535  16.977   2.287  0.0054 -0.2457 -0.2763
26651W        W46185   3.549   8.066  14.121 -0.3522  0.0925  0.1510
26652W        W46186  10.344   5.759   4.187 -0.0437 -0.1524  0.0910
26653W        W46187  13.574   9.401  14.793  0.0425  0.2555 -0.1664
26654W        W46188   8.209   1.652  12.553 -0.0104 -0.0997 -0.0405
26655W        W46189   9.348   4.222  12.738 -0.0688 -0.3808  0.0216
26656W        W46190  13.611  15.775   4.656  0.1222  0.0384  0.0310
26657W        W46191   6.498   0.016   1.190 -0.0717 -0.0121 -0.0959
26658W        W46192  12.297   9.029   1.459  0.0343  0.2983  0.1300
26659W        W46193   9.386   1.741   2.856  0.0205 -0.0054 -0.3287
26660W        W46194  11.297   9.569  11.470 -0.4296 -0.1271 -0.1681
26661W        W46195  13.771   0.245   1.762  0.4410 -0.0491 -0.1068
26662W        W46196  18.268   2.895   9.808  0.0392  0.0144  0.0919
26663W        W46197   7.317  18.968  13.557  0.1144 -0.1616  0.2472
26664W        W46198   4.026   9.194   2.815  0.1144 -0.0906  0.0327
26665W        W46199  13.349   6.435   1.280 -0.3138 -0.2715 -0.0505
26666W        W46200  14.994   1.384  12.378  0.0257  0.1538  0.0737
26667W        W46201   5.778  18.642  12.201 -0.1847 -0.0156  0.2305
26668W        W46202   9.103   5.543  12.343  0.1073 -0.2023 -0.1235
26669W        W46203   4.937  10.341  10.688 -0.0919 -0.1175  0.3413
26670W        W46204  13.511   4.669  13.415  0.1956  0.7616 -0.0470
26671W        W46205  13.521   2.193   0.468 -0.1854  0.1765 -0.0616
26672W        W46206   9.829  17.845   0.615 -0.1106 -0.1766  0.1850
26673W        W46207   2.316   5.161  14.296  0.1271  0.3552  0.0478
26674W        W46208  18.066  17.635   0.716 -0.0760  0.2094 -0.1378
26675W        W46209  17.197   0.740  13.204  0.3544  0.2344 -0.2924
26676W        W46210   2.211  14.049   2.698 -0.1477 -0.0473  0.0767
26677W        W46211   3.023  12.616  12.511 -0.0827  0.1769 -0.1926
26678W        W46212   2.034   8.273  13.198 -0.2681  0.0682 -0.0322
26679W        W46213  14.432   8.241  14.542 -0.2201 -0.3619 -0.1323
26680W        W46214   1.940  17.088   0.137  0.0107  0.3938  0.1420
26681W        W46215  12.227  15.815  10.782  0.0112 -0.0470  0.1019
26682W        W46216   4.780   9.321   1.536  0.0684  0.2006  0.0333
26683W        W46217   1.068  18.478  13.267 -0.0522  0.1886  0.5334
26684W        W46218   7.255  14.010  14.396 -0.0807  0.0888 -0.0814
26685W        W46219   8.608  18.857  14.188  0.3537 -0.0098 -0.0908
26686W        W46220   5.894   7.886   2.773  0.0226  0.0468 -0.0256
26687W        W46221  18.245  13.238  11.769 -0.5138  0.0868 -0.0264
26688W        W46222  10.787   6.953   1.404  0.1603 -0.1182 -0.0761
26689W        W46223   1.996   2.165  12.619  0.0285 -0.1989 -0.2687
26690W        W46224   4.791   4.020  11.679  0.2276 -0.0151  0.1508
26691W        W46225  14.647   7.510   4.318  0.2929  0.0244 -0.2212
26692W        W46226   3.841   9.744  11.194  0.3835 -0.1081 -0.1160
26693W        W46227   1.995   8.548  14.740  0.1654 -0.2048  0.2498
26694W        W46228   1.721  10.189  12.282 -0.1413  0.2025 -0.2078
26695W        W46229  12.542   9.850   1.992 -0.0699 -0.0282 -0.0471
26696W        W46230   7.177   3.694  11.525  0.0724  0.4355 -0.1774
26697W        W46231   9.019   0.671   3.707  0.1404 -0.1321  0.0679
26698W        W46232   7.925   6.462  12.971  0.3188 -0.0014  0.1582
26699W        W46233   4.311   1.666   3.461  0.0090  0.4056 -0.2580
26700W        W46234  18.139   5.988   1.048 -0.2601  0.0590 -0.0391
26701W        W46235   8.146  10.917  11.729 -0.1288  0.1749 -0.1181
26702W        W46236  14.825   4.250  13.806 -0.0760  0.2352 -0.0842
26703W        W46237  12.834  18.473  11.580 -0.0725 -0.1630  0.0809
26704W        W46238   0.587  17.144   5.301 -0.0235 -0.1840  0.0076
26705W        W46239  14.874   0.709   0.294 -0.0973  0.0625  0.2195
26706W        W46240  17.560  17.659   1.113 -0.2632  0.2902 -0.0716
26707W        W46241  10.914   7.680  11.492 -0.1512 -0.0185  0.3306
26708W        W46242  13.527  11.478   1.335 -0.2233 -0.2535  0.1397
26709W        W46243  13.223   0.514  12.990  0.1367 -0.5100  0.1532
26710W        W46244  14.267  10.013   1.533 -0.0823  0.0646 -0.2328
26711W        W46245   2.735  18.680  11.000 -0.0004  0.2368 -0.0165
26712W        W46246  11.497  17.293   0.670 -0.0866  0.1924 -0.3749
26713W        W46247   7.835   1.422  13.908  0.1574  0.3608  0.1496
26714W        W46248   2.517   2.205  13.603  0.1895  0.0612  0.1632
26715W        W46249   2.599   6.218  10.972 -0.3711  0.0002 -0.2745
26716W        W46250   8.942  10.715  11.057 -0.0378  0.1451 -0.0400
26717W        W46251   1.465  14.623  13.162  0.3248 -0.1897  0.0886
26718W        W46252  15.673   2.461  14.107  0.1843 -0.0852  0.2123
26719W        W46253   3.444  15.572   2.606 -0.1560  0.1672 -0.0434
26720W        W46254   4.445   0.033  11.118 -0.2666  0.1858 -0.1596
26721W        W46255   0.821   3.989   0.918 -0.2484 -0.0735  0.1033
26722W        W46256   5.505  10.407   0.917  0.0081  0.0881 -0.0188
26723W        W46257   2.738   7.727   3.644 -0.2145  0.1546 -0.1772
26724W        W46258  17.259  15.097   4.753 -0.2243  0.1489  0.1714
26725W        W46259   6.658   4.671  14.422 -0.1828 -0.0465 -0.2105
26726W        W46260  17.730  17.495   1.577 -0.0956  0.0896 -0.2714
26727W        W46261   0.692   8.353   2.763 -0.0216 -0.0781  0.1089
26728W        W46262   4.430   4.712  12.793  0.0124 -0.1496 -0.1840
26729W        W46263   7.544  16.559  13.348  0.0777  0.0458 -0.3284
26730W        W46264  13.170   4.567   2.544 -0.0844 -0.1076  0.0162
26731W        W46265   1.958  12.780   1.618  0.1112 -0.0357  0.1860
26732W        W46266  11.733   6.975   3.572  0.2405  0.1751 -0.1062
26733W        W46267  11.653  18.024   4.713 -0.0116 -0.1341 -0.1126
26734W        W46268  17.871   6.041  12.906 -0.3186 -0.3065 -0.0325
26735W        W46269  15.948  15.735  14.745 -0.2477  0.0960  0.2352
26736W        W46270   3.409   8.504   0.188 -0.2523  0.2602  0.1597
26737W        W46271   6.301   4.073  11.326 -0.1311 -0.0853 -0.2942
26738W        W46272   7.734  11.557   0.561  0.2251  0.0201  0.0047
26739W        W46273  16.729  14.409   1.548 -0.0688  0.2061 -0.0771
26740W        W46274  10.262  13.939  13.575 -0.0155  0.1043  0.0448
26741W        W46275  11.317  14.747  11.872 -0.2743 -0.0362  0.1711
26742W        W46276  11.417  11.663   3.899  0.0889 -0.2074 -0.2762
26743W        W46277   7.795  10.342   5.132 -0.2171  0.1485 -0.2343
26744W        W46278   1.431  16.355  13.156  0.0465  0.0047 -0.0425
26745W        W46279   4.047  15.188   3.728 -0.0256  0.2116 -0.0135
26746W        W46280  15.624   8.405   1.827 -0.1572  0.0653  0.1229
26747W        W46281   9.816  10.602   3.545 -0.2258  0.2319  0.0661
26748W        W46282  15.144   8.058  10.240 -0.0567  0.1254  0.1088
26749W        W46283   1.903  13.431   2.667 -0.0601  0.1184 -0.2833
26750W        W46284   7.943  12.993  11.615  0.0293 -0.0067  0.3266
26751W        W46285   1.490   3.891  13.134  0.4453  0.2583  0.0618
26752W        W46286  15.753   0.093  12.721  0.1458  0.2712 -0.0758
26753W        W46287  17.471   8.031   0.145  0.1055 -0.0884 -0.2661
26754W        W46288   2.725  16.906   0.051 -0.0048  0.0966 -0.1609
26755W        W46289  17.995  15.736   3.066  0.0572 -0.0719  0.1655
26756W        W46290   2.894   1.867  10.551 -0.2755  0.1748  0.0395
26757W        W46291  18.353  11.339  13.775  0.0282  0.3282 -0.2315
26758W        W46292  11.148   2.382  14.197  0.0063 -0.0682  0.0205
26759W        W46293  12.142   6.122   2.506 -0.4264 -0.0550  0.0334
26760W        W46294  16.094   3.387   0.848 -0.1834 -0.0045  0.2888
26761W        W46295   1.805   7.445  13.937  0.0257 -0.2393  0.2617
26762W        W46296  16.774  11.095   3.702  0.0671  0.2373 -0.2739
26763W        W46297  16.354   2.657  11.429 -0.2241 -0.1137 -0.0769
26764W        W46298   5.167   8.955   0.599 -0.1067 -0.0028  0.0347
26765W        W46299   8.180   4.463   3.302  0.1355 -0.1371 -0.0012
26766W        W46300   2.486   2.967   2.623 -0.3201  0.0798 -0.0232
26767W        W46301   1.305  17.567   2.589 -0.1855 -0.2402  0.3873
26768W        W46302  12.125   1.698  12.854 -0.2804 -0.0264 -0.1982
26769W        W46303  15.559  14.507   0.291 -0.2187 -0.2906 -0.1390
26770W        W46304  14.420  12.438   0.346  0.1298 -0.0632 -0.0515
26771W        W46305   6.919   2.841  14.218  0.0489 -0.3849  0.2320
26772W        W46306  14.488  13.127  12.785 -0.1576 -0.0621  0.3034
26773W        W46307   0.734   3.088   3.691  0.0616  0.2998  0.4076
26774W        W46308  16.070  17.743  13.209 -0.1731 -0.0764 -0.0011
26775W        W46309  14.224   1.359  13.790 -0.1408 -0.1886  0.1579
26776W        W46310  12.772   1.689  10.295  0.2186 -0.0276  0.1197
26777W        W46311  14.162   1.024  13.405  0.1028  0.0854  0.0578
26778W        W46312   3.917  12.373   2.281  0.0522  0.3344 -0.4602
26779W        W46313   5.426   4.574   0.649 -0.4144 -0.0114  0.1369
26780W        W46314   5.228   3.698  12.639  0.0887  0.0777 -0.1955
26781W        W46315  13.256  13.256   1.516 -0.0030  0.1678  0.1467
26782W        W46316  17.489   1.634  14.385 -0.4065  0.2319 -0.2514
26783W        W46317   4.452   6.554  12.993  0.1662  0.2756 -0.0788
26784W        W46318   3.246  16.690   3.584  0.0051  0.0037  0.4138
26785W        W46319   9.741   4.973   1.645 -0.1561  0.3029  0.1900
26786W        W46320   3.471   4.488   3.421 -0.0078 -0.2404 -0.1307
26787W        W46321   9.309   3.805   4.624  0.0170 -0.0427  0.0951
26788W        W46322  13.040  17.617  12.168 -0.2168  0.1283  0.0511
26789W        W46323  12.603   9.853  11.939 -0.2489  0.0892 -0.2300
26790W        W46324  11.655  15.514  14.153 -0.2184 -0.1496 -0.0406
26791W        W46325  12.816   4.334  12.315  0.1792 -0.1050  0.0670
26792W        W46326  17.910  11.730   4.058 -0.1181 -0.4312 -0.4286
26793W        W46327   4.001   7.192   3.160 -0.1440  0.1360  0.0017
26794W        W46328   2.430  12.513   1.690 -0.0274  0.0272  0.2193
26795W        W46329   0.313  18.708   3.148  0.1062 -0.1481  0.0979
26796W        W46330  11.656   1.161   1.324  0.0073 -0.1861 -0.3427
26797W        W46331   6.788   4.312   0.804 -0.2007 -0.0293  0.1286
26798W        W46332   4.118   1.785  14.830 -0.2229  0.0581  0.1275
26799W        W46333   8.476  18.047   0.302 -0.0284  0.0602 -0.3536
26800W        W46334  12.021  18.356   3.006  0.0556 -0.1741  0.3197
26801W        W46335   9.960   4.977  12.848 -0.0020 -0.4110 -0.0857
26802W        W46336  10.436   6.594  12.388 -0.3446  0.1131  0.1948
26803W        W46337   4.497   0.765   1.189  0.0076 -0.0229  0.0882
26804W        W46338   1.148  14.161  14.619 -0.1757 -0.0031 -0.0559
26805W        W46339   5.914   7.575   3.690 -0.2457 -0.1420 -0.4433
26806W        W46340   0.140  12.113  10.896 -0.1855  0.1628 -0.0948
26807W        W46341  14.252   5.932   2.953 -0.1376 -0.0239 -0.1433
26808W        W46342  14.143   8.485  13.269 -0.1488  0.1034  0.0494
26809W        W46343  15.861   5.219  13.666  0.0021 -0.0186  0.1823
26810W        W46344  14.464   0.510  13.387 -0.0170  0.0311 -0.1217
26811W        W46345   7.615  11.842   3.870 -0.1404 -0.0477 -0.2594
26812W        W46346   4.238   3.833   1.685  0.0676 -0.3628  0.1338
26813W        W46347  14.876  18.633   0.223 -0.2247  0.0863  0.1723
26814W        W46348   7.126   8.550  11.460  0.2544 -0.0833 -0.2846
26815W        W46349   6.962   9.803   1.899  0.0165 -0.0017 -0.0089
26816W        W46350  16.674  19.017   1.765  0.2683  0.1336 -0.0034
26817W        W46351  14.130  10.521   5.187  0.2797 -0.2570  0.0493
26818W        W46352   3.260  10.551  13.951  0.0987 -0.0606  0.0242
26819W        W46353  13.770  14.901   4.731  0.0652 -0.1364  0.0178
26820W        W46354  12.437  14.206  13.006  0.0539 -0.1908 -0.2865
26821W        W46355  17.744   3.333  14.010  0.0431 -0.0079 -0.1713
26822W        W46356   1.178  11.495  14.026  0.1853 -0.1442  0.0377
26823W        W46357   5.427   9.508   3.910  0.2602  0.2578  0.1850
26824W        W46358  13.498  11.498   0.782 -0.2283  0.3992  0.1999
26825W        W46359   8.283  17.058  14.178  0.0856 -0.0046  0.0816
26826W        W46360   3.118   7.231   0.738  0.1823  0.1465 -0.2686
26827W        W46361   9.596  18.911   3.544 -0.1067 -0.1111  0.1318
26828W        W46362   6.030   4.472  12.689 -0.0933  0.1080  0.0255
26829W        W46363   2.386   5.015   1.635  0.2401 -0.1430  0.1916
26830W        W46364  16.167   2.145  11.763 -0.0414  0.0072  0.1207
26831W        W46365   2.877   0.991  13.431  0.0052  0.0311 -0.0572
26832W        W46366  15.717   1.599  13.451  0.0823 -0.1282 -0.0774
26833W        W46367   4.867   2.527  14.670 -0.0140  0.1710  0.2917
26834W        W46368   0.454   6.796   4.416 -0.1050  0.3416 -0.1503
26835W        W46369  17.988   7.544   2.106  0.0178 -0.1803  0.1165
26836W        W46370  13.186   1.958  12.265  0.2312  0.0672 -0.2921
26837W        W46371  17.852  10.160  12.902  0.0886 -0.2015 -0.1489
26838W        W46372  11.441   0.297  12.254  0.1474  0.1088 -0.1014
26839W        W46373  12.844  15.868  13.689  0.0482 -0.3569  0.1386
26840W        W46374  14.589   0.162  11.981  0.2990  0.0531  0.1182
26841W        W46375   8.677   0.063   2.879  0.0362  0.1108  0.1265
26842W        W46376   7.823   1.377  11.767  0.1867 -0.2215 -0.1517
26843W        W46377   9.902  13.449  13.753  0.0009 -0.0381 -0.0313
26844W        W46378   7.161   9.033   4.396 -0.3178  0.2155  0.2542
26845W        W46379  12.221   2.399  11.392 -0.1835  0.2313  0.0089
26846W        W46380   0.475  10.585  11.275 -0.1211  0.3568 -0.2198
26847W        W46381  10.544   1.124  12.836  0.3046  0.1938 -0.1030
26848W        W46382   7.651   9.733   4.207  0.3109  0.0014 -0.0730
26849W        W46383   4.614  15.749   2.364  0.1908  0.2190  0.0424
26850W        W46384   0.275   0.532  10.416 -0.4019 -0.0880 -0.1352
26851W        W46385  14.173  16.270   2.101  0.2114  0.0850  0.2792
26852W        W46386   1.138  12.471  14.075  0.1179 -0.1331 -0.3265
26853W        W46387   0.753  17.788  12.665  0.0549 -0.1270 -0.0470
26854W        W46388  11.078  16.421  10.437 -0.0192  0.3047 -0.1422
26855W        W46389  18.172   0.902  12.941  0.1166 -0.0134 -0.3847
26856W        W46390   8.509   0.247   4.274  0.1100 -0.0342  0.3027
26857W        W46391  16.170   8.467  11.968  0.3342  0.0376 -0.3557
26858W        W46392  11.569   9.713   2.459 -0.2213 -0.0409 -0.1604
26859W        W46393  10.377   1.533   1.821  0.3350  0.3274 -0.3359
26860W        W46394  16.511   0.024   4.577  0.2614  0.2485  0.0457
26861W        W46395   4.634   6.565   0.662  0.0212 -0.0937  0.3349
26862W        W46396   2.103  14.473   3.684  0.0431  0.0598  0.0348
26863W        W46397  15.901  13.814   1.283  0.1746 -0.1163  0.0794
26864W        W46398  13.225   7.099   4.291  0.0411  0.0108  0.0208
26865W        W46399  13.150  13.937   3.612 -0.0698  0.2234  0.2014
26866W        W46400   6.020  15.598  13.179  0.0563 -0.0920  0.0768
26867W        W46401   4.561   7.913  11.659 -0.0984 -0.1198  0.3300
26868W        W46402   7.019   7.240  13.451 -0.4283 -0.1261  0.2430
26869W        W46403  14.696  16.264   1.133  0.1136  0.1683  0.0859
26870W        W46404  12.359   0.323  10.629  0.3114 -0.2783  0.0986
26871W        W46405   4.561  10.522   2.178  0.2694  0.1434 -0.0424
26872W        W46406   1.998   3.202  11.758  0.0540 -0.0092  0.0383
26873W        W46407  14.640  13.914   3.727 -0.0051  0.2225  0.1517
26874W        W46408   4.759   2.825   3.662  0.1000 -0.4692 -0.0775
26875W        W46409  17.051   4.716  10.669 -0.0826  0.0178 -0.1443
26876W        W46410  18.170   4.219   0.649  0.3705  0.2063 -0.1757
26877W        W46411   2.835   5.127   4.037 -0.0900 -0.2288 -0.1332
26878W        W46412   6.679   9.630  13.756 -0.0890 -0.3054  0.0762
26879W        W46413  18.658   0.440  11.033  0.3114 -0.2694 -0.2152
26880W        W46414   4.263  11.357   2.462 -0.0765  0.0175  0.0514
26881W        W46415   8.741  15.182   0.133  0.2483 -0.1065  0.0199
26882W        W46416   9.851  12.003   4.055 -0.2803  0.2192 -0.4111
26883W        W46417   9.823  17.282  11.915  0.1237  0.0708 -0.0019
26884W        W46418  13.947  11.738   0.774 -0.0553  0.0765 -0.1617
26885W        W46419  13.309  16.509  13.343  0.2591  0.1441  0.0034
26886W        W46420  16.708  12.819   0.588  0.1570 -0.0161  0.0306
26887W        W46421  18.112   4.517  13.371  0.2203 -0.2772 -0.1904
26888W        W46422   6.920  12.175   0.690 -0.0060 -0.1242 -0.2122
26889W        W46423  12.267   8.401  10.512 -0.0370  0.2137 -0.1029
26890W        W46424   3.428   0.115  13.527  0.0522  0.1121 -0.0549
26891W        W46425  13.666  12.323   1.783  0.0389  0.0487  0.0515
26892W        W46426  14.955  13.115  12.544  0.1988  0.1646 -0.1021
26893W        W46427  13.022   4.482  11.492 -0.0104  0.1869 -0.4803
26894W        W46428  13.498   2.245   3.464  0.1902  0.0868 -0.2255
26895W        W46429   4.004  10.753  13.522  0.1637 -0.0496  0.1227
26896W        W46430  16.485  12.133  12.373  0.2683  0.2261  0.1613
26897W        W46431   3.256  16.825   3.022  0.1811  0.2408 -0.4001
26898W        W46432   6.884  14.502   0.975  0.0426  0.2531 -0.1618
26899W        W46433   6.988   7.930   0.433 -0.0018  0.1940 -0.0181
26900W        W46434   0.893  15.782   3.583  0.1468 -0.1634 -0.1965
26901W        W46435  13.054   5.356   1.920 -0.0729 -0.0904  0.1129
26902W        W46436   9.251  15.205   0.964 -0.2664 -0.0378 -0.0011
26903W        W46437   9.839   2.863  14.248 -0.2059 -0.3236 -0.0542
26904W        W46438  11.155   4.009  14.112  0.2612 -0.0761 -0.0091
26905W        W46439   2.493   1.714   1.315 -0.0268  0.2364 -0.1871
26906W        W46440  10.288   7.886   5.108  0.1904 -0.2582  0.0545
26907W        W46441   3.382   1.737   0.553 -0.0884  0.0386 -0.1762
26908W        W46442   0.651   6.600   3.614 -0.0001  0.2181 -0.3261
26909W        W46443  18.129  18.022   2.337  0.2420  0.1263 -0.3531
26910W        W46444   1.857  18.922  10.388  0.1005  0.2565  0.1554
26911W        W46445   0.025   3.532   0.252  0.4344  0.0265  0.0973
26912W        W46446   1.844  13.913   0.333 -0.0094  0.3534  0.1125
26913W        W46447  17.708  15.353   0.860  0.2778 -0.2723  0.0057
26914W        W46448   8.414   8.064  12.701  0.1252 -0.3001 -0.3669
26915W        W46449  18.619  13.333  12.535 -0.1529  0.2997  0.1418
26916W        W46450   9.605   4.248  12.206  0.2135 -0.0713  0.0428
26917W        W46451   0.609  14.553  13.044  0.3963  0.0991 -0.0348
26918W        W46452   0.720  19.030   2.396 -0.2099 -0.5318  0.0698
26919W        W46453  11.625  14.705   1.046 -0.0964  0.2968 -0.2966
26920W        W46454  14.635  19.114   1.741  0.1036  0.4145  0.0297
26921W        W46455   9.147  15.972   0.456 -0.1533 -0.1250  0.3245
26922W        W46456  18.481   0.848  10.698  0.0904  0.0324 -0.1850
26923W        W46457   3.013   4.861  11.820  0.0025 -0.0047  0.0283
26924W        W46458  18.191   4.999   2.545  0.2692 -0.1240  0.1725
26925W        W46459   3.258   7.912  12.571  0.2866  0.2633  0.1829
26926W        W46460   7.349  12.273   3.849 -0.0245  0.0351  0.0598
26927W        W46461  17.167  18.717   0.503 -0.0045  0.1385 -0.0707
26928W        W46462   5.704   2.541  10.849 -0.2319 -0.0112  0.3229
26929W        W46463   0.833   6.446  14.019 -0.1057  0.0156 -0.1477
26930W        W46464   2.721   7.191   1.042  0.1888  0.2087 -0.0543
26931W        W46465  18.552  10.789   5.286  0.0160 -0.1051 -0.0486
26932W        W46466  11.932   4.703  12.781  0.1238  0.0639 -0.3074
26933W        W46467   1.718   9.138  10.669 -0.0372 -0.0585  0.2663
26934W        W46468   3.438   2.214   4.154  0.0839 -0.1191 -0.0440
26935W        W46469   0.055  16.081   4.415 -0.2204 -0.2513  0.1474
26936W        W46470  11.624  15.581   2.092 -0.2262 -0.2330 -0.0668
26937W        W46471  17.165  14.720   3.546  0.2688 -0.0264  0.3372
26938W        W46472  16.813  13.982  13.371  0.1611 -0.0033  0.2067
26939W        W46473   6.717   8.792  11.683 -0.0449  0.1271 -0.2703
26940W        W46474   7.213  14.288   1.321 -0.2089 -0.1771  0.1367
26941W        W46475  12.917   1.134   2.116  0.1653  0.1637 -0.3186
26942W        W46476   4.923   0.444  12.944 -0.2113  0.2585  0.0648
26943W        W46477   5.850  18.356  14.583 -0.1409 -0.2973  0.0781
26944W        W46478   8.962  17.658   2.302  0.1402 -0.0174  0.1250
26945W        W46479   5.612   3.680  11.808 -0.3686 -0.4189  0.2278
26946W        W46480  12.068   0.219  11.384  0.0631  0.0539  0.0353
26947W        W46481  16.901  14.992  12.558  0.1909 -0.0760 -0.2275
26948W        W46482   8.335  12.457  12.806  0.1872  0.1620  0.3809
26949W        W46483   1.192   9.558   1.899 -0.2809  0.0870  0.1690
26950W        W46484   8.916  12.662  13.344  0.4131  0.1970  0.1360
26951W        W46485  19.039   7.282   3.181 -0.1876  0.1427  0.1016
26952W        W46486  10.824   5.825   3.972 -0.1901  0.0870  0.1443
26953W        W46487   2.311   4.040  13.334 -0.0891 -0.0996 -0.0382
26954W        W46488  17.997  14.125   2.115 -0.1009 -0.0662 -0.1604
26955W        W46489  12.647   4.536  12.773 -0.2500  0.0800 -0.2034
26956W        W46490   6.096  17.317  12.476  0.0684  0.2802  0.0105
26957W        W46491  15.073  14.283   1.538 -0.0461  0.1353 -0.2809
26958W        W46492  12.900   0.130  13.880 -0.0733 -0.1775  0.0563
26959W        W46493   5.154   1.887   1.441 -0.0588 -0.4052  0.0590
26960W        W46494  14.382  13.979   4.418  0.0237  0.0779  0.1521
26961W        W46495   6.101   3.864   3.643 -0.2363  0.1692  0.2040
26962W        W46496   3.181  12.160   2.791 -0.2387  0.1153 -0.1611
26963W        W46497  18.918   6.123   0.521  0.0692  0.0530 -0.2237
26964W        W46498   4.376   6.750   9.906  0.1189  0.0910 -0.2283
26965W        W46499   2.845  13.593  14.013  0.2055  0.1796  0.2660
26966W        W46500  16.843  12.568  12.550 -0.0328  0.1415  0.3660
26967W        W46501   6.877   1.052  13.745 -0.0326 -0.0428 -0.1868
26968W        W46502   2.736   2.174   1.123  0.0764 -0.0367  0.0627
26969W        W46503   3.001  11.963  12.134  0.0859  0.3205  0.0534
26970W        W46504   6.739   6.164   2.241  0.1010  0.4427  0.2540
26971W        W46505   8.217   8.214  10.756 -0.1202 -0.0428 -0.0183
26972W        W46506  12.892  17.257  11.406  0.5368 -0.2570 -0.0238
26973W        W46507  12.813   4.252   2.655  0.0166  0.0926  0.3539
26974W        W46508  13.163   7.022   3.285 -0.2089 -0.0416  0.3906
26975W        W46509  14.653   7.045   0.376  0.0090 -0.1852 -0.0273
26976W        W46510   4.018   7.135   1.318 -0.3347 -0.0215 -0.0615
26977W        W46511   4.732   7.202  12.522  0.2789 -0.0506 -0.0477
26978W        W46512   0.131  14.537   2.164 -0.2719  0.1021 -0.1713
26979W        W46513   0.901   5.775   1.111  0.0184 -0.2680  0.2514
26980W        W46514   8.593  18.325   3.807 -0.0981 -0.2430  0.2226
26981W        W46515  15.189  12.119  11.090  0.3455  0.0938  0.1933
26982W        W46516  16.645  12.112   1.767  0.1894 -0.1374 -0.1472
26983W        W46517   5.256  19.040  14.730  0.1996 -0.2582  0.1681
26984W        W46518   2.036   8.116   2.725 -0.0609 -0.2980  0.2582
26985W        W46519   3.403   2.464  12.634 -0.0841  0.2465 -0.1061
26986W        W46520   2.146   4.570   2.262  0.1767  0.0780  0.2408
26987W        W46521  13.859  11.588  13.333  0.1446  0.0511 -0.0033
26988W        W46522   3.103  15.121  13.067 -0.0563 -0.0348 -0.0424
26989W        W46523  15.641   2.538  11.235 -0.1298  0.3203 -0.2181
26990W        W46524  17.895   5.370  14.094  0.0375  0.2743  0.2991
26991W        W46525   8.940   5.190  14.816 -0.2939  0.3354 -0.0851
26992W        W46526  13.058   4.678   1.353  0.0878 -0.0205 -0.0939
26993W        W46527   7.587  10.724  11.811  0.1102  0.0754  0.0233
26994W        W46528   5.298  15.638  12.477 -0.1522  0.0374 -0.1141
26995W        W46529  10.988   1.983   0.332  0.2988  0.2685  0.0412
26996W        W46530   4.220  14.685  14.263 -0.1727 -0.2438  0.1175
26997W        W46531   6.270   1.643  14.227 -0.2906  0.1134 -0.1554
26998W        W46532  16.211   1.510   2.956 -0.0794 -0.0563  0.1704
26999W        W46533   9.410  10.874  13.560  0.3593  0.2836  0.0112
27000W        W46534   6.682   7.873  12.812 -0.2850  0.1998  0.0665
27001W        W46535   7.404  14.586   2.195  0.0251  0.3416 -0.2040
27002W        W46536   2.282   7.177   1.340  0.2276  0.0254 -0.1103
27003W        W46537  17.348   0.372  10.937 -0.3262 -0.0210 -0.0101
27004W        W46538  11.287  14.914  12.368 -0.1445 -0.1908 -0.0894
27005W        W46539  14.805   3.860   2.353 -0.1528  0.1441 -0.3381
27006W        W46540  15.480   8.844  13.271  0.1734 -0.0213 -0.0626
27007W        W46541  15.473   5.168   2.682  0.1552 -0.0444 -0.0669
27008W        W46542  17.649  10.675  11.224 -0.2806  0.0763  0.1116
27009W        W46543  16.880  13.920   1.308  0.1166 -0.1239 -0.0276
27010W        W46544   1.772   4.365   4.813 -0.1973  0.0761  0.1983
27011W        W46545   4.343   9.985   0.354  0.0244 -0.1655  0.0480
27012W        W46546  16.778   3.059   1.475  0.0851 -0.0596  0.0445
27013W        W46547   3.488   7.271   5.095 -0.0185  0.2443 -0.0462
27014W        W46548   1.689   9.464   1.916  0.1399  0.0063 -0.2215
27015W        W46549  17.419   8.946   0.878  0.1721 -0.1421 -0.2186
27016W        W46550  16.114   5.542  11.431  0.1528  0.1385 -0.1777
27017W        W46551  16.022  13.753  14.730 -0.2887  0.0377 -0.0887
27018W        W46552  15.115  13.773   3.643  0.0960  0.1260 -0.0726
27019W        W46553  10.179   5.157  11.868 -0.0703  0.2019 -0.0547
27020W        W46554   9.460  16.727   0.659  0.0919  0.0701 -0.4149
27021W        W46555  18.018   5.794  13.395 -0.0852 -0.0874  0.0559
27022W        W46556   0.778   3.852   3.249  0.0531  0.3688  0.0351
27023W        W46557   1.981  18.231  13.864  0.2303  0.0443  0.0350
27024W        W46558  11.923   5.735  14.713 -0.3800  0.4142 -0.3649
27025W        W46559  11.972   2.300  14.514 -0.3460 -0.2583  0.2127
27026W        W46560   4.138   3.490   2.092  0.0303 -0.2971  0.0153
27027W        W46561   2.303  15.918   2.268 -0.2647 -0.1020  0.1386
27028W        W46562   9.968   1.531   1.471  0.0279 -0.0596  0.0293
27029W        W46563   0.403   9.230   2.345 -0.0295  0.0655  0.1258
27030W        W46564  10.254  17.779   0.845 -0.1535 -0.0044  0.0965
27031W        W46565  16.678   7.198  11.260 -0.0698 -0.0865 -0.1823
27032W        W46566   6.729  11.172  11.989  0.0360 -0.2178  0.1424
27033W        W46567  17.343   8.792   3.854 -0.1263 -0.5731  0.0309
27034W        W46568   2.660   8.792   4.102  0.0105 -0.0394 -0.0109
27035W        W46569   8.443  12.050  11.355  0.0845 -0.0602  0.0233
27036W        W46570   9.790  11.345   4.294  0.0055  0.0470 -0.2308
27037W        W46571   5.552  17.753   1.539  0.2140  0.2391  0.1155
27038W        W46572  18.360   7.632   9.442 -0.0681 -0.3534  0.0310
27039W        W46573   5.615   6.792  12.867 -0.1894 -0.4893  0.1641
27040W        W46574  17.941   5.995   0.515  0.1361 -0.0425 -0.0008
27041W        W46575  16.314   4.134  11.156 -0.0625  0.2021 -0.1891
27042W        W46576  14.632   4.684   3.158  0.1481 -0.2625 -0.0014
27043W        W46577   6.053   6.537  13.745 -0.3782 -0.0287  0.1749
27044W        W46578  18.832  15.896  12.042  0.1760 -0.1219  0.4600
27045W        W46579   2.423   8.023  13.539  0.0394 -0.1930 -0.3009
27046W        W46580  14.980   8.414   3.090  0.0300 -0.1411 -0.1361
27047W        W46581  17.389  17.182   3.898 -0.3454  0.1545  0.1681
27048W        W46582   1.841   5.814   3.584 -0.0619  0.2190  0.1959
27049W        W46583   9.082  11.768   2.176 -0.1645  0.1340  0.1533
27050W        W46584  18.168   6.631   5.138 -0.0008 -0.0388 -0.4815
27051W        W46585   5.943   6.368  14.314  0.0497 -0.3442  0.2057
27052W        W46586   0.608  12.391   1.424  0.1065  0.0093  0.3519
27053W        W46587   9.778   4.026   4.044  0.1389  0.1080 -0.0408
27054W        W46588   5.408  14.920  11.848 -0.1928  0.2075  0.0624
27055W        W46589   8.659   4.244  11.666 -0.0745  0.0240 -0.0882
27056W        W46590  10.979  18.070  10.855  0.3816  0.4249 -0.0788
27057W        W46591   3.172  13.640  12.101 -0.1095 -0.0217  0.0884
27058W        W46592  11.864   4.431   2.324  0.0030  0.1414  0.1139
27059W        W46593   2.217  10.418   2.651 -0.0219  0.2376  0.0587
27060W        W46594  15.682   9.773  12.359  0.2717 -0.0183  0.2401
27061W        W46595   3.183  16.403  14.257 -0.0398  0.1387 -0.1494
27062W        W46596   4.526  15.811   4.460 -0.1364  0.1272 -0.1332
27063W        W46597   2.215   2.747   3.870  0.1724 -0.1733  0.0010
27064W        W46598   7.287  10.646  11.400 -0.0324  0.2736 -0.2667
27065W        W46599   8.997  14.867  12.987  0.3969 -0.0651 -0.2137
27066W        W46600  12.900   0.190   2.101  0.3065  0.1202  0.2422
27067W        W46601  16.909   1.751   4.061  0.3967  0.2415 -0.0369
27068W        W46602   3.154   0.746   3.858 -0.1040 -0.2247 -0.0252
27069W        W46603  10.321  15.263  12.823  0.0137  0.1525  0.0655
27070W        W46604   6.549   2.791  10.863 -0.1261  0.1311 -0.1380
27071W        W46605  15.079  14.800   2.218 -0.0833 -0.2537 -0.0945
27072W        W46606  12.999  16.043   0.250  0.1540  0.0071 -0.2017
27073W        W46607   7.955  17.667   3.114 -0.0031 -0.2170  0.1777
27074W        W46608  13.848  17.120   2.345  0.1941  0.1211 -0.1971
27075W        W46609  13.434  14.827  13.980  0.0363  0.0053 -0.2009
27076W        W46610  12.304  12.161   3.762 -0.1047 -0.1858  0.0268
27077W        W46611   7.142   3.001  13.326 -0.1259 -0.0147 -0.1600
27078W        W46612  12.102   9.541   3.271  0.3479  0.1145 -0.0895
27079W        W46613   7.275   1.972   1.882 -0.0543 -0.1673 -0.0390
27080W        W46614   6.403   2.471  14.653 -0.1229  0.1229  0.1763
27081W        W46615   0.738   0.115   3.903 -0.0635 -0.1568 -0.0340
27082W        W46616   9.813   0.282   0.181 -0.0660  0.4534  0.1454
27083W        W46617  13.382   3.120  11.872 -0.2749 -0.3287 -0.1461
27084W        W46618  18.192   1.470  12.121  0.1441  0.2731  0.0625
27085W        W46619   7.100  12.320  12.467  0.3110 -0.2211  0.1293
27086W        W46620  17.080  11.593  12.759 -0.3785  0.1010 -0.0358
27087W        W46621  12.900   4.715  14.138 -0.1513 -0.1179 -0.0856
27088W        W46622  18.329   3.687  12.317  0.3892 -0.1893 -0.1054
27089W        W46623   6.814  11.469  12.981 -0.1356  0.1315 -0.3629
27090W        W46624   2.393  10.165   2.236  0.0893 -0.1088 -0.1512
27091W        W46625   5.134   8.609   2.601  0.3180  0.1674 -0.1209
27092W        W46626   2.652  16.779   1.249 -0.0719  0.1840 -0.1337
27093W        W46627   7.210   7.263   2.712 -0.0288 -0.2549  0.1141
27094W        W46628   2.231  18.740   0.096 -0.0197 -0.1168  0.0176
27095W        W46629  17.920   6.504   1.545  0.1503 -0.1228  0.0632
27096W        W46630   1.932   5.828  11.206  0.0704  0.1766  0.2958
27097W        W46631  18.258  12.878  12.620  0.1877  0.0308 -0.2464
27098W        W46632   9.055  18.572   3.606  0.0228 -0.0501  0.0826
27099W        W46633  18.691  18.844   1.811 -0.2635  0.0561  0.2113
27100W        W46634   7.918  10.195   4.155  0.1974  0.0823  0.1601
27101W        W46635   4.258  12.457   3.106 -0.1275 -0.3329  0.0833
27102W        W46636  17.642   9.612   2.758  0.0467 -0.0898  0.2658
27103W        W46637   2.399   1.387  12.412 -0.1243 -0.0024 -0.2863
27104W        W46638   4.539  11.281  12.930 -0.2410  0.0572 -0.0953
27105W        W46639  16.211  10.607   1.632  0.1198 -0.1501  0.0616
27106W        W46640   4.464   5.971  13.781  0.1205  0.0505  0.0923
27107W        W46641  12.128  14.191   3.956  0.0831 -0.4372 -0.0080
27108W        W46642   6.436   7.574  11.379  0.1904  0.0160 -0.1487
27109W        W46643  12.849   6.614  11.738  0.0165  0.1423 -0.0656
27110W        W46644   4.692  15.787  11.682 -0.0629 -0.0488 -0.0305
27111W        W46645  17.518   8.848  10.771  0.1526 -0.0277  0.1995
27112W        W46646   1.846   1.936   9.510 -0.3570  0.0474  0.1362
27113W        W46647  12.965  15.616   3.359  0.2235  0.0872 -0.1123
27114W        W46648   4.212   9.513   4.667 -0.1455 -0.0226 -0.0107
27115W        W46649   6.483  11.259   2.756 -0.3263 -0.0676  0.1065
27116W        W46650  14.106  13.129  10.967  0.1075  0.1046 -0.0660
27117W        W46651  11.004  11.050  11.006 -0.0305  0.1452 -0.3567
27118W        W46652  17.890  17.355   3.957  0.2763 -0.0650 -0.2481
27119W        W46653  15.361   9.550  11.191 -0.0040 -0.0660  0.0638
27120W        W46654  18.117   2.804   3.197  0.0728  0.0635 -0.1209
27121W        W46655  11.683  15.000   0.643 -0.1526  0.2171 -0.2621
27122W        W46656  17.340   5.186  12.926 -0.1458  0.1284  0.0862
27123W        W46657   6.632  15.488   1.220 -0.2056 -0.0104  0.2204
27124W        W46658   3.363  16.989   4.633  0.1497  0.0461 -0.2613
27125W        W46659  18.648   6.851   0.597 -0.0772 -0.0906  0.3505
27126W        W46660   0.667   2.068  13.491  0.2786 -0.0400 -0.1048
27127W        W46661   7.827  13.763  10.974 -0.0564 -0.1060 -0.0785
27128W        W46662  18.703   8.165   4.123  0.0974  0.2899 -0.0222
27129W        W46663   2.939  14.884   1.311 -0.0577  0.1900  0.0621
27130W        W46664   6.317  12.281   1.804  0.2422  0.2867 -0.1248
27131W        W46665   9.457  12.157  14.417 -0.1592 -0.1702  0.3603
27132W        W46666   5.984  17.298   0.641 -0.0751 -0.0592 -0.0394
27133W        W46667  12.488   0.518  11.582  0.3181 -0.2904 -0.2337
27134W        W46668  10.957   1.791   3.030  0.3287 -0.3295 -0.0725
27135W        W46669   4.717  13.718   0.901  0.0147  0.0609 -0.1645
27136W        W46670  12.741   0.420   0.875  0.0509  0.0955  0.0900
27137W        W46671  14.886   0.320  11.444  0.1210 -0.0954 -0.0186
27138W        W46672  17.217   0.231   2.962  0.2029  0.2068 -0.2760
27139W        W46673  19.006  10.449   3.506  0.1102 -0.2543 -0.1677
27140W        W46674  18.995   2.623  10.815 -0.0873 -0.1431  0.0057
27141W        W46675   8.568   4.044  12.142  0.0929 -0.1536  0.1798
27142W        W46676  10.117  13.053  12.941 -0.1521 -0.1472 -0.1056
27143W        W46677  16.500  16.435  13.432 -0.1466 -0.0897  0.0571
27144W        W46678  11.603   6.157  12.569  0.2404  0.0259 -0.3563
27145W        W46679  16.348   4.795   0.024 -0.0737  0.1065 -0.1501
27146W        W46680   3.731  12.351  11.957  0.4204 -0.0929  0.1802
27147W        W46681  16.801  15.392  11.762 -0.2533 -0.0745  0.0936
27148W        W46682  16.420  12.017  11.824  0.0989  0.2578  0.0403
27149W        W46683   9.350   1.008  12.875 -0.0479 -0.0569  0.0513
27150W        W46684  11.898   5.914  10.638 -0.5272 -0.2515  0.0561
27151W        W46685  12.200  12.842   2.733 -0.0052  0.0201 -0.0783
27152W        W46686   7.660  11.186   3.298  0.1529 -0.1073  0.1272
27153W        W46687   6.845  15.661  13.245 -0.3231 -0.0054 -0.1349
27154W        W46688   9.656   4.401   0.790 -0.0400 -0.0388  0.0342
27155W        W46689   8.648   8.584  10.603 -0.1447  0.2767 -0.2618
27156W        W46690  12.030  15.727   0.257  0.1874  0.0176 -0.1126
27157W        W46691   0.124  15.057  12.097 -0.0422  0.0015  0.1432
27158W        W46692  10.412  16.622  13.606  0.0728 -0.0764 -0.2606
27159W        W46693  11.823   1.682   1.429  0.4226  0.1029 -0.1886
27160W        W46694   0.997   1.337   1.135  0.0232 -0.1191  0.0495
27161W        W46695  15.690  14.498   1.409  0.2595  0.2495 -0.1194
27162W        W46696   8.674  14.300  13.770  0.1331  0.0643  0.0852
27163W        W46697   5.901  14.034  14.752 -0.1609 -0.0607 -0.3632
27164W        W46698   6.014  10.899  13.258  0.1110 -0.2405  0.3688
27165W        W46699   2.644  12.701   0.163 -0.3261 -0.0266 -0.1171
27166W        W46700  15.014   2.644  13.533  0.0659  0.0339 -0.2809
27167W        W46701  11.905  10.244  14.165 -0.0289  0.2384  0.1207
27168W        W46702  17.531   8.021  11.719 -0.3669 -0.3499  0.0639
27169W        W46703  12.693  11.543   2.276  0.1126 -0.0270  0.0377
27170W        W46704  12.379   2.951   0.904  0.2951 -0.0603  0.0642
27171W        W46705  16.551   5.852  12.640 -0.0631  0.0771 -0.1607
27172W        W46706  13.617  13.929  14.142  0.0155 -0.0681 -0.1147
27173W        W46707   6.968  18.840  11.696 -0.0233  0.0166 -0.0230
27174W        W46708  12.175  11.018   3.905  0.0233  0.1260  0.1577
27175W        W46709  11.138  16.350   1.423  0.2017 -0.0486 -0.1093
27176W        W46710  18.448   6.726  10.363  0.1925  0.1343  0.0825
27177W        W46711   0.688  16.960   1.408  0.3131  0.3313  0.0388
27178W        W46712  10.176   6.372  11.051 -0.0432 -0.1458 -0.0615
27179W        W46713   9.210  14.595   2.278 -0.1120  0.2478 -0.1487
27180W        W46714  11.160   4.912  10.930  0.1798  0.2071 -0.0419
27181W        W46715   8.390   7.314   0.472 -0.2264  0.0852 -0.0928
27182W        W46716  10.644   1.194  13.755  0.1321  0.0169 -0.0436
27183W        W46717  14.043  12.902  11.456  0.1099 -0.0153 -0.0819
27184W        W46718  16.251   1.045   3.145 -0.1640 -0.0045 -0.2825
27185W        W46719  18.915  11.340  14.550 -0.3214 -0.5570  0.3820
27186W        W46720  11.314   3.678   0.049 -0.0572  0.0171  0.2645
27187W        W46721   3.635  15.159  10.202 -0.2787  0.0415 -0.0742
27188W        W46722   3.093  12.099  11.543  0.2399  0.4252 -0.0787
27189W        W46723  12.759   7.979   4.814  0.1263  0.2794  0.1437
27190W        W46724   9.213  15.463   2.835 -0.2658  0.0080 -0.2179
27191W        W46725   9.883   1.075   1.274  0.3166  0.0827  0.0272
27192W        W46726  12.111  14.928   2.376 -0.0348 -0.2116 -0.2342
27193W        W46727   6.094  13.242   3.952 -0.1647  0.1264 -0.0735
27194W        W46728  16.057   2.924   2.404 -0.0731 -0.1218 -0.0373
27195W        W46729  18.136  15.321   3.287 -0.0830 -0.0490  0.1524
27196W        W46730  15.516  10.900   3.677  0.0493  0.0569  0.0656
27197W        W46731   2.311  17.690   3.445 -0.0339 -0.0728  0.0895
27198W        W46732   4.126  18.109   0.572  0.1891  0.1614 -0.0861
27199W        W46733   2.777   6.638  14.722 -0.1004  0.1574  0.1360
27200W        W46734   7.935   2.046   2.550  0.0848 -0.0653  0.2667
27201W        W46735   9.466   9.836  11.638  0.1600  0.4127  0.0865
27202W        W46736   9.710  14.396  13.398 -0.3260 -0.1158  0.2537
27203W        W46737   4.783  12.369  13.539  0.0092 -0.0558  0.1821
27204W        W46738  10.502   5.577  10.976 -0.0429 -0.0065  0.1833
27205W        W46739   1.470   8.948  11.063  0.1360 -0.0139  0.0472
27206W        W46740   8.237   3.443   5.563  0.4111  0.1986  0.2188
27207W        W46741   6.153   0.823   0.102  0.1419 -0.0897 -0.1264
27208W        W46742   5.138   6.366   9.398 -0.0280  0.1322  0.0814
27209W        W46743  17.375  11.149  12.484 -0.2381 -0.0853 -0.1306
27210W        W46744  18.591  13.167   2.596 -0.2727  0.2018  0.0776
27211W        W46745   6.980  17.060   0.682 -0.1090  0.1611  0.2849
27212W        W46746  17.151  17.309  12.195 -0.1108 -0.0651 -0.0848
27213W        W46747   5.356  12.602   3.773 -0.0174  0.0930 -0.0027
27214W        W46748  13.510  17.512   3.454  0.3637 -0.1135 -0.0352
27215W        W46749   7.540  18.625  13.830  0.1304  0.0023  0.4325
27216W        W46750   5.942  15.438   0.985 -0.1322 -0.2250 -0.1057
27217W        W46751  16.093  11.238  14.667 -0.2529  0.1307  0.1638
27218W        W46752   7.460   6.166  14.549 -0.1623 -0.0167 -0.1675
27219W        W46753  13.196  18.019   3.704  0.1896 -0.2059  0.0600
27220W        W46754  14.207   4.980   2.408 -0.1107 -0.1918 -0.4569
27221W        W46755  17.603  12.829  10.981  0.1210  0.1806  0.0434
27222W        W46756  18.749  12.444   0.586  0.0521 -0.0895 -0.0636
27223W        W46757  15.392   5.180  13.377  0.2975  0.3456  0.1084
27224W        W46758  12.817  16.960   2.832 -0.0824 -0.0824  0.0618
27225W        W46759   4.384   3.105   0.996 -0.0139  0.2022 -0.0002
27226W        W46760   2.566  10.408   1.725 -0.0367 -0.3456 -0.3914
27227W        W46761   3.347   1.112  11.420  0.0712  0.2032  0.1296
27228W        W46762   9.799  12.409   3.088 -0.0265  0.3190  0.0730
27229W        W46763  14.198   5.961   9.694  0.1235  0.0960  0.0927
27230W        W46764  15.015  18.592  13.281  0.1526 -0.1690  0.1508
27231W        W46765   9.224   8.721  11.516 -0.2240  0.2154 -0.1431
27232W        W46766  15.048  17.334   0.779 -0.0878  0.0646 -0.1289
27233W        W46767  17.561  11.754   3.628 -0.2558 -0.1054  0.1874
27234W        W46768  18.104  14.126   1.603  0.2336  0.2775  0.1088
27235W        W46769   6.535   8.887   3.542 -0.0269 -0.0372  0.4016
27236W        W46770   8.977   9.743  13.004  0.0802  0.1194  0.2112
27237W        W46771   4.361  15.500   1.419 -0.1455 -0.0396  0.2684
27238W        W46772  10.141   3.640  12.451 -0.0663  0.2680 -0.3048
27239W        W46773   9.065  11.606   2.650  0.0872  0.1872 -0.1582
27240W        W46774   9.652  10.868   2.495  0.0166  0.3056  0.1047
27241W        W46775  16.321   6.956   0.843  0.1780 -0.1007  0.3201
27242W        W46776  14.914   9.515   5.330  0.1343  0.1986 -0.1338
27243W        W46777   8.632   3.037  13.967  0.0998 -0.1048  0.3496
27244W        W46778   3.796  16.229  13.401 -0.1901 -0.1429 -0.1406
27245W        W46779  15.274  11.834   4.045  0.2377 -0.1494  0.3535
27246W        W46780   1.851   7.659   3.082 -0.0090  0.0481 -0.0833
27247W        W46781  18.593   5.396  11.016  0.1474 -0.0391 -0.1242
27248W        W46782  16.509   3.476  10.598  0.4350 -0.0421 -0.1198
27249W        W46783  17.895   9.338  13.211  0.0252 -0.3098 -0.1200
27250W        W46784  14.883  15.297  14.612  0.1016 -0.1121  0.2289
27251W        W46785  17.343   1.275  13.260  0.0223 -0.0420 -0.2740
27252W        W46786   1.315  10.852  11.657  0.1360 -0.3783  0.2854
27253W        W46787   6.917  14.187  10.212 -0.3900 -0.1451  0.0730
27254W        W46788   3.601   0.958   3.730  0.1378  0.1091  0.0850
27255W        W46789  11.851   2.855  13.460 -0.0234 -0.0795  0.0582
27256W        W46790  10.303  12.646   1.551  0.1175  0.0293  0.1588
27257W        W46791   7.609   2.604  11.294 -0.1507  0.1202 -0.0079
27258W        W46792   2.455   0.569   2.075  0.0478 -0.0547 -0.3730
27259W        W46793   3.925   0.252   1.548 -0.0398 -0.4198 -0.0707
27260W        W46794  11.562   9.711  12.579  0.0285 -0.2171  0.2010
27261W        W46795   6.988   0.243   4.117  0.1846  0.0396  0.0787
27262W        W46796   8.417  18.286   9.995  0.1108 -0.0452  0.0921
27263W        W46797   8.663   9.950   4.364 -0.0705  0.1241  0.0602
27264W        W46798   1.416   0.759  13.727 -0.0393  0.3336 -0.0046
27265W        W46799  15.976   3.721  13.418 -0.1115 -0.0963 -0.3136
27266W        W46800   5.939   7.966   1.226 -0.1582 -0.2326 -0.1500
27267W        W46801  16.050   3.862   4.068  0.1135 -0.2392 -0.1596
27268W        W46802  15.541  13.248   2.609 -0.1655  0.1644  0.4396
27269W        W46803  16.075   5.648  12.732 -0.3136  0.0563 -0.3063
27270W        W46804  19.119   6.215   1.791 -0.0342  0.0600 -0.0258
27271W        W46805  11.756  14.206   0.698  0.1273  0.3978  0.1131
27272W        W46806   6.417   2.505   0.666 -0.0995  0.1229 -0.0495
27273W        W46807  17.493   5.482  11.143  0.3254  0.1735  0.2900
27274W        W46808  12.251   8.045  10.810  0.0755 -0.2927 -0.0141
27275W        W46809   7.349  16.973  12.134 -0.0677 -0.0604 -0.1226
27276W        W46810   3.271  10.915   1.396 -0.2032 -0.1080  0.3093
27277W        W46811   5.181   8.002  13.073 -0.2197  0.4420 -0.0507
27278W        W46812  17.855   1.664  12.580  0.0671 -0.5374  0.0708
27279W        W46813   4.905   7.120  13.891  0.1150  0.2159 -0.0124
27280W        W46814   1.823   9.394  12.501 -0.1213  0.0043  0.0632
27281W        W46815  16.487   7.155  12.920 -0.0614 -0.4423 -0.0362
27282W        W46816  11.005  10.219  11.907  0.1045  0.0995  0.1291
27283W        W46817   2.104  15.968   0.958 -0.1241 -0.0253  0.0834
27284W        W46818  14.212   6.659   0.791 -0.1259  0.2023  0.0595
27285W        W46819  18.216  16.710   4.396  0.0487  0.0696  0.1958
27286W        W46820  18.537   0.956   3.727 -0.0689 -0.2420 -0.0868
27287W        W46821   1.948   8.700   1.235 -0.0155  0.3688 -0.0148
27288W        W46822   9.929  12.550  11.489 -0.1688 -0.2024 -0.1050
27289W        W46823   7.519   9.107   4.760 -0.1085  0.1101  0.0796
27290W        W46824   7.535   3.962  11.329 -0.0075  0.0713 -0.2389
27291W        W46825   7.400  16.553  12.306 -0.1821 -0.0537  0.2682
27292W        W46826   5.349   8.496  11.103  0.1992  0.0797 -0.2400
27293W        W46827   5.592  12.134   1.549 -0.4263 -0.0126  0.0782
27294W        W46828  14.259  11.563   0.351  0.0558 -0.0512 -0.1236
27295W        W46829   0.704  17.611  10.744 -0.0728  0.0328 -0.0411
27296W        W46830   7.848  12.047  14.561 -0.2237  0.1671 -0.0987
27297W        W46831   8.681   7.859  11.490  0.3393  0.1318  0.3059
27298W        W46832   1.349  16.489  11.012 -0.0460 -0.0280 -0.0611
27299W        W46833  16.734   9.616   1.312  0.0870 -0.0927 -0.0725
27300W        W46834  10.132  13.004   1.180  0.0836  0.2674 -0.0078
27301W        W46835  16.647   3.982  11.965  0.2209 -0.1925 -0.1032
27302W        W46836   3.621   5.518  13.938 -0.0770  0.3592 -0.1141
27303W        W46837   1.776   1.846   2.883 -0.0523  0.0301  0.0614
27304W        W46838   6.243   8.758  13.202  0.1708 -0.2130 -0.0464
27305W        W46839  11.002   4.605   2.379 -0.1992 -0.0955  0.3644
27306W        W46840   3.052   7.490  11.842  0.2712 -0.3290  0.2001
27307W        W46841  15.057  10.347  11.894 -0.0094 -0.2932  0.0595
27308W        W46842   8.639   9.843  10.925 -0.1734 -0.0392 -0.0126
27309W        W46843   9.116  12.791   0.773  0.2927 -0.0297 -0.1910
27310W        W46844   3.802  12.603   1.850 -0.0670 -0.1562  0.1654
27311W        W46845  17.190   6.992   3.727 -0.2237 -0.2473  0.0382
27312W        W46846  14.580  12.631  12.673 -0.1380 -0.1635  0.1000
27313W        W46847   5.404   3.667   1.154 -0.1860 -0.2342 -0.3215
27314W        W46848  16.522   3.263   0.053 -0.0251 -0.0828  0.1777
27315W        W46849   6.510  15.443   3.399  0.2067  0.0624  0.2962
27316W        W46850   7.409   8.554   4.065 -0.0002 -0.1199  0.0408
27317W        W46851  13.443  12.093  12.405  0.0391 -0.2326 -0.3174
27318W        W46852  14.161   3.891  12.092  0.3507 -0.2239 -0.2311
27319W        W46853  16.205   9.503  13.081  0.2278 -0.4514 -0.1662
27320W        W46854   2.450  13.549   5.130  0.0541 -0.0212  0.1420
27321W        W46855   3.032   3.035   3.526 -0.0311 -0.0366 -0.2117
27322W        W46856  11.359  12.644   2.634  0.3725 -0.1305 -0.2752
27323W        W46857  12.457  14.733  11.169  0.2222 -0.2867 -0.3230
27324W        W46858  10.936   0.761   2.340 -0.0995 -0.2227  0.0695
27325W        W46859  14.612   5.493  13.729 -0.2571  0.1641  0.0365
27326W        W46860  12.569  18.901   1.884 -0.1450 -0.1495  0.1377
27327W        W46861   9.165  10.760   0.172 -0.3471 -0.2851  0.0661
27328W        W46862  15.103   7.983  13.473 -0.0901  0.4588  0.3393
27329W        W46863  10.040   2.070  12.943  0.3016  0.2522  0.0486
27330W        W46864   8.513  18.210   1.655  0.1058 -0.1176 -0.2260
27331W        W46865   5.725  17.642   3.128 -0.0782 -0.2613 -0.2051
27332W        W46866   3.678   1.750  10.938 -0.2532  0.0770 -0.1179
27333W        W46867  13.826   5.379   1.616  0.1828  0.2794  0.1887
27334W        W46868   0.403   4.421  14.671  0.2539 -0.0230 -0.0990
27335W        W46869   4.584  14.881  12.659  0.2247 -0.5094 -0.0185
27336W        W46870   3.473   6.512  11.527  0.0021  0.0072  0.0079
27337W        W46871   4.834   7.134   3.114 -0.3520 -0.0262 -0.3230
27338W        W46872   1.036  12.857  10.956  0.0553  0.0582 -0.3509
27339W        W46873   2.391   6.511   0.164 -0.1885  0.2396  0.0121
27340W        W46874  10.364  16.360  12.748  0.0561 -0.0628  0.1577
27341W        W46875   7.237  16.177  13.480  0.2646 -0.1648 -0.1144
27342W        W46876  18.577   5.528   3.663 -0.3477  0.0155  0.1994
27343W        W46877  15.135   4.135   1.552  0.0779 -0.0763 -0.2180
27344W        W46878   5.876   9.096   4.130 -0.1295 -0.1563 -0.3063
27345W        W46879   3.281   5.251   2.574 -0.2047  0.0147 -0.0088
27346W        W46880   0.491   7.764   4.236  0.2464  0.0718  0.0649
27347W        W46881   3.027   3.160  12.145  0.1016  0.1791 -0.0845
27348W        W46882  16.827   6.530   3.013 -0.1818  0.0929  0.1304
27349W        W46883   4.844   9.470  14.805 -0.0719 -0.0272  0.1115
27350W        W46884  17.940  18.346   4.291  0.1090 -0.1592  0.2677
27351W        W46885   2.422   9.706  13.645 -0.3769 -0.0407  0.0654
27352W        W46886  10.230  10.830  13.068 -0.1822 -0.0792 -0.1188
27353W        W46887  16.582  18.666   3.123 -0.0471  0.0083  0.2369
27354W        W46888   7.859  13.822   0.272 -0.1367 -0.1305 -0.1728
27355W        W46889   6.158  12.347   1.309 -0.1643 -0.2959  0.0847
27356W        W46890   4.846   7.635  10.348 -0.1393 -0.1299  0.0143
27357W        W46891   7.327   8.596   5.042 -0.3142 -0.1318  0.0398
27358W        W46892   1.492  11.790  13.191 -0.1274  0.3085 -0.0449
27359W        W46893  18.012  13.762   2.638 -0.0162 -0.1048  0.1033
27360W        W46894  11.235   7.029  12.604 -0.2052 -0.0450 -0.1211
27361W        W46895   4.617  11.455   1.478  0.0325  0.0170  0.2550
27362W        W46896   9.479  15.089   3.218  0.1727 -0.3364 -0.0158
27363W        W46897  14.173  12.308   2.899 -0.2103 -0.0758  0.0204
27364W        W46898   6.003  15.623   2.468 -0.3013 -0.1676 -0.1345
27365W        W46899  15.306   6.105   2.122  0.1502  0.1629 -0.0307
27366W        W46900  16.889  11.454   4.052  0.0232 -0.3370  0.1726
27367W        W46901  15.680  11.943  13.623  0.0071  0.0726  0.4289
27368W        W46902   7.724   5.187  11.718  0.0431  0.0718 -0.0975
27369W        W46903  16.586   0.720   2.831 -0.1937  0.0045  0.1919
27370W        W46904   7.153  12.367  13.453 -0.3961 -0.1378 -0.2409
27371W        W46905   9.046   1.638  12.404 -0.0889 -0.0495 -0.0434
27372W        W46906   1.783  14.712  13.601  0.3386  0.2461 -0.0471
27373W        W46907   7.053   5.738  10.215 -0.1175 -0.3654 -0.1189
27374W        W46908  17.003   3.698  10.884  0.0092  0.0740  0.1624
27375W        W46909   8.763   3.601  13.660 -0.0081 -0.1264 -0.3041
27376W        W46910  11.506  13.218  13.973 -0.4411  0.2118 -0.4249
27377W        W46911  12.098   6.325  11.547 -0.0254  0.2845 -0.1648
27378W        W46912  18.300  15.471   4.927 -0.0724 -0.0492  0.2710
27379W        W46913  11.402   3.426  12.869  0.0368  0.2807  0.1505
27380W        W46914   3.653  11.623  11.584 -0.1417  0.3014  0.2007
27381W        W46915   2.784  12.147   0.132 -0.2779  0.4416  0.1488
27382W        W46916   4.438   6.112  12.165  0.2113  0.2789 -0.0017
27383W        W46917  18.756   5.748  12.165  0.0714  0.2363 -0.2302
27384W        W46918   4.047  11.098  12.725  0.1330 -0.1960 -0.1754
27385W        W46919   7.083  11.668  14.195 -0.0514  0.0674  0.1640
27386W        W46920   8.292   0.310  13.035 -0.0850 -0.0602  0.0846
27387W        W46921  14.536  18.527  13.036 -0.2638 -0.3424  0.0946
27388W        W46922   2.241   2.568  12.470 -0.0956  0.1956  0.1772
27389W        W46923   9.881  14.617   3.826  0.1124 -0.0702 -0.0212
27390W        W46924   9.958   1.126  12.131 -0.4782  0.2731  0.0380
27391W        W46925   5.466   8.505   0.408 -0.1101  0.0952  0.2054
27392W        W46926   2.399   6.978   2.666 -0.0605  0.2711  0.0381
27393W        W46927   4.308   0.357  13.968  0.1167  0.3363 -0.0374
27394W        W46928   7.318  16.662   0.755  0.0956 -0.0540 -0.1332
27395W        W46929   4.399  16.379  11.157  0.1549 -0.1311 -0.0028
27396W        W46930   5.237  16.963  14.224 -0.0741 -0.1933 -0.0385
27397W        W46931   2.189   0.227   2.970 -0.0709 -0.0551  0.0400
27398W        W46932  13.518  18.592  10.830 -0.1473  0.0087 -0.0962
27399W        W46933  10.545   0.671   1.573 -0.2613 -0.0497  0.3098
27400W        W46934  16.744  16.561   1.506  0.0579 -0.4726 -0.0730
27401W        W46935  13.379  11.828   3.850  0.0684  0.2058  0.1098
27402W        W46936  12.637  16.579   4.327  0.1721  0.0786  0.1529
27403W        W46937  16.027   2.766   2.873 -0.0464  0.1447  0.0625
27404W        W46938   1.389   2.950   2.858  0.0580 -0.1814  0.2783
27405W        W46939  14.001   1.398  10.886  0.1714 -0.0521 -0.1652
27406W        W46940  18.635  13.008   3.909  0.0067 -0.1279 -0.0897
27407W        W46941   0.432  18.827   3.714  0.0133  0.0195  0.2118
27408W        W46942  17.851   1.203  12.537  0.2438 -0.4007 -0.1692
27409W        W46943   9.635  18.097   1.644 -0.0055 -0.1693 -0.1215
27410W        W46944   9.298   6.003   1.101  0.3903  0.0417  0.2763
27411W        W46945   1.425   8.699  12.256 -0.1879 -0.2346  0.2865
27412W        W46946  13.702   6.687   2.570  0.0635  0.1263  0.2279
27413W        W46947   8.685  12.396   1.511  0.0321 -0.2008 -0.0316
27414W        W46948  14.916  16.674   4.031 -0.0978 -0.1008  0.0919
27415W        W46949   4.357   0.722   0.417  0.0465 -0.2679 -0.0354
27416W        W46950   8.621  18.343   0.713 -0.0826 -0.1244 -0.0484
27417W        W46951   3.350   2.811   0.352 -0.2943  0.0458 -0.2383
27418W        W46952   0.253   6.767  10.561 -0.1641  0.1114  0.0652
27419W        W46953  12.188  12.608   3.254 -0.1523 -0.1501 -0.3063
27420W        W46954  10.601   9.159   3.230  0.0631  0.2804  0.2924
27421W        W46955   6.874  12.762  11.225  0.0700 -0.0795  0.0602
27422W        W46956   4.011   8.266  11.160 -0.0752 -0.0524 -0.1154
27423W        W46957  12.826  10.361  14.328  0.2569  0.1921  0.2315
27424W        W46958  17.666   6.110   1.685  0.4063 -0.1199 -0.0695
27425W        W46959  10.929   1.147   5.346  0.2092  0.1878  0.1176
27426W        W46960  16.860   4.765   0.776 -0.0894 -0.3057  0.1790
27427W        W46961   2.348   0.097  11.820 -0.1240  0.1451 -0.1851
27428W        W46962   5.201  12.467   0.342 -0.1328  0.0451  0.1877
27429W        W46963  12.669   5.040   1.058 -0.2895  0.0158 -0.2770
27430W        W46964  14.639  18.296   4.604 -0.1794 -0.1519 -0.0574
27431W        W46965   5.820   8.079  12.686  0.2118 -0.3181 -0.0978
27432W        W46966   3.058  15.995   4.262  0.1960 -0.0796 -0.0653
27433W        W46967   3.015  11.951   2.273  0.0674 -0.1184  0.0059
27434W        W46968   2.637  12.296  12.359 -0.1266 -0.1471  0.0914
27435W        W46969   6.277  17.001   2.521  0.2382 -0.1351  0.0425
27436W        W46970   7.183  10.751  10.666 -0.0667 -0.1934 -0.1305
27437W        W46971   6.804  11.422   0.466 -0.0301  0.2914  0.0070
27438W        W46972  17.787  17.851   4.231 -0.1755  0.0812  0.0217
27439W        W46973   0.467   7.528   2.380 -0.1191 -0.3034 -0.1427
27440W        W46974  11.151  18.208   1.561 -0.2419 -0.0412  0.2346
27441W        W46975  14.895  15.947   0.747 -0.0893 -0.0795  0.1542
27442W        W46976  13.197  16.692   1.281  0.1034  0.0074  0.2003
27443W        W46977  15.541  17.206  14.380 -0.0306  0.0737  0.1258
27444W        W46978   0.033   6.659  12.383 -0.2096 -0.0855  0.0357
27445W        W46979   0.787  11.454   1.708  0.0892 -0.2469 -0.3126
27446W        W46980  15.879  15.674   3.750 -0.0266 -0.0836  0.0650
27447W        W46981  13.023  11.113  12.420  0.0319  0.0961  0.0581
27448W        W46982   1.938   1.212  12.601  0.0554  0.0504 -0.1717
27449W        W46983   4.250  15.107   1.094 -0.3168 -0.2759 -0.2189
27450W        W46984   2.862  17.665   3.392 -0.4280  0.2204 -0.2164
27451W        W46985   2.458   6.585  13.425 -0.3151 -0.1357  0.0376
27452W        W46986   0.240   5.469   3.841 -0.2341  0.0165  0.1657
27453W        W46987   3.138   5.149  12.918  0.1961  0.0518  0.0458
27454W        W46988  13.245  15.936   5.502 -0.2753  0.3085  0.1421
27455W        W46989  13.836   5.539  13.747 -0.1130  0.1179 -0.0549
27456W        W46990   3.623   8.133   1.780 -0.0412 -0.0391 -0.0377
27457W        W46991   7.870   1.292   2.118  0.1658 -0.0037  0.1217
27458W        W46992  10.818   5.070   3.532  0.2530 -0.2026  0.1174
27459W        W46993   0.122  18.146  13.275 -0.0433  0.1943 -0.0808
27460W        W46994  13.190  14.531   0.672 -0.0890 -0.0836  0.1428
27461W        W46995  11.760  18.753  13.435 -0.3240 -0.0809  0.1442
27462W        W46996   7.385  14.443   3.126 -0.0656 -0.1117  0.3289
27463W        W46997  17.021  10.020  11.000 -0.0706  0.1637  0.0412
27464W        W46998  13.290   1.751  11.713  0.0840 -0.0901  0.3947
27465W        W46999   7.458  16.094  13.048  0.2736 -0.0913  0.0556
27466W        W47000   7.362  13.215   3.777  0.0035 -0.1014  0.0968
27467W        W47001  17.870  17.037   0.439 -0.0342 -0.1581  0.0434
27468W        W47002   5.657  17.923   3.632 -0.1485 -0.0864 -0.0358
27469W        W47003   4.907  13.833   0.114 -0.1242 -0.0833  0.1976
27470W        W47004  11.489   5.960  12.151 -0.0555 -0.0967  0.1061
27471W        W47005   0.053   7.025   1.925  0.2462  0.2218 -0.0698
27472W        W47006  19.083   3.163   3.273  0.1272 -0.1368  0.2361
27473W        W47007   1.915   3.288  11.240 -0.1852 -0.0104  0.1723
27474W        W47008   1.792  10.250  11.269  0.1929 -0.0143  0.1746
27475W        W47009   1.689   8.580  10.747 -0.1088 -0.0130  0.2286
27476W        W47010   4.273   8.632   1.582  0.2550 -0.0919  0.2670
27477W        W47011  12.670   2.006   3.976  0.2947 -0.1424 -0.2956
27478W        W47012   5.814  13.930   2.789  0.0783 -0.1452 -0.2255
27479W        W47013   7.516   7.019   3.628  0.0650  0.1617 -0.0308
27480W        W47014  13.743   4.723  10.716 -0.0784 -0.0055  0.0296
27481W        W47015   4.909   2.442  12.994 -0.0172 -0.0841  0.2065
27482W        W47016  18.417   2.225   3.741 -0.0716  0.2517  0.0799
27483W        W47017   7.347  15.649   2.124 -0.0278  0.0130 -0.1976
27484W        W47018  11.326  13.180   1.760 -0.2769 -0.3545 -0.1733
27485W        W47019  10.402   5.555  10.023  0.0638  0.1415  0.1105
27486W        W47020   0.028  10.019   2.704  0.2265 -0.3315  0.1951
27487W        W47021   6.420   0.971  10.805 -0.1333 -0.1453  0.0471
27488W        W47022   9.544   0.174  14.119 -0.1382  0.0187  0.0312
27489W        W47023  12.716  18.158   2.258 -0.1469 -0.0122 -0.2879
27490W        W47024   6.116   8.450  12.495  0.2782  0.1230 -0.3402
27491W        W47025   6.906  11.834  10.782 -0.0055 -0.1833  0.2778
27492W        W47026   0.744  12.754  11.669 -0.1965 -0.0239 -0.2455
27493W        W47027  10.634   0.352   3.565  0.2469  0.1711  0.0667
27494W        W47028  12.004   7.685  10.643 -0.3136  0.1392 -0.2350
27495W        W47029  14.507   3.136  10.110  0.0889  0.4772  0.0779
27496W        W47030   7.030   5.025  13.132  0.3901 -0.0126  0.0387
27497W        W47031   3.204   6.187   4.210  0.0538 -0.1374  0.1292
27498W        W47032   9.326  12.727  13.577 -0.1619  0.2506  0.3057
27499W        W47033  14.276   2.703  10.866 -0.4875  0.0607  0.0275
27500W        W47034   1.607   5.079   3.410  0.0410 -0.1638  0.1557
27501W        W47035  14.739   0.267  10.943 -0.0368  0.2591  0.0202
27502W        W47036   6.938   5.523  13.292 -0.1919 -0.0253  0.0747
27503W        W47037   1.524   7.969   2.804 -0.0536  0.3299  0.0534
27504W        W47038   0.902   4.688  10.400  0.0222 -0.0847 -0.0504
27505W        W47039  12.120   1.565   4.333  0.0626 -0.2983 -0.0554
27506W        W47040   2.905   6.189  10.373  0.1421 -0.5017  0.1278
27507W        W47041   7.411   4.169   2.712 -0.1324  0.1024  0.1696
27508W        W47042  13.652   5.676   3.880 -0.0102  0.1776  0.2304
27509W        W47043  11.647   1.261   2.478 -0.0411 -0.3372 -0.2551
27510W        W47044  11.052  15.798  13.627 -0.0475  0.0919  0.0060
27511W        W47045   8.457  15.287   3.366 -0.4407 -0.0012 -0.1133
27512W        W47046  15.124   4.797   3.873  0.0940  0.4087 -0.1617
27513W        W47047   9.329  15.712   1.003  0.2789 -0.0048 -0.0093
27514W        W47048  16.243  11.993  13.333  0.0893 -0.1124 -0.1097
27515W        W47049   8.495   4.170   1.099 -0.1747  0.0507 -0.0755
27516W        W47050  14.094  11.375   3.854  0.1004 -0.0610  0.4332
27517W        W47051  14.705   2.292  13.870 -0.0154  0.1750  0.2304
27518W        W47052   6.554   8.697   0.560 -0.2518 -0.0446 -0.0496
27519W        W47053   5.938  14.255  13.493 -0.0230  0.1745  0.2492
27520W        W47054  16.454  18.351   0.675  0.2927 -0.0183  0.2985
27521W        W47055   7.191   0.144  13.127  0.2426  0.1621  0.0617
27522W        W47056  14.854  10.525   0.512  0.1032  0.0481  0.0246
27523W        W47057   5.196  11.604  13.635  0.2115  0.2461 -0.1415
27524W        W47058  15.825  17.055   2.108  0.0243  0.1431  0.2131
27525W        W47059   7.170   0.872   3.493 -0.0908  0.0320 -0.2253
27526W        W47060  14.075  17.456  11.124  0.2111 -0.1783 -0.2456
27527W        W47061  11.366  15.424   0.629 -0.0804 -0.2926 -0.1430
27528W        W47062   6.468   1.865   3.163 -0.1799  0.0674 -0.1769
27529W        W47063  12.739   0.528   0.353  0.1037  0.3544  0.0547
27530W        W47064  11.059   1.951   3.480 -0.0376 -0.2630 -0.0563
27531W        W47065  12.185  15.860  14.496 -0.1197 -0.1764 -0.1590
27532W        W47066   4.383   5.957  11.160 -0.2848 -0.0534 -0.1845
27533W        W47067  14.530   9.934  10.354  0.3341 -0.2638  0.2758
27534W        W47068  12.530   6.444   3.243  0.0267  0.1784  0.0301
27535W        W47069   0.874  18.677  12.404  0.0364  0.0139  0.0051
27536W        W47070   0.966  13.565  12.238 -0.0742 -0.0010 -0.1063
27537W        W47071  13.703   3.741   1.713  0.2549 -0.0249  0.0406
27538W        W47072  15.361   9.336   0.728 -0.5777 -0.4210 -0.3492
27539W        W47073   2.065   7.727  11.457 -0.0815 -0.1224 -0.2706
27540W        W47074   4.070  12.742   1.214  0.1265  0.0516 -0.0042
27541W        W47075  15.652   3.412   3.720 -0.2914  0.2030 -0.1271
27542W        W47076   6.219  11.017  14.230  0.3063  0.0105  0.3471
27543W        W47077  14.464  14.076   0.197  0.1755  0.3294  0.3198
27544W        W47078   8.747  16.109  12.990 -0.2556  0.0705  0.0221
27545W        W47079  17.840  13.496   4.103  0.1131 -0.0013  0.1864
27546W        W47080  18.969  12.902   0.786  0.0899 -0.2855 -0.4336
27547W        W47081   2.377   6.484   1.442 -0.1186  0.3332 -0.0366
27548W        W47082  15.541  11.429  14.821  0.1267 -0.0532  0.1602
27549W        W47083  17.332   8.400  12.500  0.1070 -0.1376 -0.0441
27550W        W47084  10.129  11.415  11.570 -0.1634  0.2167 -0.0696
27551W        W47085   4.126   7.425  12.885 -0.2932  0.0158  0.0784
27552W        W47086  15.325  14.039   0.502  0.0244 -0.0588 -0.0000
27553W        W47087   6.588  15.802   4.203  0.0865  0.0086 -0.1480
27554W        W47088  11.994  14.676   1.933  0.2307  0.1062  0.1231
27555W        W47089   9.159  18.904   1.984  0.2155 -0.1821  0.2466
27556W        W47090   5.291   1.463  13.745 -0.2005  0.2918 -0.3203
27557W        W47091  17.624   0.516   2.867 -0.1043 -0.2161  0.1667
27558W        W47092   4.856   9.451  14.274  0.2464  0.4956  0.0741
27559W        W47093   7.290  13.104   3.304 -0.1330 -0.0176 -0.1876
27560W        W47094   8.279   8.118   4.163 -0.0176  0.1458 -0.1558
27561W        W47095  18.226  12.114  11.062 -0.2131  0.0707  0.0451
27562W        W47096  17.050   8.015  10.997  0.0050  0.0748  0.0350
27563W        W47097   6.557   7.174   1.678 -0.0998  0.0184  0.6307
27564W        W47098   8.336  18.679   1.696  0.2592  0.0362  0.1438
27565W        W47099   3.221   3.489   0.614 -0.3498  0.2799  0.0183
27566W        W47100   2.014  18.916  11.258 -0.0349 -0.1081 -0.0581
27567W        W47101  12.321   9.647   1.215  0.2528 -0.0449 -0.3191
27568W        W47102  13.515  10.890  13.822  0.1412 -0.1765 -0.1420
27569W        W47103   1.893  10.064  13.966 -0.0649 -0.2528 -0.3227
27570W        W47104   6.264   8.432   2.108 -0.2908  0.1799  0.2221
27571W        W47105   2.564  12.576   3.818  0.2733  0.1504 -0.2107
27572W        W47106   5.788  10.182   1.326  0.2469  0.1457 -0.1126
27573W        W47107  14.802  18.627   2.160  0.1135  0.0843 -0.1725
27574W        W47108  17.122   7.550   1.047  0.1729 -0.5298  0.0074
27575W        W47109  15.494  12.858   1.780 -0.1616 -0.0705  0.1126
27576W        W47110   8.300   9.118  12.444  0.0515  0.0428  0.0877
27577W        W47111   7.884   5.399  12.618  0.2582 -0.3606  0.1728
27578W        W47112   7.929  15.817  12.012  0.1119 -0.0044 -0.0617
27579W        W47113  12.070  13.919  10.682 -0.0717 -0.1115 -0.2380
27580W        W47114   6.434   3.253  11.659 -0.2296  0.1074  0.4136
27581W        W47115   3.574  10.218  10.369  0.2005  0.3133  0.1284
27582W        W47116  18.847  13.475   1.570  0.1533 -0.0669 -0.1150
27583W        W47117   0.918  12.941  14.102 -0.0029  0.1675 -0.1155
27584W        W47118  14.826  16.935   0.833 -0.2907 -0.1154  0.1899
27585W        W47119   3.084  17.689  12.561 -0.1895 -0.0480  0.2211
27586W        W47120  13.850  15.709  13.074  0.4255 -0.0592 -0.1528
27587W        W47121   5.541  10.719   2.737  0.0819  0.2277  0.4379
27588W        W47122  11.103   7.911  13.568  0.0324 -0.0004 -0.2638
27589W        W47123   4.510   7.961   3.300 -0.0314 -0.2985  0.4399
27590W        W47124   6.134   8.988  11.823 -0.1896 -0.4637 -0.0724
27591W        W47125  13.242  12.871   0.604  0.0228 -0.2153  0.1053
27592W        W47126   2.750  15.421   4.637 -0.1566 -0.2440 -0.0321
27593W        W47127   4.452  18.532   9.852  0.1469 -0.0399 -0.1149
27594W        W47128   2.046   0.810   0.336 -0.1368 -0.0067  0.0162
27595W        W47129  14.190  11.406  12.112 -0.0716 -0.0953 -0.0357
27596W        W47130  14.061  12.821  12.483 -0.1518 -0.1582  0.2273
27597W        W47131  13.513   3.046  11.261 -0.1187 -0.1705  0.3834
27598W        W47132   1.049  13.713   1.665  0.0937 -0.2504  0.0369
27599W        W47133  13.090  11.608   1.041  0.1015  0.1152 -0.1013
27600W        W47134  18.690   4.903   2.688  0.0490 -0.4586  0.1561
27601W        W47135   8.821   6.442   2.671  0.2405  0.1690 -0.1188
27602W        W47136   2.686  17.804  12.976  0.0565  0.2482 -0.4027
27603W        W47137  10.494  16.027  12.313  0.2775 -0.1568  0.1189
27604W        W47138   4.163  11.983   0.907 -0.1062  0.0903 -0.1050
27605W        W47139   6.698   9.689   1.246  0.0064 -0.2024  0.0872
27606W        W47140   8.974  16.109   1.909  0.0689 -0.0542  0.2921
27607W        W47141  14.736   1.072  10.903 -0.2669 -0.0647  0.1311
27608W        W47142  12.863  16.852   1.946 -0.2379  0.2250 -0.2787
27609W        W47143   1.955   0.882  11.330  0.3605  0.0189  0.3071
27610W        W47144   4.648  13.342   0.145  0.2265 -0.0065  0.1791
27611W        W47145  10.887  18.582  13.664 -0.0536  0.0949 -0.2288
27612W        W47146   1.224   8.923  13.331 -0.1668  0.1990 -0.1997
27613W        W47147   4.456  13.245  14.546 -0.1837  0.0835  0.1348
27614W        W47148  13.859   7.677  14.081 -0.1646  0.3294 -0.0297
27615W        W47149  13.200  14.094   1.869  0.2471  0.0223 -0.1344
27616W        W47150  16.990   1.064  13.707 -0.2706  0.0288  0.0983
27617W        W47151   7.330   9.298  13.465  0.1844  0.3071 -0.3897
27618W        W47152   6.234   4.378   1.632 -0.1445 -0.0384 -0.1450
27619W        W47153  12.655  16.803  11.486 -0.1375 -0.1432 -0.1534
27620W        W47154  15.200  17.293   5.433  0.0067 -0.0799 -0.1951
27621W        W47155  10.906   7.388  10.109 -0.1296  0.0802 -0.0285
27622W        W47156   7.435   1.135  10.973 -0.0869  0.1649 -0.0761
27623W        W47157   9.575   4.944   4.379  0.1003  0.0579 -0.1701
27624W        W47158  12.420  10.934   2.992  0.1842  0.2019 -0.2363
27625W        W47159   3.405   7.821  11.266 -0.2936  0.0730  0.3214
27626W        W47160   4.184  11.171   1.621  0.1348  0.4244 -0.2033
27627W        W47161  16.981  10.558   3.767 -0.0043  0.0412 -0.0394
27628W        W47162   5.506   6.001   2.851 -0.2333  0.0274  0.3552
27629W        W47163   6.830  11.960  13.596 -0.1670 -0.1525  0.0767
27630W        W47164   4.835  17.607   0.850 -0.0634  0.2066  0.3049
27631W        W47165   9.439   0.791   1.437 -0.2752  0.0406  0.1011
27632W        W47166  14.023   8.072  12.470  0.0251  0.0204 -0.3514
27633W        W47167  13.003  12.994   2.867 -0.1016 -0.1905 -0.1471
27634W        W47168   0.083   0.462   0.648  0.1707 -0.0007  0.0143
27635W        W47169   9.959   3.084  10.949 -0.2851  0.0969  0.0444
27636W        W47170  17.557  17.287   2.607  0.0109  0.1554  0.1366
27637W        W47171  12.588   1.687   4.315  0.1674 -0.1459 -0.0263
27638W        W47172  18.125  11.477  12.769  0.0159 -0.2049  0.2004
27639W        W47173  12.751  13.832   3.296  0.0978 -0.3227  0.1439
27640W        W47174  15.093  17.020  12.651  0.1126 -0.1687  0.0139
27641W        W47175   4.289   4.162  14.048 -0.2890  0.0770 -0.1130
27642W        W47176   6.986  11.616  11.991 -0.0233  0.1907 -0.5529
27643W        W47177  11.002  15.745  12.441  0.0572 -0.1431 -0.1820
27644W        W47178   1.230  14.329  11.172  0.0073  0.1022 -0.0221
27645W        W47179   0.129  12.552   3.171  0.0056  0.0950  0.1758
27646W        W47180  14.768   8.808   1.771  0.0661 -0.1103 -0.0583
27647W        W47181   2.346  13.586   3.528 -0.0203 -0.2573  0.0778
27648W        W47182   1.178   8.300   2.978  0.0903  0.3069  0.1497
27649W        W47183   4.110   9.013   1.962  0.0536 -0.1815  0.0868
27650W        W47184   6.074  18.863  14.711 -0.2866 -0.1263  0.0005
27651W        W47185  17.026   6.066  12.577  0.1462 -0.1556 -0.0642
27652W        W47186   8.193   7.670   1.774  0.0147 -0.1014  0.2730
27653W        W47187   9.191   3.532   1.027  0.0973 -0.0225  0.1216
27654W        W47188   0.169   2.646  11.205  0.1388  0.0346  0.3715
27655W        W47189   7.299   9.926  12.286  0.0494  0.0471 -0.1548
27656W        W47190  12.889   5.606   0.934  0.0310  0.1581 -0.0356
27657W        W47191   1.159   6.423  11.682  0.0083 -0.0533  0.1326
27658W        W47192  12.735  12.187  12.062  0.1200 -0.2012 -0.0040
27659W        W47193  11.934   3.371   0.284 -0.0759 -0.1138 -0.0056
27660W        W47194  15.957  10.459  10.615  0.1036 -0.1098 -0.2073
27661W        W47195  14.516  13.290  11.319  0.0671 -0.3947  0.0592
27662W        W47196   0.716   0.000   0.092  0.0319 -0.3488 -0.0001
27663W        W47197  18.386  12.669   2.635  0.2658 -0.2023 -0.4658
27664W        W47198  13.733   7.120  14.051 -0.0289 -0.0770  0.3705
27665W        W47199   9.362  14.962  14.307  0.0135 -0.2364 -0.0850
27666W        W47200  12.640   0.227   1.529 -0.0139 -0.0595 -0.2159
27667W        W47201  17.206  18.188   3.657  0.1412 -0.1477  0.3672
27668W        W47202   1.139   9.537  14.212 -0.1905  0.1497  0.2000
27669W        W47203   9.073   6.653   3.910 -0.0986 -0.1085 -0.1407
27670W        W47204  10.141  16.487  14.028 -0.2853  0.2371 -0.0567
27671W        W47205  13.583   0.297   4.280 -0.3856 -0.2706  0.1000
27672W        W47206   4.415   9.994  13.137 -0.0321 -0.1551 -0.0100
27673W        W47207   1.213  11.121   2.001  0.1648  0.3616  0.1140
27674W        W47208  13.533  18.087   9.943  0.0121 -0.0923  0.2776
27675W        W47209  10.223   3.235   1.365  0.2399 -0.4940  0.1462
27676W        W47210  17.717  18.206  11.673 -0.0685 -0.4583  0.0886
27677W        W47211   4.405  16.276   0.873  0.0025  0.1376  0.1945
27678W        W47212   5.784  18.241  10.632  0.2193  0.0582 -0.3314
27679W        W47213  17.073  16.812   3.762  0.1369 -0.1468  0.0863
27680W        W47214   5.240   2.500  10.025 -0.0932 -0.4066 -0.1202
27681W        W47215   0.721  10.612   4.055 -0.3736 -0.1307  0.0357
27682W        W47216  15.742   5.540   3.885  0.2836  0.2268  0.0285
27683W        W47217  12.229  18.712  13.898 -0.0216 -0.3724  0.0342
27684W        W47218   1.460   1.209  12.428 -0.1651  0.0297 -0.2147
27685W        W47219  18.638   7.089   2.062 -0.1077  0.1048 -0.0991
27686W        W47220   9.263   1.043  14.809  0.0774  0.0024 -0.0992
27687W        W47221  17.180  17.907   3.232 -0.0295  0.0008  0.2661
27688W        W47222   5.310   6.882  14.057  0.1358 -0.0743  0.0943
27689W        W47223  13.107   1.475   1.721 -0.3076 -0.1501  0.0879
27690W        W47224  16.143  15.049  11.128 -0.0540 -0.0108 -0.0246
27691W        W47225   1.709  15.133   1.921  0.0837  0.0913 -0.1197
27692W        W47226   3.730   1.307  14.660 -0.2588 -0.2226 -0.1887
27693W        W47227   8.387   9.127  13.743 -0.2147  0.1270 -0.0010
27694W        W47228   9.421   4.692  13.758  0.1639  0.2443  0.1917
27695W        W47229  15.730  11.742   2.678  0.0654 -0.1489  0.0344
27696W        W47230   9.511  14.488   2.790 -0.2212  0.1473  0.0834
27697W        W47231   1.396  15.107   4.040 -0.0791  0.2704  0.0459
27698W        W47232   6.123  13.535  14.810 -0.0290 -0.1363 -0.2161
27699W        W47233  18.492   2.588   0.811  0.2735  0.3149 -0.2681
27700W        W47234   5.285   1.778  12.066  0.1150  0.2545  0.0818
27701W        W47235  13.632  18.603   3.086  0.1060 -0.0214 -0.0370
27702W        W47236   6.885  10.458   5.315  0.0452 -0.0682  0.2366
27703W        W47237  12.972   9.141   2.954 -0.2898 -0.0367  0.2360
27704W        W47238   4.665   7.505  10.846 -0.1328 -0.0970 -0.1499
27705W        W47239   7.024  14.322  12.591  0.2322  0.1987 -0.0672
27706W        W47240   2.917   7.172  11.472  0.0442 -0.1624  0.2954
27707W        W47241   6.206  16.134   2.810 -0.0102  0.1644  0.3118
27708W        W47242   6.304   1.064  10.341  0.0125 -0.2165 -0.0362
27709W        W47243  16.879  17.339   0.730  0.1022 -0.0814  0.0121
27710W        W47244  13.339   3.707   1.401 -0.2582  0.1934  0.0813
27711W        W47245  15.673  11.520   1.181 -0.0958 -0.0591  0.3512
27712W        W47246   9.296   3.195  12.550  0.1678 -0.0807  0.0889
27713W        W47247  11.568   5.217   1.913  0.2601  0.2712 -0.0208
27714W        W47248  12.831  16.635  12.795 -0.2744  0.2537 -0.1532
27715W        W47249   8.612   3.125  14.503  0.1285 -0.0018  0.1069
27716W        W47250   1.061   3.040  11.947 -0.1977 -0.3207  0.1494
27717W        W47251  15.086   2.670   1.060 -0.1283 -0.0695 -0.0775
27718W        W47252   6.621   9.645   0.361  0.0674  0.1050  0.0691
27719W        W47253   8.760   2.613   0.655  0.1876 -0.1561  0.1099
27720W        W47254   0.685   4.315  10.829 -0.0936  0.1551  0.1604
27721W        W47255  13.756   2.905   1.237  0.0047  0.0177 -0.0644
27722W        W47256   3.512  11.066  10.950 -0.1132  0.0464  0.4293
27723W        W47257  18.741   0.128   3.208  0.2341  0.3230  0.0511
27724W        W47258  15.085  16.160   3.907 -0.3967 -0.2404 -0.2679
27725W        W47259   4.046  14.231  11.239 -0.1437  0.3797  0.3267
27726W        W47260  11.280  14.278   2.139 -0.1328 -0.1461 -0.1575
27727W        W47261   1.232  10.183  11.141  0.0330 -0.2728 -0.1421
27728W        W47262  18.053   8.289   1.090  0.1202  0.1190  0.0074
27729W        W47263  11.771  12.807  14.170  0.0779  0.1143 -0.2000
27730W        W47264   0.545   0.881   2.022 -0.2604 -0.1595  0.0142
27731W        W47265   5.555   7.660  11.041 -0.1807  0.0406 -0.2234
27732W        W47266   0.835   4.755  13.318  0.0661 -0.1586  0.0420
27733W        W47267  12.701  11.746   0.767  0.0531  0.1987  0.0607
27734W        W47268  15.719   9.291  12.081 -0.3217 -0.0531  0.0942
27735W        W47269  19.051  10.003  12.724  0.1346 -0.1189  0.0768
27736W        W47270   9.128   4.547  12.417  0.2186  0.1370  0.2117
27737W        W47271   6.192   7.878  10.981  0.2534  0.0953  0.4014
27738W        W47272   7.811   2.066  13.189 -0.2178 -0.1186 -0.0092
27739W        W47273   1.410  13.365   1.413 -0.4194  0.4274 -0.1439
27740W        W47274   2.006   0.726   2.221 -0.0646  0.0612  0.2226
27741W        W47275   3.852  12.717  14.200  0.0813 -0.2608  0.0948
27742W        W47276   2.512   7.632  11.644 -0.2425  0.2683 -0.0464
27743W        W47277   9.275  16.128   2.361  0.0073  0.0306  0.1127
27744W        W47278  10.221   6.591   3.561 -0.3002  0.1002 -0.0217
27745W        W47279  13.093   3.814   4.459  0.1992 -0.1472  0.0557
27746W        W47280   7.368   4.534  13.828  0.0095  0.0764  0.2187
27747W        W47281  11.028  12.745   2.247  0.1581 -0.2204  0.3728
27748W        W47282  18.823   6.349   3.730  0.1574  0.0111 -0.0468
27749W        W47283  16.305  12.513   3.142 -0.0443 -0.1523  0.1098
27750W        W47284   3.501  16.293  12.131 -0.0476  0.0149  0.0015
27751W        W47285   8.199   0.316   2.775  0.0868 -0.0622  0.0594
27752W        W47286   2.998   4.597  10.772  0.3136  0.0135 -0.4914
27753W        W47287   5.315   0.357  13.738  0.3446  0.0736 -0.3535
27754W        W47288   2.976   9.250   2.961 -0.0660  0.0483  0.0749
27755W        W47289  18.157   3.270  13.248  0.2741  0.1452  0.2732
27756W        W47290  10.122  17.421  14.076  0.1265  0.1051  0.0405
27757W        W47291  11.161   7.866   2.873  0.0026 -0.0583  0.3404
27758W        W47292   8.056  14.283  12.301 -0.0163  0.1994 -0.0257
27759W        W47293   1.393  18.831   0.889  0.0794  0.0208 -0.0493
27760W        W47294   1.830   0.827  14.702  0.1035  0.0068  0.2053
27761W        W47295   2.896   3.985   0.793 -0.1437 -0.3588 -0.0984
27762W        W47296   8.642   2.968   3.585 -0.0084  0.1436  0.3227
27763W        W47297  10.385  15.117   0.579  0.3815 -0.0720  0.2117
27764W        W47298  17.193   0.316   3.460  0.1541  0.1662  0.1844
27765W        W47299   7.294  12.635   4.632 -0.0870  0.1183 -0.0746
27766W        W47300   6.315   9.675  11.079  0.0638  0.0272 -0.1892
27767W        W47301  16.069   0.670  10.391  0.1498  0.0716 -0.1322
27768W        W47302   1.986  12.644   4.352  0.0719  0.2686 -0.3768
27769W        W47303  18.113   6.516   1.106 -0.1674 -0.0180 -0.0244
27770W        W47304   1.669   8.798   3.695  0.0065  0.1437 -0.0199
27771W        W47305  14.706  12.291  11.972 -0.0073 -0.2897  0.1556
27772W        W47306  18.216   6.043  11.549  0.1500  0.0244  0.2108
27773W        W47307   2.063   1.963   1.534  0.2124  0.0589 -0.1898
27774W        W47308   8.227   5.827  13.547 -0.4096 -0.0190 -0.2463
27775W        W47309   7.072  17.367  12.315  0.1717  0.0227 -0.3353
27776W        W47310  14.060   3.254  14.548 -0.1828 -0.0738 -0.0291
27777W        W47311  10.575   5.693   4.612 -0.2789 -0.2367 -0.1583
27778W        W47312  12.851  10.564  13.047  0.1502 -0.2082 -0.0692
27779W        W47313  15.633  18.220   0.199 -0.1760 -0.1779  0.0628
27780W        W47314  18.451  14.458   1.157  0.0656 -0.1702 -0.3582
27781W        W47315   8.485  15.899   3.948 -0.2525  0.1518 -0.1332
27782W        W47316  10.136  15.012  11.213 -0.1943  0.1026 -0.3118
27783W        W47317   6.244  17.983  10.603 -0.0881  0.2298  0.3124
27784W        W47318  11.366   9.649   0.047 -0.0919 -0.3699 -0.1508
27785W        W47319  13.815  14.877   2.344  0.1421  0.2331  0.3214
27786W        W47320   5.427  14.096   3.884 -0.2089 -0.1350 -0.3403
27787W        W47321   3.890  10.955   4.367  0.0257  0.1896 -0.1246
27788W        W47322   7.753   4.583   2.929  0.0962 -0.0329 -0.1234
27789W        W47323  10.685   1.258   0.277  0.2451  0.0505 -0.1898
27790W        W47324   1.830   5.267  11.943  0.1993 -0.2678 -0.0801
27791W        W47325  16.638   6.960   4.642  0.3357  0.1302  0.1102
27792W        W47326  11.631   2.775   4.450  0.0709  0.1172  0.4058
27793W        W47327   7.322   0.761  10.714 -0.1525  0.0235  0.1929
27794W        W47328   6.562  12.324  11.136 -0.1676 -0.0428  0.1337
27795W        W47329  16.756   6.804   2.201  0.1128  0.1332  0.2730
27796W        W47330  18.020  11.838  14.572  0.3219  0.2139  0.0577
27797W        W47331  17.286   8.375   0.655 -0.2732 -0.1939 -0.0017
27798W        W47332  11.648   1.698   4.413  0.1089 -0.0805  0.0979
27799W        W47333  14.774   6.394  13.179  0.1435  0.0470  0.2095
27800W        W47334   1.483   6.964  11.519  0.1135 -0.1777 -0.0367
27801W        W47335  17.066   5.176   3.638  0.0411 -0.0321  0.1116
27802W        W47336  17.568  12.186   2.056  0.0211 -0.0895 -0.1157
27803W        W47337  18.706  18.575   2.747 -0.0130 -0.0823 -0.0607
27804W        W47338   0.769  18.766   2.928 -0.2522 -0.0592  0.0370
27805W        W47339   2.901  12.262  13.828 -0.2132 -0.0121  0.2060
27806W        W47340   5.594   0.516  12.121  0.2663 -0.0213 -0.2116
27807W        W47341   6.332   3.206  11.166  0.1550 -0.2947  0.0850
27808W        W47342   6.889  12.379   2.890  0.1219  0.1213  0.0852
27809W        W47343   0.913   6.309   0.109 -0.2079  0.0441  0.3073
27810W        W47344   5.650   3.033   1.103  0.0131  0.1711  0.0858
27811W        W47345   0.866  16.794   2.720 -0.0639 -0.1868 -0.0527
27812W        W47346  14.909  16.145   0.227  0.1694  0.2721  0.0651
27813W        W47347  18.030  16.612   1.120  0.0194 -0.1326  0.0424
27814W        W47348   1.424  14.982   3.437  0.0659  0.4805 -0.1581
27815W        W47349   3.071   5.476   0.912  0.1962  0.0086 -0.1036
27816W        W47350   2.405   6.991   0.065 -0.1428 -0.2648  0.0345
27817W        W47351   1.510   5.564   3.261  0.0886 -0.0445  0.1470
27818W        W47352  15.769   1.967  11.516  0.1153  0.3270  0.0584
27819W        W47353  13.315  12.519   2.113  0.0065 -0.1519  0.1839
27820W        W47354  17.209  18.463   2.385 -0.3499  0.1548  0.0120
27821W        W47355   6.382  13.964  12.567 -0.0464 -0.2290 -0.0482
27822W        W47356  10.325  12.427  13.633 -0.0499 -0.1298  0.2345
27823W        W47357  12.213  15.589   5.138 -0.1894 -0.3635  0.0693
27824W        W47358   2.618   7.952  14.004 -0.2486  0.0776 -0.1126
27825W        W47359   5.555  18.476   1.059 -0.1009  0.0690 -0.2166
27826W        W47360  11.298  12.824   3.080 -0.1454  0.1607  0.1718
27827W        W47361  15.185  10.158   9.060 -0.1553 -0.2648  0.1544
27828W        W47362   5.675   2.707   0.063  0.0827 -0.0398 -0.1529
27829W        W47363   6.117  14.278   3.320 -0.2094 -0.0092 -0.1748
27830W        W47364   9.083   3.971  11.584 -0.1138  0.0505  0.0416
27831W        W47365   7.314  12.181  10.541  0.0076  0.3255  0.0702
27832W        W47366   9.835  17.019  11.449  0.1356  0.0514 -0.1397
27833W        W47367   7.784  17.229  14.079 -0.2477  0.1403 -0.1772
27834W        W47368  16.971   9.172   1.001 -0.1215 -0.1361  0.1292
27835W        W47369  15.149  10.921  12.178  0.1930  0.3108  0.1053
27836W        W47370   9.429  12.563  14.722 -0.1398  0.1102 -0.1501
27837W        W47371   4.032  18.947   4.227 -0.2698 -0.0618 -0.1653
27838W        W47372  14.806   8.981   9.950  0.2130  0.0801  0.0926
27839W        W47373   3.605   2.065  14.063 -0.0548 -0.0423 -0.4665
27840W        W47374   9.352   9.364   1.733  0.0413 -0.3411 -0.0412
27841W        W47375  17.972  15.150  12.736 -0.0487 -0.0372 -0.0697
27842W        W47376  12.357   5.572  11.838 -0.4721  0.1326  0.0778
27843W        W47377  11.519   3.079  11.671 -0.1005  0.4437  0.0002
27844W        W47378  13.586  16.668  13.768 -0.1146  0.2546  0.0668
27845W        W47379   4.468   8.434  11.983 -0.0767 -0.2302 -0.1090
27846W        W47380  11.142  10.239   3.527  0.2321 -0.4192 -0.3007
27847W        W47381   5.440  11.715  14.051 -0.0267  0.3680  0.0654
27848W        W47382  15.252  14.105  13.846 -0.0425 -0.0342  0.0023
27849W        W47383   5.091  15.423   4.899 -0.0715  0.3018 -0.0255
27850W        W47384   8.190  13.148   1.886  0.0538 -0.0601 -0.1691
27851W        W47385  12.785  10.840  14.496  0.0520 -0.0991 -0.0787
27852W        W47386   9.904  17.063   3.056 -0.2455 -0.0961 -0.1963
27853W        W47387  16.883  15.625   4.093 -0.0037  0.0188 -0.0279
27854W        W47388  10.114   8.697   2.396 -0.2194 -0.2069 -0.0769
27855W        W47389  14.861  18.178   1.855 -0.0123  0.0626 -0.2034
27856W        W47390   0.356   5.571   2.435  0.1394 -0.0776  0.1556
27857W        W47391  17.664  16.842   0.831 -0.0104  0.1527  0.0574
27858W        W47392  13.985   4.851  11.550 -0.0247  0.0981 -0.1554
27859W        W47393  13.822  13.576   3.003 -0.2262 -0.1014 -0.0071
27860W        W47394   2.388   7.570   3.292  0.1380 -0.4248  0.1748
27861W        W47395  11.016   7.387   4.306 -0.2044  0.0744 -0.1091
27862W        W47396   1.618   8.121  12.252  0.0987 -0.1290 -0.0707
27863W        W47397   3.285   1.550  14.597 -0.3090  0.0355 -0.1693
27864W        W47398   3.831   8.106   0.828  0.1816 -0.0426 -0.0850
27865W        W47399  16.897  11.250   2.061 -0.2051  0.1128 -0.1199
27866W        W47400  12.355  16.267  14.713  0.0920 -0.2123  0.0816
27867W        W47401   9.486   4.730  12.049 -0.0413  0.3174  0.0070
27868W        W47402  12.912  10.769  11.208 -0.1795 -0.2320 -0.1349
27869W        W47403  13.947   4.260  13.529 -0.0510 -0.1323 -0.0206
27870W        W47404  11.823  10.824  13.291 -0.4455 -0.1340  0.3117
27871W        W47405   6.901   5.537  12.308 -0.1897  0.0826  0.1866
27872W        W47406  15.042   7.642  12.522  0.5992  0.2945  0.0544
27873W        W47407  17.287  13.602   2.596 -0.0049 -0.1099 -0.0310
27874W        W47408  18.374   5.102  14.030  0.0246 -0.1440 -0.1247
27875W        W47409  10.724   1.807  11.416 -0.0948  0.0124 -0.1335
27876W        W47410   3.810  14.037   4.143  0.1340  0.0317 -0.0576
27877W        W47411  12.883   7.205   2.924  0.0103  0.1908  0.3965
27878W        W47412   2.994  16.515  14.750 -0.1312  0.0163  0.0796
27879W        W47413   5.812   0.733   0.457  0.2484  0.0561 -0.1486
27880W        W47414  10.909  17.610   5.401 -0.3456 -0.3979  0.0058
27881W        W47415   7.771  10.899  13.749  0.0973  0.4452 -0.0463
27882W        W47416   6.795   0.371   0.963 -0.1710  0.0167 -0.0198
27883W        W47417   9.029   5.977  13.106 -0.1153 -0.3053 -0.0542
27884W        W47418   3.490   6.840  13.445  0.0204 -0.2532  0.1510
27885W        W47419   9.841   5.948  14.025  0.0828  0.1521  0.2112
27886W        W47420  18.101  13.297   2.805  0.0432 -0.0105  0.3558
27887W        W47421  14.965   3.560  13.587  0.1360 -0.1854  0.1286
27888W        W47422  16.550  18.238   1.150  0.0242  0.2758  0.0970
27889W        W47423   0.634   0.708  12.291 -0.0691  0.0367  0.0284
27890W        W47424  13.207  11.286   4.040 -0.0966 -0.0278  0.1335
27891W        W47425   2.674  14.577  12.085 -0.2187 -0.1568 -0.0892
27892W        W47426  13.154   6.693   1.664  0.0782 -0.0042  0.0318
27893W        W47427  11.917   9.638  13.847 -0.0326  0.0741 -0.1917
27894W        W47428   2.632  17.996   2.437  0.0058 -0.0436 -0.0753
27895W        W47429   7.221   5.937  13.327  0.0467 -0.0292 -0.0769
27896W        W47430  14.241   9.593  12.564  0.1967 -0.0367 -0.0004
27897W        W47431  14.554   5.192   2.135 -0.0200  0.1310 -0.1739
27898W        W47432   6.156   8.773   4.408 -0.0697  0.1843 -0.1293
27899W        W47433   7.638   8.604   0.574  0.0964  0.0611  0.2069
27900W        W47434   9.887   4.446   2.452  0.1372  0.0643  0.0874
27901W        W47435  10.989   8.847   3.531 -0.1839  0.2204 -0.0300
27902W        W47436  13.774  15.213  14.257 -0.0503 -0.2832 -0.1708
27903W        W47437  14.721  10.709  12.036  0.5488  0.5097 -0.2498
27904W        W47438   5.951   0.831   3.081 -0.0570  0.0267 -0.0114
27905W        W47439  14.060   8.112   2.984  0.0996 -0.0674  0.1672
27906W        W47440  15.848  12.078   1.638  0.1200  0.2077  0.1265
27907W        W47441   0.926  10.891  11.309 -0.0176 -0.1454  0.1821
27908W        W47442   0.980   5.635  12.392 -0.3226  0.0311 -0.0793
27909W        W47443  16.912  11.679   1.778 -0.3036  0.4162  0.1447
27910W        W47444  11.473   1.460  13.231 -0.0031 -0.0362  0.0618
27911W        W47445   0.766   5.450   0.629 -0.1915 -0.0374  0.1299
27912W        W47446  17.791   3.750   0.742  0.0017  0.0971  0.2378
27913W        W47447   8.247  18.474  11.952  0.1379 -0.0424  0.2934
27914W        W47448   7.591  14.451  12.661 -0.2183 -0.1276 -0.1767
27915W        W47449   3.274  16.657  12.460 -0.0056 -0.0894  0.0563
27916W        W47450  16.392   2.442   3.355  0.0830 -0.0556 -0.0233
27917W        W47451  11.078   5.404   3.795 -0.0113 -0.3099  0.0164
27918W        W47452  13.806  14.316  14.395  0.0294 -0.1160  0.1078
27919W        W47453  16.655   2.216   1.165  0.4326 -0.0229 -0.1030
27920W        W47454  10.704  12.321  14.800  0.3434 -0.2464  0.1532
27921W        W47455   2.950   1.421  12.414  0.3675  0.0783  0.1140
27922W        W47456   4.680   2.478  11.208 -0.1535  0.0635  0.2259
27923W        W47457  18.924   7.917  11.792  0.0542  0.2545  0.0848
27924W        W47458   1.515   0.182  10.616 -0.1890 -0.0671 -0.0443
27925W        W47459   4.900   1.473   1.489 -0.0331 -0.1948  0.2780
27926W        W47460  14.617   6.996   1.629 -0.0908 -0.1344  0.1037
27927W        W47461   2.840   1.368  10.693 -0.0595  0.0367  0.0453
27928W        W47462  15.825   5.768   5.117  0.0782 -0.2652 -0.3345
27929W        W47463  15.387   0.367  11.476  0.1490  0.2680  0.2606
27930W        W47464   2.016  18.419  14.369 -0.0206 -0.0099 -0.1320
27931W        W47465  16.387   7.821   1.081  0.2339  0.2024  0.1521
27932W        W47466  11.390   7.261  14.695 -0.2145  0.0333 -0.2272
27933W        W47467   2.489  11.337  10.885  0.2980  0.0755 -0.2209
27934W        W47468   7.867   0.315   4.732  0.0679 -0.0674 -0.0294
27935W        W47469   9.925   9.530  11.545  0.0799 -0.0288  0.0298
27936W        W47470   0.960  15.607   0.754  0.0427  0.1345 -0.3615
27937W        W47471  17.234  15.807   1.591 -0.1598  0.2495  0.4050
27938W        W47472   9.583   6.166   2.288 -0.2947 -0.0488 -0.0288
27939W        W47473   5.689  13.627   0.308  0.2525 -0.2112 -0.0289
27940W        W47474   9.029  12.588  10.826 -0.1753  0.2778  0.2418
27941W        W47475   5.307  14.651  14.752  0.1271  0.2133  0.0350
27942W        W47476   5.765  15.812  13.549 -0.0183  0.1659 -0.3412
27943W        W47477   9.342   2.643   3.897  0.1828 -0.0808  0.1795
27944W        W47478  10.162  13.467  13.289  0.0697  0.1326  0.1382
27945W        W47479  15.676   5.324   1.394 -0.0533  0.0799 -0.0971
27946W        W47480  11.235  11.550  14.086  0.1964 -0.1921  0.3174
27947W        W47481  14.695  18.539  11.440  0.2217 -0.2393  0.1186
27948W        W47482  10.673   4.515   0.563  0.3379 -0.2768  0.1471
27949W        W47483   1.539   8.035  13.182 -0.4020  0.0510  0.1555
27950W        W47484   0.839   6.832  10.021  0.3701 -0.0640  0.0949
27951W        W47485   0.239   1.004   0.605  0.1545 -0.0636 -0.1869
27952W        W47486  10.995   5.495   0.402 -0.1229  0.1959  0.0438
27953W        W47487   2.511   5.371   4.305  0.1057  0.0525  0.2574
27954W        W47488  15.538  16.749   1.810  0.1073  0.1022 -0.1770
27955W        W47489   8.429   7.188  13.375  0.2100 -0.0857 -0.1251
27956W        W47490   6.261  12.625  12.757 -0.0667  0.0884 -0.0726
27957W        W47491   2.626  17.198  14.444  0.2121  0.1241 -0.0878
27958W        W47492   7.543  14.599  13.823 -0.1673  0.1306  0.2428
27959W        W47493  16.339  18.220   0.137 -0.1265 -0.0084  0.1680
27960W        W47494  15.139   1.969   1.036  0.1197  0.3097 -0.1602
27961W        W47495  14.660   4.893  13.586  0.0669 -0.1419 -0.2080
27962W        W47496   1.852  11.171  11.065  0.1133  0.0125  0.0553
27963W        W47497  10.962   2.276  11.144  0.0334 -0.0461  0.1896
27964W        W47498   7.462  14.658   2.679  0.5895 -0.0693  0.2118
27965W        W47499   5.018   0.810  13.859  0.5166 -0.1720  0.2550
27966W        W47500   9.959   4.482  10.854  0.0113 -0.2035  0.1172
27967W        W47501  15.752  10.986   4.173 -0.2416  0.3808 -0.0439
27968W        W47502   6.059   0.245   0.319 -0.0356  0.1755 -0.1388
27969W        W47503  18.596  13.723   1.940  0.3931 -0.0976  0.4556
27970W        W47504  14.303  14.376   2.751  0.2767 -0.1393  0.1943
27971W        W47505  10.010  11.271   0.985 -0.1094  0.0190  0.0385
27972W        W47506   8.888   8.795  12.876  0.2049 -0.1193  0.1022
27973W        W47507   1.960   7.168  12.284 -0.5827 -0.1019 -0.0489
27974W        W47508   7.446  11.471  13.667 -0.1025 -0.0117  0.0008
27975W        W47509  12.985   3.750   3.571 -0.3015 -0.2917 -0.0661
27976W        W47510  11.545   8.777   2.827  0.3505  0.0243 -0.1209
27977W        W47511   5.926  14.032  14.034 -0.2840 -0.3240  0.3967
27978W        W47512  13.502   5.944   3.496  0.0956  0.1280 -0.1209
27979W        W47513   7.907  14.277   0.653  0.0731 -0.0832  0.1399
27980W        W47514   2.279  10.809  12.800 -0.1610 -0.1199 -0.2781
27981W        W47515   0.747  15.347  12.693  0.0655  0.0187  0.2715
27982W        W47516   5.402  13.066  14.293  0.2119 -0.4269  0.0985
27983W        W47517   8.163  18.890   9.822 -0.2570  0.0056 -0.0290
27984W        W47518  11.052  13.966  13.141 -0.0010  0.2419 -0.0989
27985W        W47519   4.929   0.466  11.151  0.1131 -0.1115 -0.2405
27986W        W47520  18.896   5.333   1.891 -0.1917 -0.3336 -0.1591
27987W        W47521  15.785  13.103  12.633 -0.2703  0.1134  0.2494
27988W        W47522  12.568  18.593  12.941  0.0274  0.0997  0.1785
27989W        W47523  13.134   5.337   0.038 -0.1087  0.0765  0.0233
27990W        W47524   8.117   4.972   1.904 -0.2480  0.2238 -0.0827
27991W        W47525   4.653  12.395   4.448  0.0030 -0.3023  0.0615
27992W        W47526  15.908  16.535   2.346  0.0903  0.2968 -0.1109
27993W        W47527  11.784   3.165  12.665 -0.1403  0.1828  0.0908
27994W        W47528  11.862  15.610   3.513  0.1035 -0.0093 -0.3030
27995W        W47529   8.391  12.445   4.161 -0.0914  0.1126 -0.0502
27996W        W47530  10.015   6.993  13.720  0.3361 -0.2992 -0.0433
27997W        W47531  16.144   2.256  12.241 -0.1349  0.0149  0.3302
27998W        W47532   0.025   7.096   0.567  0.1263  0.0553 -0.0671
27999W        W47533  15.466  18.923  11.930 -0.0077 -0.3819  0.2174
28000W        W47534   1.428  12.095   0.971  0.1503  0.0974  0.0494
28001W        W47535  16.243   1.685   3.758  0.0607 -0.2642 -0.0112
28002W        W47536   4.451   4.097   3.442  0.0885  0.0672  0.1107
28003W        W47537  15.235   1.794  12.251  0.0332 -0.1322 -0.0149
28004W        W47538   4.484  16.630  12.110 -0.2508  0.1332 -0.3072
28005W        W47539   9.765   7.059  14.203 -0.1993  0.0921  0.1453
28006W        W47540   2.902  10.899   0.956 -0.1179 -0.2324 -0.0553
28007W        W47541   0.742  15.402   1.561  0.1523  0.0386 -0.4203
28008W        W47542  10.609  12.039   2.879  0.1077  0.3765 -0.1033
28009W        W47543   2.476  10.035  11.332  0.5327 -0.4673  0.1070
28010W        W47544  13.108  16.700  13.855 -0.0097  0.0841 -0.3215
28011W        W47545  15.167  11.151   2.443 -0.2079  0.2284  0.1214
28012W        W47546   8.808   7.310  13.036 -0.0099  0.0215  0.0058
28013W        W47547   7.600  13.350  11.552  0.1674  0.0924 -0.2496
28014W        W47548   4.898   9.816   0.990  0.0151 -0.2144 -0.1651
28015W        W47549  17.387   3.083   2.775 -0.0141  0.1444 -0.1531
28016W        W47550  13.894   5.782   0.245 -0.0669  0.0423  0.3311
28017W        W47551   0.631  16.464  11.699 -0.0948  0.0606 -0.0543
28018W        W47552   5.698  11.797   3.958 -0.0105 -0.0225 -0.1623
28019W        W47553  17.607  13.473   3.511  0.0127 -0.1482  0.4980
28020W        W47554   7.124  14.970   2.910  0.0724  0.2223 -0.0938
28021W        W47555  18.681   9.832   0.520 -0.0570 -0.1404 -0.0439
28022W        W47556  11.226   6.504  14.479 -0.0563  0.4293 -0.0866
28023W        W47557  11.042   0.807   1.495  0.1515  0.3023  0.1837
28024W        W47558  17.713   5.203   0.254 -0.0173  0.0689 -0.1294
28025W        W47559  13.796  10.049  11.004 -0.0757 -0.2513 -0.2389
28026W        W47560  10.255   0.308   3.960  0.0357 -0.2503  0.0435
28027W        W47561  16.601   1.855   0.075 -0.0290 -0.2148 -0.3219
28028W        W47562  11.498   2.746  12.590  0.0265  0.1494  0.2484
28029W        W47563   0.221   2.350  12.782 -0.1367  0.0197 -0.0560
28030W        W47564   7.215  18.498  10.873 -0.0642  0.0044 -0.0095
28031W        W47565  15.834   5.828  11.895 -0.0409  0.3780  0.1071
28032W        W47566   7.690   0.907   3.673  0.0423  0.1689  0.1746
28033W        W47567  10.622   1.076  11.348 -0.1725 -0.0106  0.0623
28034W        W47568  17.455  10.743   1.688  0.1977 -0.1872 -0.0510
28035W        W47569   9.104  17.583   2.768  0.2220 -0.0490  0.0753
28036W        W47570   5.122   6.168   1.461 -0.2914 -0.1148  0.3799
28037W        W47571   4.475  15.867   1.833 -0.0888  0.1858  0.0688
28038W        W47572   9.589  17.419  12.677  0.1937  0.0353 -0.0419
28039W        W47573  15.070   5.619  13.482  0.1052  0.1233  0.2046
28040W        W47574   6.294  11.555   3.703 -0.0170 -0.1014  0.2393
28041W        W47575  11.894  15.108   3.832  0.0621 -0.1984  0.6339
28042W        W47576  16.041  19.114   0.525  0.3319 -0.0071  0.0323
28043W        W47577  12.671  10.891  13.479 -0.3068  0.2099  0.3757
28044W        W47578  14.627  10.524   0.019 -0.1924 -0.0626  0.0182
28045W        W47579  16.407   2.511   2.684  0.1133  0.0024 -0.1410
28046W        W47580   2.614  16.614  13.699 -0.2206  0.2468  0.0508
28047W        W47581  10.156   1.142   3.043  0.0096 -0.1989 -0.0035
28048W        W47582  11.631   5.079  13.842 -0.2961 -0.2107 -0.2429
28049W        W47583   0.120  16.192  12.086 -0.0157  0.3872 -0.2098
28050W        W47584   9.631  17.220   0.681  0.0137 -0.0145  0.0076
28051W        W47585   7.546   5.529   3.908 -0.0154  0.0018  0.0694
28052W        W47586   2.710  12.464  12.861 -0.1074 -0.1183 -0.0984
28053W        W47587   3.296   6.945  11.717  0.0315 -0.1263  0.0475
28054W        W47588  11.587  18.158   5.205  0.1793 -0.1833 -0.3612
28055W        W47589   6.132   5.328   1.855  0.4016  0.3978 -0.1265
28056W        W47590  16.499  16.964  13.884 -0.0788 -0.0034 -0.2613
28057W        W47591  16.700   1.316  14.686 -0.0893 -0.2596  0.0825
28058W        W47592  17.587   7.320  10.376 -0.1413  0.1121 -0.2100
28059W        W47593   6.500  10.525   0.598 -0.1032 -0.0886 -0.2849
28060W        W47594  12.790   2.580  13.764 -0.1595 -0.2326 -0.0328
28061W        W47595  18.300  11.703   3.609  0.0574 -0.2324  0.1163
28062W        W47596  14.479  17.696  11.413  0.2407  0.2068  0.0889
28063W        W47597  16.758  18.428  14.627 -0.1137 -0.1044 -0.1391
28064W        W47598   1.007   1.135  11.529  0.0782 -0.0379  0.0156
28065W        W47599   6.692   1.568   0.970 -0.0167  0.1546  0.0395
28066W        W47600   7.426   1.529   1.373  0.0573  0.1914  0.1372
28067W        W47601  15.803   3.719  13.912 -0.1752 -0.0725 -0.1856
28068W        W47602   7.677   9.515   1.574  0.1872 -0.1263 -0.1247
28069W        W47603   7.441  13.271   1.941 -0.0950 -0.3221  0.1378
28070W        W47604   5.731  10.776   2.268 -0.2130  0.0469  0.1158
28071W        W47605   0.962  14.512   2.281  0.2870  0.2729 -0.5583
28072W        W47606  11.531   7.019   0.830 -0.1158  0.2697 -0.3244
28073W        W47607   5.940  12.554   0.889  0.0742 -0.1595  0.1248
28074W        W47608   2.401  14.917   1.292 -0.0788 -0.2333  0.2508
28075W        W47609  19.021  10.024  11.091 -0.3953 -0.0276  0.2152
28076W        W47610  16.363  12.547   4.125 -0.1785  0.1090 -0.0869
28077W        W47611  16.589  11.582   3.547  0.0334  0.0901 -0.1883
28078W        W47612   6.597  16.052   3.245 -0.0734  0.0455  0.0358
28079W        W47613  16.021   3.506  11.915 -0.2080 -0.2533 -0.1279
28080W        W47614   9.656   2.278  12.035 -0.0936 -0.3904  0.0262
28081W        W47615   7.664  11.207   2.202 -0.0842  0.0052  0.0599
28082W        W47616  18.010  16.528   0.625 -0.3429 -0.0534  0.1201
28083W        W47617  13.344  16.588   5.549 -0.0145  0.0443  0.1833
28084W        W47618  12.055  18.214   1.129  0.1264 -0.2234  0.0561
28085W        W47619   0.123   4.124  14.334 -0.1720  0.1107  0.0928
28086W        W47620  15.936  15.251   0.732  0.1815  0.0324  0.4318
28087W        W47621   0.065  13.960   0.990  0.5056  0.4280  0.0446
28088W        W47622   6.655  12.896  12.576 -0.2491  0.0506 -0.4163
28089W        W47623   6.198  15.106  13.339 -0.0266 -0.0000 -0.0831
28090W        W47624   3.771  10.251   3.238 -0.0849 -0.0180  0.1645
28091W        W47625   1.689   1.277  10.271 -0.1579  0.1934  0.0755
28092W        W47626   6.775   1.221   3.564 -0.2872 -0.2666  0.0820
28093W        W47627   8.052   1.753  12.111  0.0826 -0.1885 -0.0088
28094W        W47628  13.315   9.440  13.523 -0.1763  0.4748  0.0898
28095W        W47629   1.439  18.448   0.021 -0.3318 -0.0990 -0.0169
28096W        W47630   7.064   0.696   1.643 -0.1415  0.1824  0.1158
28097W        W47631   2.787  11.808   2.780  0.1242 -0.1080 -0.4658
28098W        W47632   5.020   8.461  10.645  0.0044 -0.0708 -0.1105
28099W        W47633   3.082   8.698   2.923 -0.0695 -0.1646 -0.0685
28100W        W47634   8.215   9.969   2.874 -0.1821  0.0432 -0.1202
28101W        W47635   9.241  16.530   1.961  0.0453  0.2283 -0.1683
28102W        W47636   4.855   7.768  13.367  0.1523  0.1526 -0.0355
28103W        W47637  14.984   7.988   3.875  0.0376  0.1099  0.1433
28104W        W47638   3.929   1.425   0.700  0.0829  0.1659  0.2384
28105W        W47639   7.620  18.879   2.767 -0.0342  0.1410  0.0521
28106W        W47640  12.884  13.591   0.147  0.3632  0.1930  0.0055
28107W        W47641   3.911  13.986   3.185 -0.0510 -0.0437 -0.0500
28108W        W47642   8.563   6.066   2.073 -0.2761 -0.2247 -0.0241
28109W        W47643   4.517   9.495   1.161 -0.0133  0.0819  0.2581
28110W        W47644  18.705   4.920  14.529  0.1250  0.1381 -0.2669
28111W        W47645  18.418  16.681  11.796 -0.2234  0.2523 -0.2230
28112W        W47646   1.547  12.885   1.215 -0.2482 -0.3269 -0.1023
28113W        W47647  16.666  18.719   3.676  0.1221  0.1362 -0.2774
28114W        W47648  18.949  15.176   1.432 -0.2301 -0.0857 -0.0884
28115W        W47649  15.616   4.340   1.390  0.0442 -0.2360 -0.1530
28116W        W47650  18.546  10.118  13.697 -0.0680 -0.0210 -0.4538
28117W        W47651  18.358   9.377  12.591 -0.1963  0.0965  0.3188
28118W        W47652   1.699  15.912   9.986 -0.0694  0.3174 -0.1393
28119W        W47653  16.843   9.119  11.947  0.2566  0.2036 -0.2735
28120W        W47654   1.798  12.544  12.680  0.0568 -0.1231  0.0431
28121W        W47655  10.847  17.564   3.510 -0.0647  0.3277  0.0874
28122W        W47656   3.857   3.477  12.512  0.0994  0.0076  0.1480
28123W        W47657  12.008  13.954  13.253 -0.1660 -0.1462  0.1152
28124W        W47658  13.249   0.268   2.574 -0.0807 -0.1762 -0.1037
28125W        W47659   4.274   4.058  11.906 -0.3804 -0.1584 -0.0794
28126W        W47660   3.662   1.503  12.325 -0.1351  0.0401 -0.1167
28127W        W47661  11.516  11.699   2.511 -0.0148  0.1427 -0.4039
28128W        W47662  13.887  18.118   2.956  0.4010 -0.0992  0.1090
28129W        W47663   9.126  10.630  12.217 -0.0788  0.1657  0.0270
28130W        W47664  14.844  16.809  11.774 -0.4619 -0.0387 -0.1484
28131W        W47665  11.870   2.794  14.694  0.0774  0.1476  0.0718
28132W        W47666  18.018   3.294   9.926  0.1751 -0.3314 -0.2461
28133W        W47667  11.361   2.024   1.126  0.1709  0.2506  0.1128
28134W        W47668  16.059   6.905   0.329 -0.0644 -0.3192  0.1547
28135W        W47669   7.177  15.186   1.454  0.2883 -0.2221 -0.3278
28136W        W47670   1.877   6.954  12.783 -0.0397  0.1090 -0.2731
28137W        W47671  16.978   4.176   0.981  0.2206  0.0019  0.0455
28138W        W47672  16.341  12.247   4.856  0.0216  0.0818  0.2098
28139W        W47673   9.986  10.167   3.656 -0.3944  0.0313  0.1569
28140W        W47674   2.185  17.243  12.384  0.2172 -0.4135 -0.2917
28141W        W47675  15.581   2.878  10.850  0.2838 -0.1267 -0.2150
28142W        W47676   5.156   7.494  10.857  0.0177 -0.2532 -0.0241
28143W        W47677  13.695   4.731   1.697 -0.1436 -0.1751 -0.1380
28144W        W47678   0.067  10.455  12.902 -0.1078  0.2500  0.1119
28145W        W47679  16.696  14.074  10.518  0.0356  0.0770 -0.0831
28146W        W47680   6.505   3.409   2.462  0.0024 -0.1095  0.0470
28147W        W47681   5.990   6.043   3.085 -0.1237  0.2326 -0.0873
28148W        W47682  10.783  18.400  14.162  0.2579 -0.1387 -0.0198
28149W        W47683   6.524  14.405   9.967 -0.0880 -0.2897  0.1356
28150W        W47684   6.944   7.427   0.617 -0.2250  0.0301  0.2775
28151W        W47685   0.668   2.377   0.735 -0.1919  0.0804 -0.0084
28152W        W47686  10.865   3.044  13.627  0.0250  0.3519  0.0011
28153W        W47687  14.223  10.595   1.545  0.2900 -0.2700  0.0367
28154W        W47688   9.087   1.510   1.165 -0.0081  0.1103  0.1797
28155W        W47689   9.737  11.811   3.400 -0.0418 -0.1247 -0.1061
28156W        W47690   8.364   3.001  11.469 -0.2086  0.1937 -0.3660
28157W        W47691   3.108   6.954   1.939  0.4348 -0.1242 -0.1172
28158W        W47692  17.799   5.337  14.613  0.2128 -0.2172 -0.2086
28159W        W47693  13.274  18.204  10.322  0.3239 -0.3741  0.3280
28160W        W47694   4.328   4.985   0.664  0.1584 -0.0747  0.1206
28161W        W47695  13.902   0.227  11.302  0.3465 -0.1819 -0.1060
28162W        W47696   4.293  12.188  13.310 -0.0803  0.2343  0.1483
28163W        W47697   1.262   1.178  14.582  0.1795  0.4960 -0.2762
28164W        W47698  14.269  17.007  11.137 -0.0758  0.0803  0.1985
28165W        W47699  12.108   4.726  13.673  0.0608  0.0080 -0.0527
28166W        W47700  16.824   6.181  11.214 -0.1380  0.1502 -0.1190
28167W        W47701  11.532  15.837  11.578  0.0029 -0.1322 -0.3683
28168W        W47702  18.745  11.983  11.032  0.1143  0.1818 -0.1203
28169W        W47703   9.717   1.619   0.640 -0.0866  0.0980 -0.3326
28170W        W47704   7.220  11.935   1.103  0.2378 -0.2867  0.2074
28171W        W47705  10.115   3.003   2.783  0.0349  0.0391  0.2962
28172W        W47706  17.978   7.884  14.690  0.2520  0.3312  0.1309
28173W        W47707   7.366   1.505  11.580 -0.2802 -0.0085  0.0132
28174W        W47708  14.208   1.193   1.912 -0.0420  0.0880 -0.0579
28175W        W47709   8.700  13.693  13.021 -0.0334 -0.4389  0.1108
28176W        W47710   5.064  12.081  14.392 -0.0943  0.2902 -0.2164
28177W        W47711   5.350   3.759   0.255 -0.2415  0.3401 -0.5480
28178W        W47712   8.637   5.004   2.612 -0.0124 -0.1626 -0.0798
28179W        W47713  16.993   2.718   4.139 -0.1011 -0.3946  0.0409
28180W        W47714   0.523  15.619  14.210  0.0803 -0.0722  0.0739
28181W        W47715  11.174   3.736   3.541  0.1330 -0.0411 -0.0850
28182W        W47716   5.355   5.028   2.426 -0.0351  0.0057 -0.0229
28183W        W47717  16.747   5.566   0.009 -0.0503 -0.1324  0.1881
28184W        W47718   2.413  14.195   4.260 -0.2638  0.1028  0.1595
28185W        W47719  14.986  16.047  14.235  0.1802  0.2096  0.1569
28186W        W47720   8.543   0.408  13.590  0.0540  0.1203 -0.0269
28187W        W47721  10.413   3.226   4.003 -0.1267 -0.1806 -0.0546
28188W        W47722  12.368   7.624   3.721  0.1378  0.0076 -0.2185
28189W        W47723   8.772  16.191  14.233  0.2212 -0.0640 -0.2372
28190W        W47724  16.604  13.395   1.331 -0.0588 -0.0917 -0.0140
28191W        W47725  18.959  12.883   1.861  0.2728  0.0852 -0.0842
28192W        W47726   5.675   2.643  11.606  0.1316 -0.0392  0.1481
28193W        W47727  14.187   4.502   2.532 -0.1321 -0.1475  0.2798
28194W        W47728  13.242  14.259  12.221  0.0313 -0.4119  0.2669
28195W        W47729  17.159  18.684   1.101 -0.1956  0.3104 -0.1701
28196W        W47730  15.160   9.721  10.385  0.1679 -0.1923  0.0096
28197W        W47731  11.560   0.843  13.510  0.0412  0.2948 -0.2439
28198W        W47732   9.503   2.809  12.814  0.3031  0.1608 -0.0762
28199W        W47733  10.355  11.395  12.024 -0.0549  0.2170 -0.1687
28200W        W47734   7.924  11.615   1.053  0.3267  0.1134 -0.1285
28201W        W47735   3.984  11.520   3.912  0.0555  0.2865  0.1535
28202W        W47736  14.099   4.015   3.420 -0.2625  0.1034  0.0610
28203W        W47737  19.087  11.931  13.800 -0.0487 -0.0064 -0.1558
28204W        W47738  17.658   4.827   3.213 -0.0963  0.0240  0.3565
28205W        W47739   0.563  15.784  11.398 -0.1602 -0.1258 -0.0085
28206W        W47740  12.644   0.006  12.445  0.1231  0.0623  0.1856
28207W        W47741  12.407   1.765   1.363 -0.1494  0.0562 -0.2582
28208W        W47742  14.398   8.356  12.254 -0.1372 -0.0041  0.2024
28209W        W47743  10.228   7.750   4.370  0.1443  0.0243 -0.3929
28210W        W47744  18.127   6.902   0.727  0.0553 -0.0467  0.0401
28211W        W47745   0.780  12.647   3.674  0.2357 -0.1552 -0.0398
28212W        W47746   3.963  16.567  14.428 -0.2245  0.0323  0.3546
28213W        W47747   6.352   8.821   0.961  0.1726  0.1369 -0.2368
28214W        W47748   6.549   6.130   1.310 -0.3341 -0.0923 -0.1212
28215W        W47749   5.667  11.914  12.759 -0.0681 -0.2551 -0.4321
28216W        W47750  10.215   2.655  10.722  0.0779  0.1021  0.3668
28217W        W47751   7.707  13.820  14.415 -0.2294 -0.1321  0.1547
28218W        W47752  10.393  16.327   5.380  0.1492 -0.2124  0.0591
28219W        W47753   5.753  14.923  11.381  0.0258  0.3499  0.1115
28220W        W47754  12.727   5.315  11.960  0.1206 -0.0206  0.1359
28221W        W47755  17.688  16.867  13.734 -0.0375 -0.0582 -0.1300
28222W        W47756  11.597  12.208   2.748  0.0504 -0.1848  0.0539
28223W        W47757  13.452   1.651  13.458 -0.1160  0.1295  0.0400
28224W        W47758  19.062   9.844   0.163  0.2102 -0.1674 -0.0968
28225W        W47759   0.712   7.737  11.430  0.0047 -0.0275  0.1284
28226W        W47760   5.868  16.705  10.236  0.0951  0.0265 -0.1349
28227W        W47761  13.876   0.463  11.742 -0.0663  0.2660  0.1101
28228W        W47762  13.199   5.519   0.557 -0.2823  0.1544  0.1371
28229W        W47763  18.626   4.313   3.341  0.0439 -0.0978  0.1083
28230W        W47764  10.908   2.480   0.048 -0.2236 -0.2843  0.1020
28231W        W47765   0.805   3.478  14.770 -0.0435  0.0306  0.1596
28232W        W47766   6.143  16.370   0.916  0.2271  0.3174  0.0684
28233W        W47767   3.000   2.246  13.321  0.0432 -0.0370 -0.1291
28234W        W47768  16.067  17.169  10.063 -0.3426  0.6512  0.1800
28235W        W47769  14.661   4.364  12.758  0.1006  0.1169  0.0029
28236W        W47770   5.882   8.616   1.766 -0.1649 -0.0148 -0.2727
28237W        W47771   1.691   6.180  10.981  0.1458  0.0684  0.0029
28238W        W47772  16.201  11.061   2.445 -0.0743 -0.0456 -0.2665
28239W        W47773  17.826  15.373  12.343  0.0463  0.2881 -0.1478
28240W        W47774   3.703   6.077  10.855 -0.2025  0.2222 -0.3282
28241W        W47775  16.631  16.385   1.027  0.1344 -0.0885  0.2173
28242W        W47776   0.406   1.798   2.994  0.2965 -0.0206  0.1302
28243W        W47777  14.439   9.452  10.483 -0.0573 -0.2366 -0.2546
28244W        W47778  14.621   5.626  14.338  0.0728  0.0456 -0.0405
28245W        W47779   6.340  16.820  14.163  0.1209 -0.0505  0.0437
28246W        W47780  14.288   2.976   2.467  0.3775 -0.0985  0.2586
28247W        W47781  12.808  12.858  10.254 -0.2450  0.2019  0.1393
28248W        W47782   4.461  12.424   0.922 -0.0490  0.1698 -0.0114
28249W        W47783  13.130  18.542   3.915  0.1440 -0.0654  0.0411
28250W        W47784  18.176   6.226  13.695 -0.1236  0.3271 -0.1125
28251W        W47785  18.285  13.274   1.725  0.1831  0.0381  0.0018
28252W        W47786   2.877   4.344  10.329 -0.0742 -0.0295 -0.3790
28253W        W47787   1.810  17.887  11.868 -0.2083 -0.5240  0.0639
28254W        W47788  10.075   8.893  11.189 -0.0012  0.0231 -0.0387
28255W        W47789   3.534  11.791  10.354  0.1216  0.1288 -0.1356
28256W        W47790   6.131  18.931  11.596 -0.0765 -0.1670 -0.1170
28257W        W47791   2.442   3.421  11.353 -0.0385  0.2300  0.2668
28258W        W47792  13.305   7.616   4.298  0.0440  0.0106 -0.4001
28259W        W47793   6.713   1.718  10.904 -0.1499  0.0112 -0.0766
28260W        W47794   5.426   5.053   0.793  0.0526 -0.2512 -0.1830
28261W        W47795  17.537  13.204   1.067 -0.1878 -0.3560  0.2068
28262W        W47796   1.166   4.564   0.981  0.2586 -0.2090 -0.1982
28263W        W47797   7.924   6.650   0.372 -0.3840  0.1963  0.2842
28264W        W47798  18.558  13.686  10.286  0.1989 -0.0475 -0.1649
28265W        W47799   1.361  11.935  11.870  0.0268 -0.0125  0.0568
28266W        W47800  14.217   5.258  13.519 -0.1303 -0.1208 -0.0751
28267W        W47801   2.638  10.689   3.945  0.0671 -0.0014  0.1809
28268W        W47802   3.770  12.304   3.420  0.3398 -0.0267  0.0988
28269W        W47803  10.801   4.936  13.963  0.2019 -0.2686  0.2136
28270W        W47804   3.640  16.718   4.336 -0.0487  0.3160  0.3307
28271W        W47805  14.469   5.730  12.470 -0.1760 -0.0682 -0.1709
28272W        W47806  14.994  12.098   1.550  0.1139 -0.0953  0.0790
28273W        W47807  11.328  13.202  11.033  0.1780  0.2043 -0.0531
28274W        W47808   7.185  15.752   1.625  0.1607  0.1273  0.2044
28275W        W47809  13.145  15.071   3.609 -0.1236  0.2062  0.0614
28276W        W47810   3.887   1.769  12.768  0.1063  0.0487 -0.1715
28277W        W47811  12.421   3.307  13.950  0.0114 -0.1264 -0.3477
28278W        W47812  18.181   6.662   4.072 -0.1207  0.1767 -0.0238
28279W        W47813   0.901  14.183   1.541 -0.0945  0.0531  0.1815
28280W        W47814  13.575  17.236  13.926 -0.0512  0.0754  0.1287
28281W        W47815   3.305   9.956  14.616  0.1498  0.1407 -0.1348
28282W        W47816  18.588   3.057  11.583 -0.3190 -0.0812  0.0979
28283W        W47817  17.614   0.953  13.732 -0.1049  0.4389 -0.2217
28284W        W47818   2.397  15.916   0.540 -0.1850  0.4250 -0.0397
28285W        W47819  11.143   8.759   2.526 -0.1082 -0.0112 -0.3104
28286W        W47820   5.957  12.278  13.748  0.0960 -0.0396 -0.3406
28287W        W47821  18.321   2.485   0.148 -0.1025  0.3067 -0.0374
28288W        W47822   7.816  11.171  12.076 -0.3087  0.0869 -0.0255
28289W        W47823   5.656  17.247  13.361  0.1440 -0.0501  0.0010
28290W        W47824   0.385   2.455  13.794  0.2066  0.1478 -0.1174
28291W        W47825   1.274   0.106  12.871  0.0223 -0.0921  0.0509
28292W        W47826   0.548  12.004   0.010  0.1738  0.1785 -0.3670
28293W        W47827   4.814   9.998  12.681  0.2638 -0.2141  0.3742
28294W        W47828  13.389   2.108   2.301  0.0559 -0.2082  0.2295
28295W        W47829   0.885   1.760  13.141 -0.1853  0.0836  0.0378
28296W        W47830  10.421  11.538   2.967 -0.1064 -0.1198 -0.2353
28297W        W47831  18.553  13.930   0.196  0.1518 -0.1014 -0.0920
28298W        W47832   6.684  16.466  11.264 -0.1328  0.0559 -0.1199
28299W        W47833   8.065  11.304   1.884 -0.1958  0.2101 -0.0956
28300W        W47834  13.735  17.608  14.312  0.1443 -0.4490  0.0764
28301W        W47835  13.445   0.435   2.084  0.2803  0.2145  0.4505
28302W        W47836   7.457  12.956   1.557  0.0518  0.2663  0.1960
28303W        W47837   3.981  16.449  10.849 -0.2937  0.2947 -0.2591
28304W        W47838   0.958  14.838  13.960  0.1234 -0.0317 -0.0821
28305W        W47839  10.595  13.980   3.777  0.2449 -0.0964 -0.2264
28306W        W47840   9.855  10.645  10.013 -0.0093 -0.0039 -0.0886
28307W        W47841   1.197  15.117  14.362  0.0711  0.1119  0.2205
28308W        W47842  12.933  13.093  14.511 -0.1630  0.2638 -0.1074
28309W        W47843   6.446  16.546   3.092 -0.0358  0.0592  0.0542
28310W        W47844   3.826   5.598   2.320  0.0215  0.0510 -0.0710
28311W        W47845   1.649   6.155  13.276  0.1557 -0.0120 -0.2027
28312W        W47846  17.886  18.966   5.177  0.3775 -0.0104  0.0186
28313W        W47847  15.322   4.070  13.444  0.1240  0.2428 -0.0782
28314W        W47848   6.878  16.723   3.329 -0.2151 -0.0329 -0.0282
28315W        W47849   1.836   1.201   0.654 -0.1656  0.1188  0.0516
28316W        W47850  13.082   5.252  14.259 -0.2805  0.2376  0.0429
28317W        W47851  13.241   0.862  13.379 -0.1096  0.4911 -0.4056
28318W        W47852  11.687  14.379   1.628 -0.1716  0.3457  0.0443
28319W        W47853   7.429   4.355  11.675 -0.2417 -0.1530 -0.0690
28320W        W47854  14.721  11.926  11.194 -0.0988  0.0368 -0.0525
28321W        W47855  12.553  10.818   3.458 -0.2898 -0.1625 -0.1304
28322W        W47856  13.857  14.585   0.029 -0.0092 -0.5517  0.0134
28323W        W47857  13.312  11.431   4.511  0.0734  0.2348  0.1094
28324W        W47858   1.802   5.450  12.434 -0.1159 -0.0259  0.0392
28325W        W47859  11.320  13.192   4.135 -0.0523  0.0542 -0.0075
28326W        W47860   5.998  17.937  11.822 -0.1372  0.0834 -0.2326
28327W        W47861  14.868  10.735  13.419  0.1596 -0.0887 -0.1192
28328W        W47862  18.861   8.918  14.510  0.0969  0.0774  0.1829
28329W        W47863   3.734  16.785   2.815  0.3090 -0.3701 -0.1663
28330W        W47864  18.715  13.650   1.089 -0.2020  0.2352  0.0825
28331W        W47865  16.855  11.530   0.837  0.0914 -0.0818 -0.2671
28332W        W47866  13.322   0.441  13.808 -0.0281 -0.2737  0.0497
28333W        W47867  18.464   1.578  14.736 -0.0237 -0.1230 -0.1341
28334W        W47868   3.916  18.018   1.492 -0.2254  0.1897 -0.0964
28335W        W47869  16.288   0.187   0.181 -0.0411  0.0903  0.0887
28336W        W47870   4.221  10.920   3.837 -0.0892 -0.2982 -0.1249
28337W        W47871  13.247   8.455  14.727  0.0328  0.0130  0.2122
28338W        W47872  12.504  17.616  14.839 -0.1118 -0.1384 -0.1125
28339W        W47873   2.932  18.220  12.993  0.3232 -0.1297  0.0527
28340W        W47874  13.966  17.544  10.099  0.0079 -0.3542  0.1731
28341W        W47875   6.305  14.403  11.845  0.3051  0.1086  0.4576
28342W        W47876  13.670  14.413  13.608 -0.0110 -0.1461  0.0138
28343W        W47877  12.041   8.266   0.805 -0.0029 -0.4129  0.2471
28344W        W47878  18.360  14.823   0.775 -0.0469  0.3163  0.0568
28345W        W47879   6.416  18.482  12.355 -0.1893  0.0280 -0.0851
28346W        W47880  16.985  18.482  11.832  0.0576  0.1222 -0.2058
28347W        W47881  17.753  16.118   0.603 -0.3101 -0.3219 -0.1053
28348W        W47882   6.301  15.973   1.742  0.1360  0.0619 -0.1856
28349W        W47883   8.601  12.880  14.579  0.0928 -0.3083 -0.1035
28350W        W47884   2.928   7.661  12.293  0.0302 -0.1430  0.0860
28351W        W47885  13.486   1.751   1.844  0.1340 -0.0037  0.0266
28352W        W47886   9.996  13.190  10.784  0.3429 -0.1130 -0.0073
28353W        W47887  18.215   0.048   4.036  0.2999 -0.0541  0.0564
28354W        W47888  13.925   8.324  11.587  0.1398 -0.1876  0.0360
28355W        W47889   1.121   2.126   0.834 -0.2183  0.3005 -0.0953
28356W        W47890   1.515   8.697  13.673  0.1360  0.0549 -0.1132
28357W        W47891   5.954  15.035  13.966 -0.1118 -0.1218 -0.0212
28358W        W47892   8.870   6.890  11.753 -0.2399 -0.0395 -0.0819
28359W        W47893   6.820  14.930   0.105 -0.1957 -0.1862 -0.1624
28360W        W47894   9.318   0.059   1.507 -0.1237 -0.0609  0.3998
28361W        W47895  11.068  10.244  14.427 -0.0851 -0.0388 -0.1174
28362W        W47896   5.411  14.165   2.471 -0.0814  0.2324  0.1461
28363W        W47897   0.685   1.758  11.416 -0.2484 -0.0109 -0.1674
28364W        W47898  13.020   7.126  13.276  0.0920 -0.0411 -0.3896
28365W        W47899  16.937  10.839   1.553 -0.0851 -0.1892 -0.0178
28366W        W47900  15.541   4.784  12.510 -0.0318 -0.1181  0.0571
28367W        W47901   2.600  13.511   0.457 -0.2375  0.3224  0.1721
28368W        W47902   6.008   6.209   1.554  0.4040  0.2361  0.0486
28369W        W47903  15.562  14.814   2.765  0.5064 -0.0098 -0.0679
28370W        W47904   7.937   5.202  14.813 -0.0818  0.0724 -0.1830
28371W        W47905  11.262  12.829  14.298 -0.2374 -0.1208 -0.0062
28372W        W47906   2.205  18.199  10.688 -0.0531 -0.1766 -0.0290
28373W        W47907  12.578  16.106   2.921 -0.1052 -0.0822  0.1789
28374W        W47908   5.751  16.574   1.177  0.0648  0.1350  0.2075
28375W        W47909   3.678   9.706   4.727  0.1823 -0.0659  0.1570
28376W        W47910   7.836   0.081   3.058 -0.1571  0.1241 -0.2168
28377W        W47911   3.260   8.640  13.412  0.0896 -0.4020  0.1824
28378W        W47912  14.106   4.779  11.067 -0.0760 -0.0814  0.0524
28379W        W47913  13.077   3.897   0.576 -0.1523 -0.0643 -0.2224
28380W        W47914  17.928  18.496  12.081 -0.0794 -0.0319 -0.1476
28381W        W47915   9.760  10.984   1.442  0.0380 -0.3273  0.1945
28382W        W47916  15.152  14.828  14.629 -0.2633 -0.4690 -0.0020
28383W        W47917  10.595  10.224  12.454 -0.0297 -0.1572 -0.0255
28384W        W47918  15.398   8.467   3.367  0.1740  0.0589  0.1279
28385W        W47919  14.933  15.830  13.264 -0.0541 -0.2629 -0.0415
28386W        W47920   9.163  14.388  10.838  0.0155  0.0092  0.1458
28387W        W47921  15.377   7.695   3.683  0.1961  0.0970  0.0382
28388W        W47922   9.491  14.677  12.595 -0.0509 -0.0115 -0.4699
28389W        W47923   8.201  14.175   2.802 -0.0133 -0.0260  0.3802
28390W        W47924   8.326  11.950   2.768 -0.1057  0.0140  0.1820
28391W        W47925  17.610  15.475   1.474 -0.1019  0.0028  0.2834
28392W        W47926  10.215   7.656  13.065  0.1044  0.1538  0.1297
28393W        W47927  15.112  13.609   3.067  0.1541 -0.0856 -0.1752
28394W        W47928  17.272   8.431  11.775 -0.0682 -0.2023 -0.4846
28395W        W47929   5.286   9.876   2.960 -0.3438 -0.3825 -0.0636
28396W        W47930  10.873  17.037   1.080 -0.1739 -0.0411 -0.2908
28397W        W47931   8.933  11.094   2.761 -0.0388 -0.0705  0.0851
28398W        W47932  13.718   3.587  14.263 -0.0250 -0.1015  0.0667
28399W        W47933  18.185   4.503  11.592 -0.0833  0.3530 -0.2060
28400W        W47934  16.955   7.514   1.596 -0.1116 -0.1067  0.2156
28401W        W47935   3.672  16.608   2.321  0.3356  0.1781  0.1020
28402W        W47936   8.449   3.928   1.594  0.0042 -0.0200 -0.1345
28403W        W47937  18.564   6.470  12.519  0.1816  0.2554 -0.0078
28404W        W47938   3.119   3.549   4.309  0.0979 -0.0350 -0.0881
28405W        W47939   5.160  10.261  11.173  0.1163 -0.1089  0.1804
28406W        W47940  18.875   6.555  10.714 -0.0668 -0.1299  0.1389
28407W        W47941   6.207   4.068   2.160  0.2365  0.1415 -0.2768
28408W        W47942   7.802   7.064  13.684 -0.2439 -0.0076  0.0252
28409W        W47943   0.796  18.664   0.160  0.0399  0.0520  0.1021
28410W        W47944  10.084   6.979   0.269  0.3136  0.3070 -0.1829
28411W        W47945   0.120   5.141   4.261  0.2596 -0.0143  0.2719
28412W        W47946   5.962  13.045  12.111  0.2023 -0.4024  0.1794
28413W        W47947  16.416   0.522  10.828  0.0660  0.0452 -0.0124
28414W        W47948  14.887  17.006   3.582  0.1461  0.1924  0.1297
28415W        W47949   0.040   5.121  11.470 -0.0222 -0.0465  0.0893
28416W        W47950   8.075   6.655   3.710  0.2539  0.0503  0.2049
28417W        W47951  14.449  10.214  11.813  0.2814 -0.1548 -0.0506
28418W        W47952   7.877   4.644  13.691  0.2943  0.1373  0.1259
28419W        W47953   4.025   9.811   4.342 -0.0034 -0.3464  0.4522
28420W        W47954  17.505   7.328   3.309  0.2533 -0.0944  0.1470
28421W        W47955  14.623  13.340  11.920  0.2521 -0.0727  0.0327
28422W        W47956   3.555   4.611   4.279 -0.0634 -0.0999 -0.2022
28423W        W47957   6.582   6.533  10.510  0.1175 -0.3442 -0.0046
28424W        W47958   9.073   5.583   2.827  0.0196  0.4669  0.0531
28425W        W47959   0.288   6.264  10.411 -0.0008  0.0138  0.0078
28426W        W47960   2.145   6.352   1.860  0.2499 -0.2495 -0.0378
28427W        W47961   7.590  13.321  10.991 -0.1308 -0.0565 -0.0079
28428W        W47962   4.338   9.997  11.383  0.0652  0.2354 -0.0559
28429W        W47963  17.484  15.002   2.392  0.0528  0.2687  0.0979
28430W        W47964   6.401  12.263   3.027 -0.0931 -0.0382  0.0942
28431W        W47965  12.589   3.665  13.455  0.0938  0.2852 -0.3700
28432W        W47966   1.925   4.836   0.594 -0.2496 -0.0619 -0.1130
28433W        W47967   1.978   0.900  13.944 -0.2244 -0.0686 -0.0282
28434W        W47968   8.600   6.940  14.596  0.1713 -0.0680 -0.2412
28435W        W47969   1.356  14.614  11.643 -0.2001  0.0431 -0.1071
28436W        W47970  12.608   2.652  12.886  0.3094  0.0590 -0.2680
28437W        W47971   1.847  11.372   3.018 -0.1628 -0.0061 -0.1944
28438W        W47972  15.168  13.132  14.621  0.0389 -0.0316  0.1304
28439W        W47973   3.201  12.411  11.862 -0.2325  0.2436  0.0723
28440W        W47974   7.644   9.262   4.113  0.1273  0.0394 -0.1383
28441W        W47975  13.124  16.283   4.231  0.0846 -0.1545 -0.0898
28442W        W47976  13.604  12.684  12.234 -0.0981  0.2214  0.1428
28443W        W47977  14.995   9.197  10.919  0.1498  0.2183  0.3122
28444W        W47978   0.758   4.215   0.172 -0.2283  0.1595  0.1677
28445W        W47979   9.593   7.679   2.110  0.0877 -0.0284  0.3251
28446W        W47980   2.283   0.625   3.973  0.1849 -0.0468 -0.3164
28447W        W47981  14.571   5.686   2.443 -0.0195  0.0242  0.4304
28448W        W47982   9.388  12.634   4.464 -0.2189  0.0203  0.3026
28449W        W47983  12.405   8.578  10.980  0.1285  0.1008  0.3751
28450W        W47984  15.495  10.356  10.701 -0.1886 -0.2797  0.1640
28451W        W47985  15.694   0.428  14.127 -0.4037 -0.1639  0.0385
28452W        W47986   8.160  16.041  13.637 -0.1046 -0.0712  0.0603
28453W        W47987  17.659  11.845   0.376  0.0122 -0.0714  0.1227
28454W        W47988   9.632   5.717  11.869 -0.5999  0.1757 -0.0887
28455W        W47989   7.459  14.647  13.292  0.1915 -0.2539 -0.1957
28456W        W47990  18.399  18.345  11.494 -0.1411 -0.0397  0.3227
28457W        W47991  17.125   7.547  12.507  0.0889 -0.0065  0.0723
28458W        W47992  13.092   8.252  12.104  0.0213 -0.4525  0.1211
28459W        W47993  14.143  17.922   0.050  0.1893  0.1220  0.0836
28460W        W47994   4.960   4.172   0.725 -0.1580 -0.0883  0.2439
28461W        W47995  15.069   4.110   0.404 -0.1524 -0.2052 -0.0203
28462W        W47996   4.538   4.668   4.050 -0.1734  0.2078 -0.0132
28463W        W47997  17.197   7.537  13.503  0.0425 -0.2212  0.2256
28464W        W47998  10.420   4.972   0.538 -0.0404  0.1325 -0.1514
28465W        W47999   5.614   3.717   4.445  0.5679 -0.2172  0.2062
28466W        W48000  15.121   2.271   2.443 -0.2542 -0.2723  0.2710
28467W        W48001  10.975   0.035   0.964 -0.1469 -0.3318  0.0258
28468W        W48002   3.971  17.744  12.782  0.1250  0.0673 -0.4032
28469W        W48003   8.614  15.364  12.442 -0.2742 -0.1925 -0.0317
28470W        W48004  16.413   8.811   1.836  0.2459 -0.0242 -0.3419
28471W        W48005  15.528  11.356   0.519 -0.1581 -0.2188 -0.2626
28472W        W48006  13.289   5.015   0.492  0.0172 -0.3880 -0.2041
28473W        W48007   2.766  18.029  14.442  0.1256 -0.1324  0.1262
28474W        W48008   3.251  15.807   2.229 -0.2754 -0.0418 -0.1770
28475W        W48009  10.634  15.809  13.286 -0.1927  0.0808 -0.1894
28476W        W48010   6.916   6.141   3.924  0.0261 -0.1312 -0.0914
28477W        W48011   9.768  17.263   1.925  0.0225 -0.0166 -0.2845
28478W        W48012  18.420  16.855  12.295 -0.1516  0.2394  0.0483
28479W        W48013   9.483   8.353   3.675 -0.1227 -0.0081 -0.4063
28480W        W48014  18.154   6.286   2.562 -0.0670  0.0272  0.3973
28481W        W48015  17.710  15.041   3.115  0.1086  0.0841  0.1375
28482W        W48016   8.237  11.927   1.011  0.2227  0.1370  0.2443
28483W        W48017  12.764   5.705  11.591 -0.1182  0.1412  0.0760
28484W        W48018   3.674   0.334  11.540  0.1443 -0.0198 -0.0837
28485W        W48019   2.679   2.656  12.737  0.2997  0.2419 -0.1328
28486W        W48020   5.637  14.483  11.044 -0.2722 -0.0583  0.0754
28487W        W48021   0.024   8.257  12.528 -0.0222  0.1419 -0.1142
28488W        W48022  17.954  15.012   4.325 -0.1129  0.3403  0.0342
28489W        W48023  10.191   5.515   3.724 -0.0497 -0.0570  0.4818
28490ION     NA48024   3.289   1.738   9.908  0.2192 -0.0392 -0.3098
28491ION     NA48025   5.369  18.449   5.026 -0.1145  0.0377 -0.2012
28492ION     NA48026  11.276   3.167   5.017  0.1399  0.0066 -0.2068
28493ION     NA48027   3.119   9.050   4.812  0.2100 -0.1872  0.0731
28494ION     NA48028   6.227   3.140   9.775  0.1910  0.1330 -0.2280
28495ION     NA48029   5.622  13.421  12.952  0.2608 -0.2736 -0.1084
28496ION     NA48030   6.023  14.415  10.007  0.1853 -0.2379  0.4297
28497ION     NA48031  13.947  17.557   5.036  0.3857  0.0569  0.0748
28498ION     NA48032  14.325   8.327   3.499 -0.1267  0.1081 -0.0281
28499ION     NA48033   9.779  14.205  10.044 -0.1472 -0.0779  0.1764
28500ION     NA48034  15.682  18.414  10.465 -0.0185  0.1782  0.2736
28501ION     NA48035  14.671  15.825  13.940  0.0855 -0.2455  0.1361
28502ION     NA48036  14.175   8.710  11.912  0.2069  0.2081  0.1379
28503ION     NA48037   5.177   2.276   5.072 -0.1657 -0.1618  0.4153
28504ION     NA48038   0.638  10.853   5.303 -0.0602 -0.0864  0.1074
28505ION     NA48039   3.625   5.236   5.126 -0.1386  0.0345 -0.0652
28506ION     NA48040  14.985   3.059   9.986 -0.0983 -0.1255 -0.1512
28507ION     NA48041  11.473   8.225  12.579 -0.0716 -0.1687  0.0357
28508ION     NA48042  12.008   3.330   9.861  0.3972  0.2577 -0.1809
28509ION     NA48043  16.584   4.580   9.676 -0.2517  0.2319 -0.1556
28510ION     NA48044  16.733   4.778  12.994 -0.1512  0.1006 -0.0501
28511ION     NA48045   8.067   2.675  10.109  0.1882  0.0017  0.2578
28512ION     NA48046  12.125   2.636   5.250 -0.0982 -0.1156 -0.1588
28513ION     NA48047  14.690  16.384   9.998  0.2861  0.1976  0.0734
28514ION     NA48048  13.153  18.296   0.839  0.2173  0.1078 -0.1055
28515ION     NA48049  15.838  16.116  14.397 -0.2148 -0.1605 -0.0629
28516ION     NA48050   2.160   0.665  10.850 -0.1815 -0.0579  0.0394
28517ION     NA48051   9.195   2.154  12.290 -0.1643  0.0348  0.1429
28518ION     NA48052   4.166   0.398  10.011  0.4570  0.1615 -0.1307
28519ION     NA48053  12.827  16.383   0.556  0.2013  0.3156 -0.1537
28520ION     NA48054  15.884   6.702   5.114  0.0773 -0.0453 -0.0527
28521ION     NA48055   7.267   6.014   1.410  0.0561 -0.0499  0.1571
28522ION     NA48056  13.680  14.311   5.403 -0.3078  0.2629 -0.0071
28523ION     NA48057   6.950  14.724  10.174 -0.0225  0.3391 -0.1268
28524ION     NA48058  13.426   7.681   9.702 -0.2309  0.0315  0.1380
28525ION     NA48059   1.758   3.215  14.781  0.0676  0.0888 -0.0612
28526ION     NA48060  15.797   3.209   0.486  0.1270 -0.2511  0.0214
28527ION     NA48061  13.594  15.937   1.814 -0.1373  0.1320 -0.2327
28528ION     NA48062   1.952  13.607  10.137 -0.2465  0.2148 -0.3352
28529ION     NA48063   8.140  11.530   5.021  0.2153 -0.3625  0.1538
28530ION     NA48064   9.894   0.254  10.167 -0.0136 -0.2863 -0.4590
28531ION     NA48065   7.058  12.222   9.794  0.4936 -0.0416 -0.0268
28532ION     NA48066   5.373   5.633  12.921  0.1324 -0.1555  0.0308
28533ION     NA48067  13.846  13.064   9.715  0.0436 -0.3700  0.0305
28534ION     NA48068  14.358  14.785   9.991  0.0632 -0.1085 -0.4766
28535ION     NA48069  14.007  11.839   5.117  0.2060  0.2480  0.1594
28536ION     NA48070   6.295  16.689   2.053 -0.1145  0.1423 -0.1970
28537ION     NA48071   8.844  10.682   3.089  0.1180 -0.0827 -0.0512
28538ION     NA48072  17.837  13.065   9.725 -0.1978 -0.0745  0.0387
28539ION     NA48073   3.691   8.251  14.768 -0.3545 -0.2798 -0.0157
28540ION     NA48074  16.296  11.985   3.218  0.3100  0.0892  0.1709
28541ION     NA48075   4.099   3.046   9.727 -0.0693  0.0394  0.3386
28542ION     NA48076   4.206   0.764   3.056 -0.0459 -0.1731  0.0981
28543ION     NA48077   5.305   5.198   9.785  0.1367  0.0461 -0.2047
28544ION     NA48078   0.428  13.942   2.726  0.2552  0.2408 -0.1562
28545ION     NA48079   5.092  14.049   1.010  0.0667  0.1730  0.1152
28546ION     NA48080   0.046   9.745  10.050  0.0130 -0.1039  0.0844
28547ION     NA48081   2.386  15.473  10.590 -0.1445  0.1473 -0.0335
28548ION     NA48082   4.251  15.523  13.833  0.0347  0.1549  0.2449
28549ION     NA48083  16.794   4.568   0.263 -0.1454 -0.2217  0.0774
28550ION     NA48084   9.325  13.722   4.963  0.1511 -0.1401  0.2481
28551ION     NA48085  15.078   3.461   5.019  0.1077 -0.1399  0.3388
28552ION     NA48086  16.524   4.248   1.207 -0.0002  0.0224  0.1258
28553ION     NA48087   9.800   9.139  10.689 -0.0138  0.0535  0.0640
28554ION     NA48088   4.347   5.236  10.127 -0.0921 -0.1225 -0.0469
28555ION     NA48089  15.529  18.080   4.781  0.1142 -0.0075  0.0035
28556ION     NA48090  15.388  10.348   9.774 -0.2586 -0.0544  0.2277
28557ION     NA48091   8.935   0.752  13.657 -0.0344 -0.3117  0.0237
28558ION     NA48092   9.462  11.233   2.837 -0.3267  0.2368  0.0763
28559ION     NA48093  17.412  11.439   0.258 -0.1898  0.1881 -0.2864
28560ION     NA48094  16.030   4.905   4.928 -0.0207 -0.0443  0.1367
28561ION     NA48095   4.412   6.701   0.250  0.0263  0.0842  0.0122
28562ION     NA48096  18.852   2.650  14.518 -0.0171 -0.1585  0.1987
28563ION     NA48097  16.326   9.057   4.992  0.1755  0.1446  0.0696
28564ION     NA48098   2.818   0.170  14.276  0.1689 -0.0862 -0.3708
28565ION     NA48099   7.880   5.590   4.601 -0.3220 -0.2171 -0.3288
28566ION     NA48100   4.946  18.257   0.349  0.3377 -0.0934 -0.0752
28567ION     NA48101  10.260  10.370   9.920 -0.0084  0.2179  0.0178
28568ION     NA48102   5.129  11.263   9.902  0.0760 -0.0671  0.5878
28569ION     NA48103   2.839   0.605   9.527  0.2597 -0.1459  0.1587
28570ION     NA48104   1.764  12.315   5.076  0.1000  0.0640 -0.0084
28571ION     NA48105  16.419   0.324   1.745  0.0880 -0.2278 -0.1404
28572ION     NA48106  16.203   6.086   9.790  0.0406  0.1721 -0.0653
28573ION     NA48107  13.047  12.966   1.909  0.0209 -0.2168  0.0872
28574ION     NA48108  14.672   6.070   0.431  0.0932 -0.1032  0.0199
28575ION     NA48109  18.460  10.783   9.935 -0.0452  0.0646 -0.1698
28576ION     NA48110  18.387  17.437   4.956  0.0048  0.1856  0.1228
28577ION     NA48111   6.555  16.172  10.057 -0.0013  0.1048  0.0437
28578ION     NA48112   9.465   3.135   3.855  0.0855 -0.4951  0.0612
28579ION     NA48113   1.576   4.413  14.084  0.0768  0.0225 -0.1431
28580ION     NA48114   3.678   4.522   9.684 -0.2845 -0.4362  0.1522
28581ION     NA48115   3.407   2.445   1.576  0.1400  0.1384 -0.2294
28582ION     NA48116   9.646  15.953   0.776 -0.0293 -0.0924  0.2899
28583ION     NA48117  12.549  13.665  13.872 -0.1213 -0.2555 -0.1191
28584ION     NA48118  18.384   8.182   4.588  0.0530  0.0309 -0.2927
28585ION     NA48119   7.888  11.680   9.988  0.1218  0.0533 -0.1277
28586ION     NA48120   7.767  11.722  12.237 -0.0425 -0.3427 -0.2967
28587ION     NA48121   5.143   4.209  12.795  0.0656 -0.3356 -0.2086
28588ION     NA48122  11.448  17.074   4.870  0.0892 -0.1793  0.0771
28589ION     NA48123   7.854   2.526  12.962 -0.0193 -0.2134  0.2414
28590ION     NA48124  17.017   8.078   9.634  0.1688  0.0660  0.1379
28591ION     NA48125  10.104   1.918   0.465  0.2464  0.0288 -0.0067
28592ION     NA48126   1.547   9.223  10.208  0.1562  0.0356 -0.1289
28593ION     NA48127   2.538  14.441  12.552  0.5229 -0.2728  0.0844
28594ION     NA48128   0.541  11.725   3.108  0.0800 -0.7497 -0.0571
28595ION     NA48129   7.702  13.279   4.993  0.0855  0.0355  0.1885
28596ION     NA48130   1.708  15.825  14.709  0.1176 -0.0792 -0.0853
28597ION     NA48131  12.107   0.299   4.422 -0.0117 -0.1431  0.0509
28598ION     NA48132  14.732  18.783   4.898 -0.0222  0.1167  0.2600
28599ION     NA48133   0.212  13.261   3.467 -0.1436 -0.2153 -0.1153
28600ION     NA48134  16.692  16.086   3.408 -0.1843  0.1623  0.2540
28601ION     NA48135  13.482  17.730  10.267  0.2008  0.2816  0.0038
28602ION     NA48136   2.463   1.394   9.451 -0.0579  0.1645  0.2083
28603ION     NA48137  13.063   4.573   3.417 -0.3626 -0.0645  0.1583
28604ION     NA48138   7.590   8.557  12.346 -0.2491  0.2817 -0.0470
28605ION     NA48139   2.111   4.449   3.236  0.1176  0.0281  0.2283
28606ION     NA48140   8.855   6.986  10.246  0.0741 -0.3504 -0.0220
28607ION     NA48141   6.325   3.942   5.043 -0.0101 -0.4215  0.3168
28608ION     NA48142   6.707   0.626  13.490  0.0462 -0.2954  0.2610
28609ION     NA48143   2.113  15.831   5.034  0.0093 -0.1320 -0.0786
28610ION     NA48144   1.388   4.362   2.453 -0.0246  0.1689  0.0850
28611ION     NA48145  18.371   7.504   2.496  0.1696 -0.1412  0.0671
28612ION     NA48146  18.615   0.556  13.779  0.1029 -0.2192  0.4764
28613ION     NA48147   4.037  14.620   5.140  0.0886 -0.2734 -0.1252
28614ION     NA48148  16.334   5.759   4.702 -0.0094  0.0569 -0.0535
28615ION     NA48149   1.564   9.759   5.047 -0.0405  0.1493  0.0014
28616ION     NA48150   8.273   3.596  14.640  0.3409 -0.1138  0.0830
28617ION     NA48151  12.057   3.457   5.030 -0.1290 -0.0916  0.1346
28618ION     NA48152   6.872  13.487   1.023  0.0490  0.0454  0.1582
28619ION     NA48153  14.524   2.530   9.700  0.0439 -0.1624 -0.0435
28620ION     NA48154   2.005   7.638   4.918  0.1255 -0.0362 -0.0691
28621ION     NA48155  12.476   9.159   9.898  0.2528  0.1414 -0.0091
28622ION     NA48156   4.433  17.748  12.549 -0.1009  0.1799 -0.2562
28623ION     NA48157   1.545  16.487   0.596  0.1266  0.1076  0.1528
28624ION     NA48158   9.477   3.802   5.167  0.2045  0.2718 -0.2792
28625ION     NA48159  13.898   9.403   9.766  0.1122  0.1390  0.0638
28626ION     NA48160  15.952   3.054   9.846 -0.0900  0.0862  0.1062
28627ION     NA48161  11.481   1.553   1.006  0.1005  0.0808  0.0407
28628ION     NA48162   3.102   3.024  10.103  0.3404 -0.1828 -0.0639
28629ION     NA48163  15.169   4.499   4.967 -0.2110  0.0944 -0.2131
28630ION     NA48164  18.081  12.552   3.742 -0.0245 -0.3919 -0.3948
28631ION     NA48165   3.864   6.700   9.784  0.3897 -0.0906 -0.2070
28632ION     NA48166  15.433   4.531  10.208  0.0449  0.2832 -0.0753
28633ION     NA48167   0.947  17.185   4.938  0.0022 -0.0316 -0.1043
28634ION     NA48168   9.550   4.981   9.982 -0.0776  0.0224 -0.0258
28635ION     NA48169  10.692   6.862   9.906  0.1693 -0.1351 -0.1145
28636ION     NA48170   0.948  12.369  10.039  0.2908 -0.1427  0.0879
28637ION     NA48171   8.667  13.074   3.179 -0.2726  0.1719  0.4442
28638ION     NA48172  18.892   2.251  11.161 -0.0101  0.0079  0.0149
28639ION     NA48173   6.464   3.950   9.731  0.0728  0.0272 -0.0190
28640ION     NA48174   0.952  18.037   5.184  0.3049  0.1258 -0.0402
28641ION     NA48175   5.155   1.317   5.049 -0.1642  0.1761  0.3146
28642ION     NA48176   8.410   2.426   5.317  0.2550  0.0992 -0.2390
28643ION     NA48177   8.314   4.951   4.820  0.0483 -0.3750  0.1038
28644ION     NA48178   5.141  11.350  12.292  0.1303 -0.1044 -0.0586
28645ION     NA48179   6.580   5.489  11.184  0.0551  0.1027 -0.1017
28646ION     NA48180   0.292  13.887   9.956  0.0043  0.4205 -0.2288
28647ION     NA48181  12.182   4.928   1.145 -0.0207 -0.4001  0.0636
28648ION     NA48182  16.108  18.992   9.824  0.2145  0.0461  0.0222
28649ION     NA48183   6.125   3.653   4.112 -0.0243  0.1978  0.0805
28650ION     NA48184  13.952   2.766  14.620  0.0602  0.0216 -0.3421
28651ION     NA48185   3.061   8.059   4.977 -0.0568  0.0933 -0.0492
28652ION     NA48186   6.696  16.316   5.111  0.2135 -0.1868 -0.0731
28653ION     NA48187  18.638  13.545  14.437  0.1056  0.2212 -0.0582
28654ION     NA48188   6.487  10.310  10.131 -0.1104 -0.2313 -0.1663
28655ION     NA48189  16.865  17.145   5.024 -0.0070  0.1287  0.0657
28656ION     NA48190  14.819   5.999   4.725  0.1050  0.2597  0.1285
28657ION     NA48191  18.003   1.435   9.665  0.1021 -0.1166  0.3113
28658ION     NA48192   1.898   0.712  12.559  0.3477  0.0977  0.1673
28659ION     NA48193  10.809   4.714   5.059 -0.2505 -0.2272 -0.1523
28660ION     NA48194  17.033   8.344   3.900 -0.3266  0.1898  0.1619
28661ION     NA48195  12.342   6.765   4.466 -0.1949 -0.1775 -0.0121
28662ION     NA48196   6.526   2.954   5.126 -0.3440  0.1431 -0.1903
28663ION     NA48197  15.897   5.183  11.677 -0.2177 -0.0474 -0.1170
28664ION     NA48198  13.461   1.010   9.877 -0.0759 -0.0375  0.2969
28665ION     NA48199   3.786   1.090   9.868 -0.0786  0.2239 -0.4462
28666ION     NA48200  11.302  12.599   1.270 -0.0665  0.2568 -0.0091
28667ION     NA48201  13.189   7.999  14.022 -0.3591 -0.0393  0.0527
28668ION     NA48202  17.083   1.353   4.945  0.3077  0.0884 -0.0257
28669ION     NA48203   7.992  13.710   9.891  0.0539 -0.1329 -0.0232
28670ION     NA48204   7.975  15.653   5.074  0.2616 -0.1956 -0.0390
28671ION     NA48205   3.515   3.299   1.267 -0.0491  0.0701 -0.1850
28672ION     NA48206  19.016  18.003   5.107 -0.1004 -0.1148 -0.2824
28673ION     NA48207   4.567  15.094   0.238 -0.1364 -0.1265 -0.0504
28674ION     NA48208  14.745   8.095   4.941  0.4320 -0.2846 -0.1243
28675ION     NA48209   4.420  14.491  10.600 -0.1698  0.0105 -0.0010
28676ION     NA48210   4.303  13.004  14.111  0.2732 -0.1707  0.0634
28677ION     NA48211  13.326   8.745   9.711  0.1951  0.1260 -0.0957
28678ION     NA48212  17.615   1.049   1.775 -0.1540 -0.1738  0.2156
28679ION     NA48213  17.649   2.544   4.851 -0.3484  0.2141 -0.0223
28680ION     NA48214  16.807   9.905  13.647 -0.1157  0.1421 -0.0432
28681ION     NA48215   6.225  17.992  13.269  0.2445 -0.1985  0.3316
28682ION     NA48216  16.274  13.156  10.439  0.2671  0.1053  0.0309
28683ION     NA48217  15.797  12.218   9.743 -0.2931  0.1209  0.1093
28684ION     NA48218  14.692  10.828   1.549  0.0553  0.0357  0.0343
28685ION     NA48219   5.736   9.909   5.012 -0.1612 -0.0915 -0.0120
28686ION     NA48220   3.149  16.098  10.324 -0.1442  0.0111  0.1887
28687ION     NA48221  16.814  14.821   4.934 -0.1159 -0.1205  0.1236
28688ION     NA48222   3.528   9.897   5.171 -0.0609 -0.0760  0.1485
28689ION     NA48223  12.821   8.825   4.502 -0.1081 -0.0329 -0.0298
28690ION     NA48224   4.321   6.516   4.822 -0.0157 -0.1983 -0.2999
28691ION     NA48225  16.060  18.745  11.201  0.1202 -0.0938 -0.3185
28692ION     NA48226   0.911   0.483   9.827  0.3185  0.0076  0.2880
28693ION     NA48227   1.103  17.558  14.799  0.0402  0.0152 -0.2995
28694ION     NA48228   9.235   8.392  13.159  0.2096 -0.0276 -0.0899
28695ION     NA48229   5.026  17.402  13.426 -0.0504 -0.3091 -0.0202
28696ION     NA48230   3.231  15.989  13.349  0.1418 -0.2067  0.0926
28697ION     NA48231  14.747  10.464   4.986 -0.1962  0.1301  0.0534
28698ION     NA48232  11.022  19.065  10.991 -0.1878 -0.0214 -0.1273
28699ION     NA48233   9.728   3.766  10.196 -0.1844 -0.2409 -0.1705
28700ION     NA48234   1.109  14.440   5.039  0.1717  0.1781 -0.1653
28701ION     NA48235  14.784   7.218   5.111 -0.0259  0.1684 -0.0913
28702ION     NA48236  14.316   1.211   9.988  0.0757  0.0902  0.2189
28703ION     NA48237   2.245  17.580  10.683  0.0841  0.1595 -0.0890
28704ION     NA48238   7.350   0.360   2.174  0.0600 -0.1049 -0.1995
28705ION     NA48239   2.533  11.652   0.123 -0.0756 -0.1212  0.0484
28706ION     NA48240  13.646   8.407   4.856  0.1727  0.0625 -0.1309
28707ION     NA48241   1.379   4.870  10.331 -0.1647  0.1433  0.0933
28708ION     NA48242  16.065  16.380   1.083  0.4544 -0.0644 -0.0074
28709ION     NA48243  16.143   9.766   9.485 -0.0279 -0.2496 -0.1848
28710ION     NA48244  10.534   3.641   1.307 -0.0655 -0.3728 -0.0712
28711ION     NA48245   5.022  12.934   5.113  0.1103  0.1589 -0.0907
28712ION     NA48246   9.398  17.610  11.738  0.2221 -0.1606  0.0030
28713ION     NA48247  12.793   2.754   3.807  0.1605  0.1158  0.0969
28714ION     NA48248   9.098   0.508   5.287  0.0933 -0.1369  0.1826
28715ION     NA48249   5.762   1.437  14.149  0.0075  0.1258 -0.1378
28716ION     NA48250   2.874  15.426   5.200  0.1470  0.6599  0.0977
28717ION     NA48251  15.471  14.687   9.933 -0.0544 -0.0596  0.3287
28718ION     NA48252  11.413  12.809   5.295  0.2440 -0.0436 -0.0339
28719ION     NA48253   8.546  10.123   5.181  0.1640  0.0789 -0.0548
28720ION     NA48254  10.451  15.843   5.316  0.0045 -0.0047 -0.1701
28721ION     NA48255   0.327  10.049  14.063 -0.0855 -0.1789 -0.2160
28722ION     NA48256  17.292  16.115   5.127 -0.0823  0.0732  0.2084
28723ION     NA48257  14.867  13.375   2.025  0.1569  0.2174  0.5319
28724ION     NA48258  15.854   0.314   5.276 -0.1075 -0.2472  0.0658
28725ION     NA48259  12.336  12.602   5.091 -0.0564 -0.2460 -0.1479
28726ION     NA48260  18.280   5.132   0.659  0.2633 -0.0511  0.2488
28727ION     NA48261  17.303   0.700  14.521 -0.0807 -0.0866  0.4581
28728ION     NA48262   0.398  18.234  10.266 -0.0397 -0.0213  0.0879
28729ION     NA48263  15.515  15.932  13.058  0.1875  0.1528 -0.2956
28730ION     NA48264   8.651   2.636  11.251  0.1897  0.1495  0.2824
28731ION     NA48265   5.051  11.919  10.163  0.3248 -0.0625  0.1486
28732ION     NA48266   3.373  14.716  10.232 -0.1710 -0.1234 -0.3042
28733ION     NA48267   3.982   9.272  14.622  0.2578  0.0078 -0.0447
28734ION     NA48268  10.446  10.225   5.079  0.0691  0.1593  0.3351
28735ION     NA48269  15.394   5.536  10.856  0.0200  0.0308 -0.2759
28736ION     NA48270   6.975  16.660  13.403  0.1157 -0.3691 -0.1880
28737ION     NA48271   7.657  11.115   3.920  0.3049 -0.2227  0.0371
28738ION     NA48272   2.473  10.949  14.232 -0.0022 -0.0444  0.2497
28739ION     NA48273   6.834  13.723   4.950  0.4500  0.0084  0.0236
28740ION     NA48274  13.956  14.702  14.039  0.2145  0.1368  0.2039
28741ION     NA48275  15.887   0.766  10.874  0.1735 -0.1094  0.0099
28742ION     NA48276  15.273   1.448  13.647  0.3336 -0.1925 -0.0899
28743ION     NA48277  15.567  11.241   2.827 -0.3397  0.2338  0.0898
28744ION     NA48278   3.963   7.764  14.103  0.2207  0.1086 -0.0149
28745ION     NA48279  19.068   3.875  11.777  0.0748  0.0832 -0.0169
28746ION     NA48280  13.587  11.927  13.631 -0.0687  0.1150  0.0628
28747ION     NA48281  13.178  10.455   4.509 -0.0298  0.1033 -0.1128
28748ION     NA48282   8.913   2.016  10.335 -0.0263  0.0542 -0.0136
28749ION     NA48283   8.939   6.365   5.123 -0.3504 -0.3658  0.1646
28750ION     NA48284   2.698  16.712  10.299  0.0487  0.0552  0.0856
28751ION     NA48285  14.341  15.589   3.355 -0.0303 -0.0729 -0.2075
28752ION     NA48286   1.689   9.499   1.422 -0.2563  0.0560 -0.0353
28753ION     NA48287  10.787  13.773   1.266 -0.0406  0.0610 -0.0713
28754ION     NA48288  12.381  10.052  10.165 -0.4897 -0.1467  0.2677
28755ION     NA48289   4.060  11.954   0.180 -0.2599 -0.0110 -0.3189
28756ION     NA48290  15.188   0.769  11.756 -0.2384 -0.3409  0.0756
28757ION     NA48291   3.439  11.206  10.413  0.1725 -0.2337 -0.3144
28758ION     NA48292   2.112  13.966   5.110 -0.3186  0.2479  0.0842
28759ION     NA48293  12.525  11.238   4.930 -0.5348  0.1237  0.3473
28760ION     NA48294  16.890   2.264   4.913  0.1604  0.0260 -0.3101
28761ION     NA48295   1.844  16.235  10.302  0.1386 -0.0224  0.0627
28762ION     NA48296  14.286   2.936   1.544 -0.3239 -0.2393  0.0739
28763ION     NA48297  13.259  13.037   5.096 -0.3917  0.0211 -0.0596
28764ION     NA48298  11.389   0.315  10.255  0.1128  0.1826 -0.0016
28765ION     NA48299  17.095   5.306   4.649  0.2889  0.1214 -0.2765
28766ION     NA48300  16.718  17.855  11.020  0.3125  0.0451 -0.2600
28767ION     NA48301   9.796  15.255   5.041 -0.0568  0.1473  0.3888
28768ION     NA48302  10.793   8.241   2.964  0.0304  0.0506  0.1243
28769ION     NA48303   8.845  17.538   4.795 -0.2230  0.3555 -0.2822
28770ION     NA48304  15.127   9.879  13.907 -0.0051 -0.0978 -0.1303
28771ION     NA48305  14.339  11.252   3.078 -0.0162  0.1076  0.1330
28772ION     NA48306   5.070  11.377   5.179  0.2331  0.0605  0.0239
28773ION     NA48307  12.866  10.865   0.155  0.0133  0.0118  0.2200
28774ION     NA48308  10.502  18.479   5.433 -0.0494 -0.2585  0.0048
28775ION     NA48309   7.693  15.331  14.380  0.0026 -0.1875 -0.0916
28776ION     NA48310  10.311   8.753   9.958  0.0252 -0.4397  0.0124
28777ION     NA48311   8.839  12.353  12.547 -0.1271  0.0826  0.0703
28778ION     NA48312   8.117   1.483  13.467  0.0125 -0.2631 -0.2910
28779ION     NA48313  16.540  13.943   4.905  0.2944 -0.0837  0.3278
28780ION     NA48314   3.731   0.390   5.051  0.0589  0.1526  0.2591
28781ION     NA48315  12.743   4.499  10.152  0.1430  0.2675  0.2299
28782ION     NA48316   1.375   1.927   4.843 -0.0242  0.3512 -0.0651
28783ION     NA48317  11.039   8.264   9.825  0.0798 -0.2280  0.0192
28784ION     NA48318  12.319   4.575   2.473 -0.1615  0.0463  0.0977
28785ION     NA48319   6.143   1.099   2.598  0.0019 -0.2934  0.1504
28786ION     NA48320   6.968   9.301   9.979  0.0626  0.0059 -0.1921
28787ION     NA48321  17.656  14.766   4.637  0.2289  0.0217 -0.3266
28788ION     NA48322  13.188   8.253  10.524 -0.0990  0.0702 -0.0192
28789ION     NA48323   4.607   8.470   9.847  0.0752 -0.1128 -0.1905
28790ION     NA48324  18.173  18.255   5.128  0.0447 -0.1645  0.0179
28791ION     NA48325  14.136   7.514   9.881 -0.1573  0.3220 -0.2528
28792ION     NA48326   4.265   1.731   9.735 -0.0186 -0.0800  0.0573
28793ION     NA48327   5.873   3.404  13.845  0.0121 -0.0901 -0.0152
28794ION     NA48328   4.522  18.933   5.012 -0.0466  0.1983 -0.0613
28795ION     NA48329  18.767  11.617  13.473  0.1741  0.0206 -0.0831
28796ION     NA48330  18.390   1.155  10.337 -0.2295  0.1156  0.2506
28797ION     NA48331   2.998   5.785  12.716  0.1567 -0.0456  0.5260
28798ION     NA48332   9.958  12.058   4.928  0.1311 -0.2319  0.2787
28799ION     NA48333   7.616   3.315  10.132  0.1904 -0.0521  0.1445
28800ION     NA48334  17.811   5.715   1.398 -0.1036  0.1871  0.2427
28801ION     NA48335  14.609  18.864  10.255 -0.0854 -0.4045  0.0564
28802ION     NA48336   4.734   5.316   4.868  0.1075  0.0463 -0.0935
28803ION     NA48337   1.706  10.357   1.452 -0.5700 -0.0715  0.1176
28804ION     NA48338  14.735  14.150   5.239  0.2029 -0.1636 -0.4531
28805ION     NA48339  12.045   5.023  14.112  0.0878 -0.0594 -0.2580
28806ION     NA48340  17.473   7.059  14.740  0.1607 -0.0007  0.2395
28807ION     NA48341   5.471   8.007  14.804  0.2448 -0.2046 -0.1549
28808ION     NA48342  10.450  13.276  10.442  0.1042 -0.2079  0.4308
28809ION     NA48343   1.486  14.914  10.324 -0.1369 -0.2445 -0.0447
28810ION     NA48344   2.854   6.693   9.726  0.0859 -0.1230  0.1466
28811ION     NA48345   5.749   4.532   4.760 -0.2463 -0.1152 -0.2048
28812ION     NA48346   4.134  11.072   5.241  0.0233  0.0844 -0.0443
28813ION     NA48347  11.451   7.244  10.125  0.3024 -0.1136  0.0901
28814ION     NA48348  16.073   2.546   4.773  0.0637 -0.1939 -0.1047
28815ION     NA48349  14.811   5.218  13.266 -0.0494 -0.3185  0.1859
28816ION     NA48350   9.273   7.245   4.683  0.0995 -0.2395 -0.2773
28817ION     NA48351  18.918   0.470  11.560 -0.4193  0.4227  0.0411
28818ION     NA48352   9.942  11.460   0.490 -0.3439  0.1589 -0.0453
28819ION     NA48353  11.202   5.645  13.513  0.0524 -0.4951  0.3387
28820ION     NA48354   4.166   5.191   2.068  0.1283  0.3238 -0.1908
28821ION     NA48355   7.579   9.402  14.165 -0.2555  0.1299  0.4396
28822ION     NA48356   6.846   8.500   2.692 -0.1271 -0.0900 -0.1567
28823ION     NA48357   2.191   2.506   4.507  0.0723 -0.2626  0.3786
28824ION     NA48358  17.673   5.993   4.640 -0.0584 -0.1764 -0.1541
28825ION     NA48359  15.034  15.541  10.006  0.1896 -0.3123 -0.0959
28826ION     NA48360   4.970  12.999   3.047  0.2847 -0.0304  0.0104
28827ION     NA48361  10.568   5.069  10.062 -0.0527  0.4932  0.1297
28828ION     NA48362  15.351  11.239   4.928 -0.3064  0.1625 -0.1909
28829ION     NA48363   4.283  13.761  11.846  0.0063 -0.1716 -0.1290
28830ION     NA48364   2.247   3.546   4.699  0.1053 -0.0043  0.1863
28831ION     NA48365  18.891   5.232   4.688  0.1824 -0.0869 -0.1785
28832ION     NA48366  18.923   8.244   5.114  0.0732  0.0510 -0.0089
28833ION     NA48367   4.079  13.031  10.458 -0.1732  0.1982  0.1234
28834ION     NA48368  16.602   6.920   9.600 -0.2019  0.0004  0.1264
28835ION     NA48369  16.472  15.916   9.976 -0.1682  0.1120 -0.3357
28836ION     NA48370   8.513   2.607  13.675  0.1565 -0.1415 -0.0502
28837ION     NA48371   9.185  15.631  13.587 -0.0518  0.1872  0.3046
28838ION     NA48372  16.829   0.346   4.951  0.0819 -0.0696  0.0147
28839ION     NA48373   0.912   0.299   1.972  0.4717 -0.0708 -0.0258
28840ION     NA48374   9.120  17.301  10.297  0.1469 -0.0417 -0.1145
28841ION     NA48375  15.571   7.082   2.232 -0.0602 -0.3002 -0.1325
28842ION     NA48376   3.938  11.936   2.479  0.2896 -0.2016 -0.2092
28843ION     NA48377   7.072  15.407   4.961 -0.2289  0.4006 -0.1354
28844ION     NA48378   1.332   3.425   4.964  0.1836 -0.0957 -0.3463
28845ION     NA48379  18.743   4.808  12.504 -0.1488 -0.0329  0.1059
28846ION     NA48380  15.237   1.491   9.856  0.2318  0.1224  0.1226
28847ION     NA48381  10.466   1.204   5.486 -0.0216  0.1406 -0.0034
28848ION     NA48382  15.299  16.828   5.134  0.4640  0.0846  0.1998
28849ION     NA48383   7.164  18.258   3.961 -0.2177 -0.1690 -0.3803
28850ION     NA48384  15.150  17.329   3.101  0.0297 -0.3090  0.1266
28851ION     NA48385   2.365  10.356  13.109 -0.4007 -0.3188 -0.0425
28852ION     NA48386  12.412   6.101  10.422 -0.1100 -0.2378  0.3182
28853ION     NA48387  11.182  12.440  10.081  0.0498 -0.1595 -0.0372
28854ION     NA48388   8.332   4.639  10.084  0.2155  0.1396 -0.0279
28855ION     NA48389  12.084   5.233   2.823 -0.1969  0.0541  0.0950
28856ION     NA48390   6.510   0.636  10.142  0.1323  0.0569 -0.0822
28857ION     NA48391   2.337   9.284   4.743  0.0395 -0.1075  0.0607
28858ION     NA48392   0.301  14.420   5.064 -0.1630 -0.4439  0.0572
28859ION     NA48393   2.641  16.434   5.094 -0.0032  0.3425 -0.2413
28860ION     NA48394   0.931  18.904   5.255  0.2630 -0.3868  0.3231
28861ION     NA48395   8.226  11.837   0.405  0.4826 -0.1494  0.0598
28862ION     NA48396   6.254   1.882  12.151 -0.0232  0.0839 -0.1270
28863ION     NA48397   7.649  11.247  14.087  0.1789  0.0690  0.0471
28864ION     NA48398  16.222   3.478   2.322  0.1905 -0.2932 -0.0603
28865ION     NA48399  19.107   6.569   9.485  0.0567 -0.1911 -0.3696
28866ION     NA48400  13.877   6.940  10.686 -0.1259 -0.1278  0.2938
28867ION     NA48401  17.115  16.526  10.279 -0.1634  0.2575  0.2492
28868ION     NA48402  15.012  11.674  10.827 -0.1963  0.4114  0.0060
28869ION     NA48403  17.065   0.913   0.956  0.3124 -0.0585 -0.3938
28870ION     NA48404  16.259  11.423   4.891  0.0169 -0.0222 -0.0386
28871ION     NA48405  10.816   4.019   4.520  0.2421  0.1249  0.5166
28872ION     NA48406  16.748  18.071  12.025 -0.0340  0.0641 -0.0163
28873ION     NA48407  12.469  12.046   3.169 -0.0272 -0.1355 -0.1046
28874ION     NA48408   4.968   2.201   1.137  0.1363 -0.1031 -0.0133
28875ION     NA48409   3.784  17.585   3.823 -0.1807 -0.2057 -0.0189
28876ION     NA48410  14.246  18.503   3.049  0.1781  0.2670  0.0327
28877ION     NA48411  17.077  15.215   9.662  0.2421  0.1259  0.3090
28878ION     NA48412   6.988   7.943   1.418  0.2386 -0.0582  0.0203
28879ION     NA48413  15.519  10.429  11.557 -0.3897  0.0131  0.0075
28880ION     NA48414   6.229  13.627   4.855 -0.1585 -0.3488  0.0402
28881ION     NA48415  17.116   6.571  12.767 -0.1094 -0.2435  0.2398
28882ION     NA48416   7.096  17.479  12.971  0.1288  0.0526  0.0434
28883ION     NA48417   3.075  14.157   4.972  0.1717  0.0511 -0.1089
28884ION     NA48418  14.608  10.360  13.196 -0.0271 -0.1265  0.0076
28885ION     NA48419   3.527  18.171   5.453 -0.1732 -0.0485 -0.2593
28886ION     NA48420   0.238   1.270  12.977 -0.0029 -0.1737  0.0525
28887ION     NA48421  11.089  17.947   5.013 -0.1164 -0.0641 -0.1787
28888ION     NA48422   5.316  15.076  13.408 -0.2626  0.1303 -0.3810
28889ION     NA48423   4.441  17.568   5.311 -0.1238  0.2286  0.1279
28890ION     NA48424  14.317   9.638  11.749  0.0276 -0.1672 -0.0285
28891ION     NA48425  11.682  16.151  12.857  0.2909  0.2835 -0.0748
28892ION     NA48426   8.949  12.840   5.283 -0.2667 -0.0458  0.3840
28893ION     NA48427  12.177  10.526  10.073 -0.2176  0.1598 -0.0328
28894ION     NA48428  14.160  17.558  13.343 -0.0515 -0.0544  0.1952
28895ION     NA48429  13.322   2.487  10.000  0.2041  0.0021 -0.2208
28896ION     NA48430   8.698  12.623   9.657  0.0192 -0.0714  0.0532
28897ION     NA48431   8.145   5.554   1.984  0.0344  0.3753 -0.1137
28898ION     NA48432  11.547   8.086  14.361 -0.1652  0.0923  0.0299
28899ION     NA48433   3.276  16.505   2.629 -0.0533 -0.1128 -0.1141
28900ION     NA48434  16.425  17.779   5.026  0.3021  0.1581 -0.2131
28901ION     NA48435  19.057   2.163   4.724 -0.0265 -0.1412 -0.0874
28902ION     NA48436  10.627   2.593   5.107  0.2134 -0.1727 -0.2278
28903ION     NA48437   8.576  17.984   1.068  0.3534 -0.2010 -0.0155
28904ION     NA48438   7.614   0.667   1.611  0.0826 -0.1868  0.2665
28905ION     NA48439  15.033   5.505   9.975 -0.2210  0.1717 -0.1158
28906ION     NA48440   3.129   3.274   9.579 -0.1539 -0.1501  0.0710
28907ION     NA48441  17.545   0.808   5.098  0.0335 -0.0198 -0.2420
28908ION     NA48442   7.202   7.877   9.761 -0.0645 -0.1160 -0.3636
28909ION     NA48443  10.553  15.299   3.505 -0.0812  0.3381  0.2390
28910ION     NA48444   8.805  13.298   0.035  0.1809 -0.2560  0.0658
28911ION     NA48445  17.423  13.893   4.891 -0.1675 -0.0299  0.2422
28912ION     NA48446  10.276  13.438   9.885  0.0582  0.2717  0.0169
28913ION     NA48447   9.754  17.386   4.760  0.1410  0.1763  0.1132
28914ION     NA48448  11.539  14.970   5.076  0.0907  0.0012 -0.0404
28915ION     NA48449  19.021   5.690   9.641  0.0077  0.0506  0.0880
28916ION     NA48450   6.831   5.547   9.714  0.1438  0.0335  0.1011
28917ION     NA48451   9.754   8.980   4.683  0.1403  0.2105 -0.1933
28918ION     NA48452   2.644   8.919   0.153 -0.0457 -0.1115 -0.0863
28919ION     NA48453  13.994   3.879   0.242  0.0505  0.1043  0.2884
28920ION     NA48454  11.217  10.309  10.163 -0.0170 -0.1882  0.2454
28921ION     NA48455  16.354  10.637   9.876 -0.0640 -0.3125  0.1378
28922ION     NA48456  14.367  10.358  12.374  0.0254 -0.0825  0.1980
28923ION     NA48457   0.087   4.487   9.468 -0.2378  0.2474 -0.0084
28924ION     NA48458   8.015  19.012   5.021 -0.4262 -0.0861 -0.1620
28925ION     NA48459  14.412  12.238   5.008 -0.0952  0.1583 -0.0974
28926ION     NA48460   4.506   0.316   0.644  0.2102  0.3794 -0.2264
28927ION     NA48461   5.222  10.603   4.823  0.0683  0.1073 -0.0265
28928ION     NA48462  13.678  11.507   4.099 -0.1943  0.0545  0.0264
28929ION     NA48463  15.428  13.516   4.995 -0.2397 -0.0885  0.1179
28930ION     NA48464   6.466  14.605   3.570  0.0157 -0.2359  0.1246
28931ION     NA48465   3.026  12.818  14.698 -0.0369  0.1053  0.1092
28932ION     NA48466   8.851  18.902  11.419 -0.2205  0.0591 -0.1198
28933ION     NA48467   3.321  13.670  13.323 -0.2464 -0.0935  0.0679
28934ION     NA48468   7.471  17.574  11.443 -0.0774  0.3113  0.2907
28935ION     NA48469  18.605   5.754   4.509  0.0291  0.2008  0.0309
28936ION     NA48470  12.977   0.655  14.166  0.2574  0.1445  0.0729
28937ION     NA48471   5.601   9.032   5.126  0.2190 -0.1428 -0.2192
28938ION     NA48472  14.018   0.178   9.894 -0.2543 -0.3359 -0.2108
28939ION     NA48473   7.327   7.767  13.532  0.1600  0.2915 -0.0987
28940ION     NA48474  13.060   4.236   0.960 -0.0664 -0.1321 -0.1705
28941ION     NA48475   6.054   8.950   9.918 -0.0874 -0.2660  0.1631
28942ION     NA48476   1.675  17.167  10.678 -0.2044  0.1579  0.1597
28943ION     NA48477  13.235   5.695   4.885 -0.1049  0.2648  0.0147
28944ION     NA48478  16.281  18.463  13.951 -0.4358  0.1300 -0.0614
28945ION     NA48479   9.492  11.245  10.977  0.0965 -0.0144 -0.3519
28946ION     NA48480   6.139   4.833   9.649 -0.3078  0.0391  0.0336
28947ION     NA48481  15.953   6.884   1.252 -0.0858  0.1774 -0.3015
28948ION     NA48482   0.174  15.880   4.838 -0.0091  0.2718  0.1509
28949ION     NA48483   3.971   7.595   9.907 -0.6477  0.0973  0.2317
28950ION     NA48484  13.173   2.038   4.903 -0.0042 -0.2286  0.0749
28951ION     NA48485   7.292  14.066   9.922 -0.0283  0.1610  0.1282
28952ION     NA48486   5.501   7.354   9.782  0.0746  0.2257  0.1692
28953ION     NA48487   8.685  17.272  13.958  0.3397 -0.0356 -0.1930
28954ION     NA48488   7.254   8.137   4.848 -0.0723 -0.1959 -0.2069
28955ION     NA48489   0.393  14.782  10.855  0.2905  0.2759  0.2849
28956ION     NA48490  13.485   3.685   9.807 -0.0655  0.1511 -0.1847
28957ION     NA48491   4.396   9.221   5.062 -0.4846  0.2245 -0.2170
28958ION     NA48492   9.014   7.963  10.083 -0.0459 -0.2778 -0.0539
28959ION     NA48493   8.556   5.534  11.267 -0.4207 -0.1340 -0.3234
28960ION     NA48494  18.148  18.608   9.619  0.1334  0.2405 -0.3249
28961ION     NA48495   7.959   7.656   5.105 -0.1358 -0.0379  0.2890
28962ION     NA48496   4.674  12.127   5.311  0.1007  0.1342  0.0732
28963ION     NA48497   1.401  10.667  11.116 -0.2509  0.0335  0.1207
28964ION     NA48498  12.140  18.749  10.546 -0.1194 -0.2436 -0.0758
28965ION     NA48499  10.536  14.059   4.622  0.2716 -0.2767 -0.1998
28966ION     NA48500   2.684  12.787  10.392  0.3427  0.0338 -0.0184
28967ION     NA48501   7.631  18.475   3.139  0.1166  0.2878 -0.0590
28968ION     NA48502   2.812   5.180  14.132  0.1400  0.3779  0.0173
28969ION     NA48503  16.502   8.321   4.870 -0.2275 -0.4416 -0.0574
28970ION     NA48504   3.982  14.952  11.927  0.0820  0.1218 -0.1507
28971ION     NA48505  15.938  10.538   4.974 -0.1985  0.1079  0.3395
28972ION     NA48506   8.953  14.960   4.812 -0.2448 -0.1167  0.0339
28973ION     NA48507  17.266   0.950   9.745  0.2221 -0.1651 -0.0901
28974ION     NA48508   2.750  18.628   9.610  0.3148  0.2187 -0.1044
28975ION     NA48509   9.709  15.911   2.209 -0.1222 -0.1929  0.0252
28976ION     NA48510   0.684   5.238   9.621 -0.0877  0.2089  0.2544
28977ION     NA48511  18.829  18.145  11.386  0.0063 -0.0477 -0.0499
28978ION     NA48512   5.131   2.159   9.621 -0.0058 -0.0792  0.1340
28979ION     NA48513   9.706   8.087   5.107 -0.0542  0.3570  0.1790
28980ION     NA48514  14.742  16.512   3.427 -0.1707  0.0574 -0.0060
28981ION     NA48515   0.232  10.861  13.737  0.0689  0.1002  0.1673
28982ION     NA48516  10.213   3.379   4.942  0.1821 -0.0983  0.0058
28983ION     NA48517  11.496  14.851  10.269 -0.0102 -0.1110  0.3297
28984ION     NA48518   1.846   4.885   5.031  0.2081 -0.1373  0.1027
28985ION     NA48519  18.635  16.060   9.972  0.1117 -0.4588 -0.2847
28986ION     NA48520  18.894  16.835   9.687 -0.0875 -0.0499  0.0584
28987ION     NA48521  11.333   1.221  10.581  0.1070 -0.1868 -0.1116
28988ION     NA48522   2.354   7.246   4.809  0.3183  0.1707 -0.2644
28989ION     NA48523   5.004  10.209   9.886  0.1208 -0.0082 -0.1323
28990ION     NA48524   3.896  13.806  10.451 -0.2031 -0.0940  0.0904
28991ION     NA48525   2.047   3.761   9.543  0.2566  0.3510  0.1632
28992ION     NA48526   6.963   0.401   4.611 -0.3283  0.0423 -0.1480
28993ION     NA48527  16.157  11.067   0.430 -0.0507  0.0635 -0.0214
28994ION     NA48528   9.763   7.160  13.345 -0.0770  0.0897 -0.1184
28995ION     NA48529   9.737  14.616   4.654  0.0252 -0.1146  0.1337
28996ION     NA48530  19.089  18.975   5.029 -0.0801 -0.1369  0.1736
28997ION     NA48531  12.534   1.075   5.050  0.1533  0.0653 -0.2419
28998ION     NA48532  17.748  15.883   9.929 -0.1215  0.0289  0.0925
28999ION     NA48533   1.343   7.155   4.762  0.0407  0.0362  0.0723
29000ION     NA48534   7.626   5.628   0.006  0.1110  0.0663 -0.0787
29001ION     NA48535   1.818   1.280   5.119  0.1546  0.0381 -0.1563
29002ION     NA48536  15.216  17.690  13.223  0.0015  0.2019  0.0813
29003ION     NA48537  11.360   6.304  10.084  0.1761  0.2484  0.0007
29004ION     NA48538  17.729   2.222   9.854 -0.1493 -0.0716 -0.2784
29005ION     NA48539  13.331   1.555   9.985  0.1931  0.1620  0.2033
29006ION     NA48540  18.821  13.450   9.870 -0.0392 -0.0768  0.0419
29007ION     NA48541   8.750  14.536  12.672 -0.1108 -0.3367  0.0197
29008ION     NA48542  12.258   5.825   4.767 -0.3973 -0.0846 -0.0495
29009ION     NA48543   0.447  11.660   5.022  0.0146  0.0950 -0.0052
29010ION     NA48544   1.593  17.480   4.712 -0.1759 -0.0038  0.2453
29011ION     NA48545   5.693   3.348   9.625 -0.2760 -0.2109  0.1703
29012ION     NA48546   3.177  12.856   5.116  0.0025 -0.1818  0.2121
29013ION     NA48547   5.805   0.545  14.764  0.2659 -0.2427  0.2776
29014ION     NA48548  16.978   4.047   9.660  0.0523  0.1542 -0.0503
29015ION     NA48549  10.615   0.925  10.120 -0.0835 -0.0821 -0.1299
29016ION     NA48550   4.097  11.088  12.228 -0.1060 -0.1121  0.0632
29017ION     NA48551   7.196  14.494  14.178  0.0415  0.0730  0.1485
29018ION     NA48552   2.758  10.482   5.029  0.0790  0.0588  0.0728
29019ION     NA48553   9.983  18.336   0.733 -0.1662 -0.2182 -0.1606
29020ION     NA48554   8.238   3.537   1.403  0.1266 -0.2818 -0.1621
29021ION     NA48555   9.781  15.358   4.532  0.0643  0.2390 -0.1771
29022ION     NA48556  11.966  14.225   5.112  0.2512  0.1208  0.2377
29023ION     NA48557   4.258  14.711  10.173 -0.0630  0.0161 -0.1887
29024ION     NA48558  18.299  19.067   0.485  0.0331  0.0108 -0.4159
29025ION     NA48559  17.181   4.739   3.280 -0.1996  0.2288  0.0118
29026ION     NA48560   9.524   1.098  10.053  0.2744  0.0512  0.0257
29027ION     NA48561  14.732   1.372   1.647  0.1987  0.2256 -0.1550
29028ION     NA48562  18.510   3.961   9.734  0.0899 -0.3289  0.0525
29029ION     NA48563   1.649  18.499   5.197  0.1875  0.0235  0.0832
29030ION     NA48564  10.979   5.644   2.616  0.1310 -0.1924 -0.1476
29031ION     NA48565  12.332  17.019   2.657 -0.1296  0.1747 -0.0101
29032ION     NA48566   3.253   3.824   4.827 -0.2536 -0.2065  0.0553
29033ION     NA48567   4.579   4.576   0.888  0.1748 -0.1993 -0.0284
29034ION     NA48568  17.594  18.630   9.664  0.3023  0.1819 -0.0604
29035ION     NA48569   6.728  17.291  10.245  0.1682 -0.1205  0.3665
29036ION     NA48570  12.756   8.394   9.721  0.0543 -0.0208  0.1194
29037ION     NA48571   7.254   4.188   4.934  0.2411  0.0696 -0.2874
29038ION     NA48572  15.080  13.025  10.516 -0.1799  0.0634 -0.0782
29039ION     NA48573  18.990  15.034   5.045 -0.0293 -0.0973  0.0950
29040ION     NA48574  12.654  15.676   5.340 -0.1740 -0.2390 -0.0061
29041ION     NA48575  16.137  18.755   5.091 -0.3129 -0.4759  0.1360
29042ION     NA48576   4.775  15.711  10.300 -0.1056  0.0742  0.1782
29043ION     NA48577  12.390  18.267   5.328  0.0398  0.2075  0.0737
29044ION     NA48578  18.654   1.969   9.768  0.2450 -0.0200  0.0635
29045ION     NA48579   4.441   3.699  10.978  0.1650 -0.1936 -0.3494
29046ION     NA48580   8.858  13.439  10.009 -0.0463  0.0403 -0.2165
29047ION     NA48581   2.970   0.194  13.210 -0.0909  0.1005  0.1740
29048ION     NA48582  15.859  13.294   0.692  0.0398  0.2253  0.0273
29049ION     NA48583   8.191   0.169  11.157  0.1117 -0.1397 -0.4216
29050ION     NA48584  11.204   8.142   4.874  0.0329  0.1084  0.0267
29051ION     NA48585  11.725   1.070   5.332  0.3207 -0.1316  0.2166
29052ION     NA48586   8.431   3.494  10.011 -0.3006  0.2582 -0.2471
29053ION     NA48587  12.221   0.097   5.274  0.2686  0.2558 -0.2070
29054ION     NA48588   7.520   2.881   1.415 -0.0443  0.0798  0.0281
29055ION     NA48589  14.288   5.386   4.971  0.0588  0.3553  0.0711
29056ION     NA48590  18.295   7.048   4.739  0.2958  0.0187 -0.2485
29057ION     NA48591   2.361   9.938   3.542  0.3367 -0.2486  0.0745
29058ION     NA48592  14.410   6.397  14.363  0.2192 -0.2692  0.2535
29059ION     NA48593  12.479   3.531   3.573  0.3320 -0.1813 -0.4142
29060ION     NA48594  11.351   0.220   0.077 -0.1725 -0.1105 -0.2847
29061ION     NA48595  12.890   1.521   3.340  0.2708 -0.1484 -0.2978
29062ION     NA48596  13.499  14.367   9.794  0.4126  0.0677  0.0955
29063ION     NA48597   8.430   1.040  10.081  0.1373 -0.0649 -0.0983
29064ION     NA48598   3.370  16.912   1.789 -0.1940 -0.3122  0.2145
29065ION     NA48599   4.082  13.169   1.611  0.0694 -0.0130  0.1552
29066ION     NA48600   6.757  18.525   4.734  0.1013 -0.2883 -0.1321
29067ION     NA48601   7.886   5.611  13.887 -0.1795 -0.2125  0.1478
29068ION     NA48602  17.264  12.604   9.846  0.2540  0.0748  0.0882
29069ION     NA48603  11.170  14.002  10.112  0.0553  0.1310  0.2172
29070ION     NA48604   6.701   6.479   9.666  0.1793  0.1365  0.0265
29071ION     NA48605  14.971  12.473   9.735 -0.0003  0.3644 -0.4003
29072ION     NA48606   0.148   0.083  10.218  0.1920 -0.1699 -0.1949
29073ION     NA48607   0.708   6.217   9.581  0.2361  0.0608  0.0862
29074ION     NA48608  13.652   1.442   0.175 -0.1746  0.0519  0.3844
29075ION     NA48609  19.106   7.336  10.074 -0.1408  0.1459 -0.0422
29076ION     NA48610   5.950   4.758   3.749 -0.0017  0.2642 -0.1357
29077ION     NA48611  17.180  16.821  10.679 -0.0289  0.1163 -0.0951
29078ION     NA48612  12.605   4.188   4.988  0.0206 -0.1239  0.2161
29079ION     NA48613  16.621   9.933   4.951  0.0292  0.2788  0.0070
29080ION     NA48614   8.996   4.274  11.990  0.5329 -0.0309  0.1230
29081ION     NA48615  17.502  11.205   9.736 -0.1181  0.0972 -0.0366
29082ION     NA48616  18.310  18.842   4.981 -0.1280 -0.2309 -0.2297
29083ION     NA48617   1.019  10.211  10.149 -0.0154  0.0802 -0.1259
29084ION     NA48618   8.865   9.193   5.298 -0.2530 -0.0706 -0.0026
29085ION     NA48619   6.592   9.344  11.795  0.1856  0.0003  0.0927
29086ION     NA48620   1.316   6.791  14.448 -0.1258  0.1309  0.1620
29087ION     NA48621  10.300   9.786  10.079  0.0550  0.0086  0.1924
29088ION     NA48622   7.873   3.072   5.416 -0.1046  0.1030  0.2871
29089ION     NA48623  13.292   8.320   3.399  0.0417 -0.0394  0.1347
29090ION     NA48624   5.401   4.267   9.600 -0.1013  0.0592  0.2365
29091ION     NA48625   1.691   9.970   0.529  0.2200 -0.1830  0.1055
29092ION     NA48626  12.169   5.030   5.143 -0.0020  0.0498  0.2194
29093ION     NA48627   0.350   1.685  13.794  0.3241 -0.0511  0.1819
29094ION     NA48628   2.289  16.785  14.045  0.1976  0.4384  0.0149
29095ION     NA48629   9.720   1.682   5.370  0.0106 -0.2409 -0.0024
29096ION     NA48630   9.586   8.627  10.097 -0.2935 -0.0377 -0.2064
29097ION     NA48631  11.321  16.046   5.191 -0.2141  0.0355  0.2397
29098ION     NA48632   2.181   9.815  10.294  0.2601 -0.1343 -0.0489
29099ION     NA48633   3.723  11.791   5.466 -0.2536  0.0467 -0.0117
29100ION     NA48634  13.494   8.785   2.242 -0.0178 -0.3093  0.1160
29101ION     NA48635   0.181   3.068   9.717 -0.1964  0.0044 -0.2337
29102ION     NA48636  12.728   2.514  11.513 -0.0415  0.1443  0.0511
29103ION     NA48637  14.758  18.033  10.263 -0.1881 -0.2070  0.0831
29104ION     NA48638   6.846  17.271   3.752  0.1998 -0.0647  0.1651
29105ION     NA48639  17.745   2.040   4.679  0.0218  0.2393 -0.4852
29106ION     NA48640  15.955  13.976   9.668  0.2076  0.0966 -0.0620
29107ION     NA48641   8.891   0.490  10.213 -0.0273 -0.1746 -0.2895
29108ION     NA48642  18.053  12.692   5.053 -0.0983 -0.0509  0.0888
29109ION     NA48643  13.279  18.006  12.082  0.1982 -0.2033  0.1494
29110ION     NA48644  19.041  12.488   4.871 -0.0172  0.1987 -0.0103
29111ION     NA48645   8.843   6.739  14.195  0.1702 -0.0219 -0.0082
29112ION     NA48646  12.162  15.273  11.919 -0.2726  0.1437  0.0130
29113ION     NA48647  10.860   1.450  13.358  0.1829  0.0525 -0.0156
29114ION     NA48648  11.014  17.416  10.287 -0.0440  0.0484 -0.1058
29115ION     NA48649   7.576  10.254  11.491 -0.3043 -0.2395  0.0804
29116ION     NA48650   7.248   1.666  12.738  0.3478 -0.0393 -0.3730
29117ION     NA48651  12.130   1.815   5.234 -0.0106  0.1265 -0.2003
29118ION     NA48652  10.806  11.085  10.124  0.0428  0.0138 -0.1694
29119ION     NA48653   8.228   6.219   9.948  0.0137  0.0892 -0.0673
29120ION     NA48654  19.038  10.354   1.882 -0.0940 -0.1939  0.1081
29121ION     NA48655   0.726  14.428   3.766  0.1488  0.1651 -0.2359
29122ION     NA48656   9.033   8.894  10.047 -0.2209 -0.1088 -0.1704
29123ION     NA48657  19.091  16.646  10.981 -0.1353  0.1412  0.2548
29124ION     NA48658   9.416  10.216   9.856  0.0605  0.1192  0.1377
29125ION     NA48659  12.236  17.745  14.101  0.0985  0.1411  0.0531
29126ION     NA48660  18.501  17.829   0.494  0.0781 -0.0530 -0.0030
29127ION     NA48661   2.369  13.167   4.801 -0.4113 -0.0512  0.0545
29128ION     NA48662   2.800  13.458   1.757 -0.2604 -0.0935 -0.2057
29129ION     NA48663  13.402  12.630   0.243 -0.1173 -0.0781 -0.2515
29130ION     NA48664  10.758   5.651   5.126  0.0634  0.1093  0.1249
29131ION     NA48665  18.747  15.976   4.763  0.1367 -0.4529  0.0700
29132ION     NA48666   4.933   0.011  10.041 -0.0149  0.0054 -0.0194
29133ION     NA48667  18.275   2.227  12.673  0.1655  0.2599 -0.3103
29134ION     NA48668   0.627  13.272  13.788  0.2299 -0.0268 -0.0027
29135ION     NA48669  14.934   4.025   9.708 -0.1293  0.0419 -0.2205
29136ION     NA48670   3.129  13.474  10.402  0.2942  0.2724  0.1421
29137ION     NA48671  17.288  10.453   9.790  0.2512  0.0570 -0.1048
29138ION     NA48672   8.423   9.807   4.754  0.0392 -0.2309 -0.1078
29139ION     NA48673   0.923  18.669   1.687  0.0004 -0.2333  0.1559
29140ION     NA48674   6.597  12.401  12.425  0.0336 -0.1313 -0.0493
29141ION     NA48675  16.960  18.580   4.955  0.1210 -0.0113 -0.4111
29142ION     NA48676   2.817  11.934  10.094  0.1768  0.1891 -0.1942
29143ION     NA48677   1.934   4.810   9.586  0.1109 -0.1855 -0.0004
29144ION     NA48678   3.591   3.389   4.881 -0.1008 -0.0030 -0.3997
29145ION     NA48679  17.259  15.313  14.413 -0.0980  0.4009 -0.1779
29146ION     NA48680  15.560  17.246  10.218  0.1334 -0.0752 -0.1183
29147ION     NA48681  12.278   0.397   1.173  0.4101 -0.0746  0.3325
29148ION     NA48682   5.871   8.218   9.702 -0.1426 -0.1032  0.1274
29149ION     NA48683  13.175  15.921  13.342  0.0472  0.0138  0.0732
29150ION     NA48684  11.043  15.513  14.493 -0.1189  0.2359  0.0089
29151ION     NA48685   8.346  14.521   0.733 -0.0908 -0.0022  0.1284
29152ION     NA48686   6.405  15.682   0.261 -0.2115  0.0677  0.0842
29153ION     NA48687   7.745   2.106   2.090  0.1293  0.1562  0.3160
29154ION     NA48688   6.804   1.765   9.851 -0.2330 -0.0062  0.0567
29155ION     NA48689   1.434   3.150   9.736 -0.1418 -0.0990  0.0671
29156ION     NA48690  10.682  18.164  10.475  0.2329 -0.1265 -0.1670
29157ION     NA48691   9.399  12.029   9.826 -0.0919 -0.0858 -0.3606
29158ION     NA48692  13.079  17.183  13.783 -0.1600  0.0556 -0.3875
29159ION     NA48693   1.622   9.200  13.526 -0.1990 -0.0951  0.2687
29160ION     NA48694   2.104   5.431  14.712  0.0232  0.2678  0.1424
29161ION     NA48695   9.412   7.603  10.258  0.0307 -0.1725  0.0384
29162ION     NA48696   0.365  16.698   3.417 -0.0676 -0.0091  0.1085
29163ION     NA48697  18.929  14.868   4.508 -0.0944  0.0758  0.0945
29164ION     NA48698  13.264   2.842   1.278  0.1291 -0.1904  0.1488
29165ION     NA48699   6.367  11.353   4.969  0.1902  0.2059  0.1405
29166ION     NA48700  11.773  15.826  10.214  0.3340 -0.1465  0.0987
29167ION     NA48701  17.735  17.837  14.125  0.1086  0.0571 -0.0740
29168ION     NA48702  11.496   4.810   2.169 -0.1146  0.4159 -0.0005
29169ION     NA48703  17.110  11.980  11.051  0.0121 -0.2258  0.1631
29170ION     NA48704   7.627   4.937  14.066  0.3037 -0.0381  0.3220
29171ION     NA48705  15.888   2.248   9.585 -0.1775 -0.3268  0.0157
29172ION     NA48706  10.704   2.537   0.980  0.0780 -0.2405  0.0138
29173ION     NA48707  11.641   4.213   5.018 -0.0101  0.0105  0.1323
29174ION     NA48708   9.999  11.023   4.915  0.1458  0.0932 -0.2004
29175ION     NA48709  17.068  12.603  13.885 -0.3402 -0.1751 -0.0807
29176ION     NA48710   8.759   1.479   5.170 -0.2508  0.2203  0.2077
29177ION     NA48711   2.086  18.041   9.877 -0.2771 -0.2012  0.2338
29178ION     NA48712   3.632  16.741  11.035 -0.0083 -0.0675  0.1558
29179ION     NA48713  18.423  11.767   2.544  0.1419  0.4214 -0.0568
29180ION     NA48714   4.096  16.043  10.515 -0.2384  0.2855 -0.1725
29181ION     NA48715   9.243  14.916  10.050 -0.2059 -0.2812  0.0209
29182ION     NA48716   7.987  17.891   5.079 -0.0122 -0.0563 -0.0370
29183ION     NA48717   7.977   9.397  10.063  0.0423  0.0666 -0.0835
29184ION     NA48718  14.397   1.548   4.878  0.0076 -0.0835 -0.1989
29185ION     NA48719   2.692   3.535  10.817  0.1943 -0.2582 -0.2973
29186ION     NA48720   7.655   8.548  10.107  0.0478  0.0228 -0.3604
29187ION     NA48721   5.804  15.716  10.357  0.4269 -0.0229 -0.1811
29188ION     NA48722  17.826   0.316   9.724  0.3518 -0.2671 -0.2341
29189ION     NA48723   9.552   0.212  13.299  0.1598  0.0401 -0.0346
29190ION     NA48724  15.702   3.453  13.027  0.0443 -0.1043  0.0764
29191ION     NA48725  10.058   1.501  14.520 -0.1037 -0.0966 -0.0055
29192ION     NA48726   2.855   3.985  13.300  0.0120 -0.0690  0.0780
29193ION     NA48727  13.977  13.730   5.301  0.0445 -0.0152 -0.0312
29194ION     NA48728  14.552   2.727   4.799  0.1034 -0.0246  0.1148
29195ION     NA48729   4.740   3.587   5.035  0.0325  0.0045  0.3569
29196ION     NA48730   7.456  17.220   5.108 -0.1313  0.0495 -0.1534
29197ION     NA48731  13.491   6.280  10.012 -0.2434  0.1989  0.1820
29198ION     NA48732   0.082   7.272   5.072 -0.1330 -0.0344 -0.1782
29199ION     NA48733   4.202   8.452   4.216  0.1806  0.0189  0.1587
29200ION     NA48734  16.617   9.283   9.890 -0.3254 -0.0078  0.1609
29201ION     NA48735  12.111   6.731   9.879  0.1807 -0.0191 -0.2963
29202ION     NA48736  14.666   4.154  14.385 -0.2750  0.3904  0.0667
29203ION     NA48737   8.748  10.859   4.834  0.1917 -0.2057 -0.1094
29204ION     NA48738  11.205  13.644   5.175  0.2132 -0.2551 -0.0177
29205ION     NA48739  13.596  16.504   2.589  0.1593  0.2261  0.2254
29206ION     NA48740  10.015   5.113   4.620  0.1711 -0.0744  0.3598
29207ION     NA48741   2.503   5.282   3.152  0.0345 -0.0843 -0.0414
29208ION     NA48742   7.337   0.497   0.131 -0.0278 -0.1531  0.0243
29209ION     NA48743  11.980  12.468  13.886 -0.0291 -0.0672 -0.2424
29210ION     NA48744   5.842  15.678  14.059 -0.0333  0.2342  0.0088
29211ION     NA48745   8.288  16.798   4.925  0.0046 -0.2384  0.0014
29212ION     NA48746  18.307   7.599   9.975 -0.1303  0.0413 -0.0140
29213ION     NA48747   9.599  12.853  10.073 -0.4344  0.2421  0.3494
29214ION     NA48748  13.238  16.825  10.175 -0.2106  0.0357  0.1378
29215ION     NA48749   1.918   7.558   3.567 -0.1395 -0.0786  0.4113
29216ION     NA48750   1.459   4.055  10.149  0.3210  0.1099 -0.0916
29217ION     NA48751   2.176   2.925   9.520  0.0487 -0.4375 -0.1957
29218ION     NA48752  18.309   9.476  10.085 -0.2188 -0.0381  0.0542
29219ION     NA48753   7.912   1.755   4.972  0.0909 -0.2760  0.0071
29220ION     NA48754  13.652   0.292   4.769 -0.1339 -0.0022 -0.0616
29221ION     NA48755   6.318  10.081  14.701 -0.1459  0.1102  0.1183
29222ION     NA48756  11.790   5.354   9.870 -0.1867 -0.1220 -0.1828
29223ION     NA48757  10.653  17.361   4.525 -0.0415  0.1333 -0.0150
29224ION     NA48758   2.717  14.952   0.832  0.2480 -0.3253 -0.0828
29225ION     NA48759  13.085   4.887   5.173  0.0055 -0.0154  0.0441
29226ION     NA48760   1.468   0.976   9.731  0.0568  0.0319  0.0441
29227ION     NA48761  17.594   7.789  11.136  0.0232 -0.1228 -0.1365
29228ION     NA48762   1.188  13.364  10.109 -0.0181 -0.0237  0.0656
29229ION     NA48763  12.087  10.321   0.845 -0.2718 -0.1866 -0.0159
29230ION     NA48764   3.243   7.396   9.773  0.0842  0.0330  0.2367
29231ION     NA48765  15.671   9.054  10.300  0.1829 -0.0274 -0.1830
29232ION     NA48766  18.590  17.676   9.705  0.0417 -0.1721  0.0969
29233ION     NA48767  12.519  15.330  14.364 -0.3873 -0.1393 -0.0289
29234ION     NA48768   6.804   1.242   4.808  0.1754 -0.0086 -0.1957
29235ION     NA48769  17.102  14.084   2.656  0.0027  0.0753 -0.0415
29236ION     NA48770   6.717   9.437   5.231  0.2229  0.0248 -0.0727
29237ION     NA48771  16.479   9.346  12.677 -0.0264 -0.3038  0.2529
29238ION     NA48772  17.498   2.435  13.792  0.0141 -0.0283 -0.3002
29239ION     NA48773  17.846  11.694   4.804  0.1237  0.0293  0.1467
29240ION     NA48774  10.557   6.018  10.135 -0.1724 -0.2431  0.1549
29241ION     NA48775   2.975  15.977  10.812 -0.0894  0.0473 -0.0062
29242ION     NA48776   3.809   6.701  11.227  0.0721  0.2947  0.1592
29243ION     NA48777   1.223   0.826   1.476 -0.1005  0.0398 -0.4314
29244ION     NA48778   9.990  11.851   2.143  0.2487  0.2937 -0.1671
29245ION     NA48779   5.271  13.931  11.126 -0.2559  0.1563 -0.1780
29246ION     NA48780  13.119  14.894   5.522 -0.2535  0.0651 -0.1560
29247ION     NA48781  16.084   1.430   9.746  0.2081  0.2898 -0.1639
29248ION     NA48782   9.384   4.944   3.819  0.2949 -0.0284 -0.0164
29249ION     NA48783   9.994  11.172   9.952 -0.1374 -0.2379 -0.0939
29250ION     NA48784  11.255   9.456   4.524 -0.0645 -0.0846  0.0829
29251ION     NA48785   5.080  14.282  10.114  0.0266  0.0151  0.1464
29252ION     NA48786  13.724   2.257  13.884  0.2616 -0.0800  0.0318
29253ION     NA48787   5.312   6.063   4.963  0.0775  0.2191 -0.0632
29254ION     NA48788  13.624   1.190   4.978  0.1813 -0.2322 -0.2891
29255ION     NA48789   9.233  14.360   0.196 -0.0566 -0.2536  0.1721
29256ION     NA48790   1.058   8.612  10.961  0.1681 -0.2529 -0.0728
29257ION     NA48791   4.169   0.928  12.176 -0.2441  0.0255  0.1589
29258ION     NA48792  10.236   8.258  11.950  0.0080 -0.2468  0.0097
29259ION     NA48793  17.738   9.698   4.582  0.3382  0.0849 -0.0134
29260ION     NA48794   4.596   5.131  11.397 -0.1401 -0.1505  0.0547
29261ION     NA48795  13.865   2.880   3.830  0.1524  0.3122 -0.0708
29262ION     NA48796   2.763  18.947   3.808 -0.0040 -0.1184  0.0936
29263ION     NA48797  14.550   2.518  12.153  0.0621  0.3580  0.0305
29264ION     NA48798   9.145   5.755  10.347  0.1428  0.1047 -0.3194
29265ION     NA48799   6.741  18.328  14.642 -0.0660  0.3443  0.1073
29266ION     NA48800   0.965   2.314   0.309 -0.0569 -0.0689 -0.0645
29267ION     NA48801  18.422   3.656  12.929 -0.0640  0.2728  0.0341
29268ION     NA48802   0.717   3.905   9.453  0.2517  0.0051  0.1365
29269ION     NA48803  13.640  10.048  12.989 -0.1172 -0.2693 -0.0755
29270ION     NA48804  12.647   7.584   9.558 -0.1214 -0.0362  0.1002
29271ION     NA48805  15.948   0.070   3.926 -0.0025  0.1770 -0.2617
29272ION     NA48806   9.868   4.640   4.918  0.0526 -0.1286  0.2046
29273ION     NA48807   0.638  15.110  10.055 -0.0961 -0.0627  0.0403
29274ION     NA48808  18.860  14.551   9.743 -0.1050  0.1886  0.1729
29275ION     NA48809  10.265   9.776   4.877  0.1041  0.2634  0.2361
29276ION     NA48810   4.313  17.387  10.302 -0.0563 -0.2429  0.0894
29277ION     NA48811  14.005   6.596   5.039 -0.0049 -0.2644  0.1215
29278ION     NA48812  14.115  10.762  14.617 -0.0711 -0.1008 -0.1766
29279ION     NA48813   7.929  15.490  10.446  0.2049  0.2229  0.2092
29280ION     NA48814   7.072  13.113   9.650 -0.0509 -0.1631  0.0032
29281ION     NA48815   0.776  11.169  10.354  0.0465 -0.0742  0.0924
29282ION     NA48816   1.194  16.815  10.124  0.0345 -0.1388  0.0745
29283ION     NA48817  15.783   1.690  12.301 -0.0489  0.0017  0.1553
29284ION     NA48818   5.550  13.514  10.142 -0.0946 -0.2800  0.0421
29285ION     NA48819   1.022  19.036   3.546  0.0335  0.2354 -0.2722
29286ION     NA48820   2.840   9.258   2.437  0.1000 -0.0615  0.1001
29287ION     NA48821   7.981  14.621  10.088 -0.3136 -0.1361  0.0763
29288ION     NA48822  15.124  14.234  10.988 -0.0604  0.0410 -0.1233
29289ION     NA48823   1.064  16.352   4.920 -0.0591  0.3553  0.0042
29290ION     NA48824   2.548   6.373   5.157  0.0108  0.1029  0.0299
29291ION     NA48825   2.000  17.618   2.120  0.2564  0.0359 -0.2908
29292ION     NA48826  13.355  13.072  14.184 -0.1460 -0.1164  0.1142
29293ION     NA48827   4.043   9.928   2.934 -0.0057  0.0644 -0.0109
29294ION     NA48828   9.320   1.950   2.390  0.0493  0.0157 -0.1270
29295ION     NA48829   1.705   0.364   5.030  0.0772  0.2526 -0.3643
29296ION     NA48830  15.710   7.589   9.735  0.0957 -0.1360 -0.1684
29297ION     NA48831   8.735  14.227  10.020 -0.3313 -0.0994  0.1272
29298ION     NA48832  17.142   7.026   4.668 -0.0476  0.1207  0.3835
29299ION     NA48833  18.064   5.938   9.859  0.1821 -0.0849  0.3026
29300ION     NA48834  18.516   2.255  11.646 -0.2099  0.2584 -0.1827
29301ION     NA48835  19.104  12.619   9.975  0.0531 -0.0761  0.0495
29302ION     NA48836   4.860   8.569  13.120  0.1107 -0.0085  0.0175
29303ION     NA48837  16.967  15.804  10.710  0.0998 -0.2829 -0.3110
29304ION     NA48838  15.801   2.539  13.057  0.1043 -0.0986  0.2010
29305ION     NA48839   0.091  10.604  10.309 -0.2186 -0.0393 -0.2549
29306ION     NA48840   9.427   7.733   2.775 -0.0429  0.0791  0.3131
29307ION     NA48841  17.785   4.134   9.502 -0.1121  0.0421  0.1433
29308ION     NA48842  17.579  12.160   9.693 -0.3727  0.1177  0.0517
29309ION     NA48843  14.600   9.615   4.927 -0.0103  0.3603  0.0453
29310ION     NA48844  18.014  14.641   9.676  0.1474  0.1031  0.0926
29311ION     NA48845   3.297  15.776   5.226 -0.1988 -0.1421  0.4156
29312ION     NA48846  11.196   3.841   9.924 -0.2676  0.2903 -0.1372
29313ION     NA48847   3.731  18.404   2.896 -0.1123  0.0160  0.0449
29314ION     NA48848  14.933   3.874   4.266 -0.0884  0.1051  0.0046
29315ION     NA48849  17.539   3.193   9.966  0.2281  0.0580 -0.1549
29316ION     NA48850  15.646  16.263   9.951 -0.1394 -0.1100  0.1705
29317ION     NA48851  11.374   2.003   5.268  0.1139 -0.1093  0.2504
29318ION     NA48852   5.312   5.116  12.058 -0.0061 -0.0219 -0.0620
29319ION     NA48853  15.125   8.160  14.717  0.1688  0.4356  0.1735
29320ION     NA48854  12.233  13.778   5.293 -0.0631 -0.0049  0.1029
29321ION     NA48855   1.281   4.394   4.615 -0.1261 -0.3034  0.0414
29322ION     NA48856   6.211  19.045   4.945  0.2674  0.1907  0.0564
29323ION     NA48857  14.499   2.311   5.106 -0.1828 -0.2355 -0.0340
29324ION     NA48858   2.816   2.091   4.956  0.1149  0.1413  0.2256
29325ION     NA48859  11.848   8.535   9.791  0.0528  0.2172 -0.0474
29326ION     NA48860  17.357   4.748   9.683 -0.0996  0.1278 -0.3655
29327ION     NA48861   3.546  18.773  10.049  0.1276 -0.1456 -0.1595
29328ION     NA48862  14.620   9.726   1.853 -0.0321 -0.0679 -0.0672
29329ION     NA48863   3.724  10.405   5.260  0.0146 -0.1666  0.2408
29330ION     NA48864  14.363   3.413   5.255  0.0879  0.3633  0.4607
29331ION     NA48865   9.521  10.420  10.804  0.1476  0.1716 -0.1435
29332ION     NA48866  14.200  13.769   0.999  0.0408 -0.0194  0.2153
29333ION     NA48867   6.463  14.621   5.006 -0.0359  0.2333  0.1214
29334ION     NA48868   2.379  18.936   5.085  0.0670 -0.1738 -0.1113
29335ION     NA48869  16.087  16.557   4.816 -0.0091  0.4165  0.1024
29336ION     NA48870  11.854   9.631  10.139 -0.1202 -0.1788  0.1357
29337ION     NA48871  16.920  13.386  14.655 -0.0849  0.2881 -0.1986
29338ION     NA48872   7.256  11.538   0.188 -0.0459 -0.0326 -0.1204
29339ION     NA48873  11.817  11.774   4.956  0.0837  0.2671  0.0949
29340ION     NA48874   7.120  15.767  10.232  0.1617 -0.0094  0.2599
29341ION     NA48875  13.886   5.334   9.899  0.2177 -0.1204  0.0098
29342ION     NA48876  13.532  18.710  10.324  0.2492  0.2733  0.0160
29343ION     NA48877  17.003   4.239   4.178 -0.3395  0.3376  0.1423
29344ION     NA48878   2.295   5.635   9.849 -0.1493  0.1171 -0.0155
29345ION     NA48879   8.981   2.876  10.088  0.1322 -0.0701  0.1051
29346ION     NA48880   2.881   6.836   3.459 -0.2635  0.2533  0.0082
29347ION     NA48881  18.885  13.159  13.361 -0.1354  0.1526  0.3541
29348ION     NA48882  15.816   5.193  14.145 -0.1819  0.1769  0.0422
29349ION     NA48883  16.070  18.068   9.933 -0.0355 -0.1468 -0.1775
29350ION     NA48884  11.998   9.006   3.891 -0.3298 -0.0586  0.0220
29351ION     NA48885  12.425  11.610   9.866 -0.0678  0.0257  0.3275
29352ION     NA48886   6.135  15.444   5.105 -0.0408 -0.0126  0.0117
29353ION     NA48887  15.930  14.576  12.344 -0.1825 -0.1346  0.0565
29354ION     NA48888  13.215   3.339  14.658  0.2332 -0.0779  0.1885
29355ION     NA48889  16.791  15.459   2.406  0.3878 -0.0942  0.0680
29356ION     NA48890   3.204  17.252   5.113  0.1769  0.0779 -0.3094
29357ION     NA48891  12.944  14.019   5.083  0.0474 -0.0270 -0.0079
29358ION     NA48892   5.828   3.371  10.447  0.0044  0.1506  0.4876
29359ION     NA48893   0.245   4.962  12.586  0.0672  0.0341 -0.0921
29360ION     NA48894  18.254  18.512  14.574 -0.2719 -0.0465 -0.2315
29361ION     NA48895  16.367   0.833  12.411 -0.0533 -0.0396 -0.1341
29362ION     NA48896   1.420   7.640  14.317 -0.0301 -0.1396  0.1627
29363ION     NA48897   4.265   2.578   3.761  0.1472  0.0375 -0.0135
29364ION     NA48898  11.387   6.697   4.921  0.0552  0.1261  0.3481
29365ION     NA48899  10.595   6.702  14.547 -0.1459  0.0678 -0.2733
29366ION     NA48900  15.793   7.617   4.992 -0.3816 -0.1197  0.0787
29367ION     NA48901   4.929  18.163  11.805  0.2345  0.0432 -0.2811
29368ION     NA48902  10.406   9.629   0.306  0.0641 -0.3250 -0.1489
29369ION     NA48903   1.215  15.734  10.051  0.2380 -0.1943  0.0448
29370ION     NA48904   9.941   6.951   4.938  0.0081  0.0969 -0.1100
29371ION     NA48905  14.048   4.474   5.352  0.0466  0.1977 -0.0540
29372ION     NA48906  16.495   3.458  14.429  0.2934 -0.0231 -0.0223
29373ION     NA48907   3.965   8.653   5.074 -0.2782 -0.0902  0.1301
29374ION     NA48908  15.498  13.965  14.781 -0.1779  0.1817  0.0380
29375ION     NA48909   8.513  14.186   5.146  0.4355  0.1920  0.0856
29376ION     NA48910   8.242  15.082  10.260 -0.0037  0.3101  0.1563
29377ION     NA48911  13.565   9.272   4.873 -0.2477 -0.0954  0.1142
29378ION     NA48912   6.427  17.386   0.893  0.3142  0.0382 -0.2163
29379ION     NA48913   9.176   9.093  11.104 -0.0063  0.0337 -0.1453
29380ION     NA48914  11.779   0.025  13.786  0.2691  0.0552  0.0466
29381ION     NA48915   8.185   4.214  11.892 -0.1145  0.1227  0.3097
29382ION     NA48916   5.600   3.257   4.840 -0.2396  0.0951  0.1389
29383ION     NA48917   9.519  16.728  13.895  0.1615 -0.1172 -0.0047
29384ION     NA48918  10.654   2.607  10.234 -0.1126  0.0181 -0.0129
29385ION     NA48919   3.522  10.446  13.358  0.0217  0.2575 -0.3825
29386ION     NA48920  18.856   7.152   0.126  0.1104  0.1692 -0.2963
29387ION     NA48921  18.779   9.395   1.454 -0.3806  0.0309 -0.0798
29388ION     NA48922   8.907  18.865   1.531 -0.0770  0.1460 -0.1510
29389ION     NA48923   5.154  16.838   5.141 -0.0763  0.2757  0.0108
29390ION     NA48924   7.339   6.920  10.065 -0.2361 -0.0026 -0.0966
29391ION     NA48925   1.811   0.720   9.500 -0.2369  0.0620 -0.1616
29392ION     NA48926  15.129   8.127   9.678 -0.2220 -0.0940  0.0902
29393ION     NA48927  10.605   4.925  12.114 -0.0413 -0.0790  0.2001
29394ION     NA48928   1.274  11.857  13.630 -0.4409  0.0926  0.1263
29395ION     NA48929  11.640  10.048   4.742  0.1073 -0.0365 -0.1289
29396ION     NA48930  13.184  11.162   0.827  0.0795  0.1712  0.0407
29397ION     NA48931  16.241   1.453   0.143 -0.0180 -0.0583  0.3014
29398ION     NA48932   3.567  13.699   0.090 -0.0995  0.3299  0.2139
29399ION     NA48933  12.550   2.318   2.349  0.3013  0.0072 -0.2213
29400ION     NA48934  16.439  15.089  11.668 -0.4058  0.2739  0.0516
29401ION     NA48935   5.073  11.272  10.859  0.0531  0.1243 -0.0323
29402ION     NA48936  11.907   1.567  14.248 -0.2811  0.3135  0.0158
29403ION     NA48937   6.701   1.298  10.571 -0.0367  0.0325  0.2536
29404ION     NA48938   6.336  11.248   9.959 -0.0536  0.0539 -0.1400
29405ION     NA48939  14.943   6.722   4.883  0.0958 -0.0804 -0.1926
29406ION     NA48940   3.341   1.876   1.884 -0.1194  0.2928 -0.2332
29407ION     NA48941   5.136   0.974  10.267  0.4081 -0.0900 -0.0024
29408ION     NA48942   0.546  13.722   5.000  0.0129  0.2564  0.1098
29409ION     NA48943  16.741  10.691   4.685 -0.0208  0.4454  0.1002
29410ION     NA48944   1.535  10.518   5.254 -0.4192 -0.2991 -0.0369
29411ION     NA48945   7.413  10.345   1.028  0.2454 -0.0562 -0.0910
29412ION     NA48946  10.736   2.754  13.261 -0.0907  0.4259  0.0469
29413ION     NA48947  17.383   2.063   0.510 -0.1654 -0.3130 -0.0807
29414ION     NA48948   5.098   6.395   0.572 -0.0450  0.0899 -0.5083
29415ION     NA48949   4.475   9.711  10.289 -0.0829 -0.0811  0.0204
29416ION     NA48950   8.079  12.262   5.095  0.2814 -0.0493 -0.0119
29417ION     NA48951   0.351  15.063   0.211 -0.0604 -0.0850 -0.0091
29418ION     NA48952   1.835  19.067   3.858 -0.1293 -0.1399 -0.2157
29419ION     NA48953   0.688  15.767   4.031 -0.0779  0.1063  0.1024
29420ION     NA48954  12.821   0.945   0.710 -0.0723 -0.4526  0.2552
29421ION     NA48955   7.505  18.277   1.818  0.0226  0.3073  0.1819
29422ION     NA48956   8.828   5.744   1.093 -0.0402 -0.0224 -0.1908
29423ION     NA48957  16.810  12.993   4.622  0.1451  0.1131 -0.0658
29424ION     NA48958  15.407  17.476   5.028 -0.1623  0.0623 -0.2023
29425ION     NA48959  18.462  15.052   1.297 -0.1541 -0.0334  0.0357
29426ION     NA48960  12.904   7.915   1.246 -0.0956  0.1580 -0.4459
29427ION     NA48961   2.757   0.590   4.113  0.1976  0.1400  0.1786
29428ION     NA48962   0.186  15.875  10.018 -0.2267  0.0090 -0.1805
29429ION     NA48963   4.522   0.805  13.659  0.1108 -0.4958 -0.0449
29430ION     NA48964  17.079   9.198   4.828  0.3487 -0.2290 -0.1168
29431ION     NA48965  16.936  16.948  11.843 -0.0516  0.0152  0.1244
29432ION     NA48966   5.848  12.501  10.228  0.2161  0.2649 -0.3031
29433ION     NA48967  13.452  18.774  14.724  0.0509  0.1353 -0.0565
29434ION     NA48968   7.714  17.806  12.929  0.0601 -0.2577 -0.1024
29435ION     NA48969   6.991  17.139  14.476  0.0837 -0.1383  0.3643
29436ION     NA48970  13.617  15.721  14.043  0.1319 -0.1879 -0.0211
29437ION     NA48971  15.959  16.047  12.843  0.0068  0.1753  0.0167
29438ION     NA48972   0.727   8.734   9.954 -0.1274  0.3820  0.3712
29439ION     NA48973   8.146   0.488   9.738  0.3255  0.0755 -0.1999
29440ION     NA48974  13.615   1.694  12.421 -0.2078 -0.1634 -0.0437
29441ION     NA48975  14.423  12.586  13.930 -0.1453 -0.1447  0.3114
29442ION     NA48976  18.401   6.895   3.213 -0.4106 -0.4130 -0.1016
29443ION     NA48977   3.119  10.154   3.367  0.0476  0.2074 -0.2856
29444ION     NA48978   5.718   0.187  10.115 -0.1040  0.0253  0.0522
29445ION     NA48979  17.848   3.471   4.631 -0.2466  0.0355 -0.1085
29446ION     NA48980   5.041  12.814  10.281  0.1678 -0.3303  0.2312
29447ION     NA48981  10.443  13.411  12.708  0.0535  0.1381 -0.3096
29448ION     NA48982  13.325  13.408  11.287  0.0123  0.0933 -0.0983
29449ION     NA48983   3.437  17.003  10.239 -0.0823  0.2088 -0.0065
29450ION     NA48984   7.513   4.304   9.864  0.0435  0.1555  0.1236
29451ION     NA48985   7.493  18.318   9.852  0.2309 -0.0692 -0.3403
29452ION     NA48986  17.518   7.660   9.880 -0.0900  0.3014  0.2893
29453ION     NA48987   5.082   0.272  14.241 -0.1915  0.1860  0.0433
29454ION     NA48988   7.085   4.634   9.751  0.1072 -0.1122  0.1399
29455ION     NA48989  10.104  16.334  10.445  0.1089 -0.3175  0.0808
29456ION     NA48990   2.890  12.945   2.049 -0.2561  0.0052  0.2858
29457ION     NA48991   7.201   9.598   4.444  0.0372  0.2974 -0.0346
29458ION     NA48992   2.881  12.425   5.198 -0.1919  0.2326  0.2423
29459ION     NA48993   4.177  17.218   2.113 -0.2582  0.0750  0.1865
29460ION     NA48994  10.804  18.881  12.293 -0.0566  0.0355 -0.0357
29461ION     NA48995   6.852   8.684   9.902 -0.6578 -0.0107  0.2241
29462ION     NA48996  12.313  13.648  12.951 -0.0074  0.1812 -0.1995
29463ION     NA48997  16.781   2.391   9.747  0.0844 -0.1914 -0.0181
29464ION     NA48998   7.443   2.525   5.142 -0.3291 -0.0398  0.3519
29465ION     NA48999   1.382  11.714  11.324 -0.0400  0.1273  0.0657
29466ION     NA49000  19.088  12.397   2.653 -0.3292 -0.0978  0.2663
29467ION     NA49001  19.090  16.393  13.762  0.2886 -0.2356 -0.1094
29468ION     NA49002   4.047   2.397   0.531 -0.1757 -0.3150  0.2894
29469ION     NA49003   8.245   7.001   4.838 -0.0665 -0.0058 -0.0783
29470ION     NA49004  16.502   0.172   2.375 -0.3091 -0.0669  0.0893
29471ION     NA49005   6.498   2.117   5.249 -0.0934  0.1232  0.0153
29472ION     NA49006  18.402   6.848  13.131 -0.0245  0.2122  0.1810
29473ION     NA49007  16.842   0.176  12.223 -0.1048  0.0615 -0.3273
29474ION     NA49008  11.542   4.552  10.084 -0.0146 -0.1773 -0.2057
29475ION     NA49009   0.413  17.382  12.751  0.1095  0.0999 -0.3758
29476ION     NA49010  11.581   1.765  13.635 -0.2343 -0.2421  0.0134
29477ION     NA49011  12.697   5.938   3.407 -0.1131  0.3477  0.0111
29478ION     NA49012  16.107   8.482   9.573  0.3133  0.0776 -0.1252
29479ION     NA49013  13.869  12.171   9.894  0.3405  0.1897 -0.0224
29480ION     NA49014  11.091   8.636   4.918  0.0959 -0.0753 -0.0835
29481ION     NA49015  10.852  12.278   2.019  0.3677  0.0617  0.0284
29482ION     NA49016  14.708  12.534   1.509  0.1200  0.1337  0.0504
29483ION     NA49017  12.755  14.033  10.034  0.1118 -0.0303 -0.2841
29484ION     NA49018   8.950   4.559   5.086  0.0320 -0.0668  0.4811
29485ION     NA49019  13.042   0.214   9.780 -0.2437  0.0441  0.2404
29486ION     NA49020   9.111   5.679   9.834  0.2135  0.0419 -0.3050
29487ION     NA49021   9.548  16.814   0.159 -0.2037  0.2440  0.3415
29488ION     NA49022  11.571   7.688   2.503  0.1101 -0.1297 -0.3062
29489ION     NA49023  12.539   9.710   4.795 -0.0736  0.4499 -0.2852
29490ION     NA49024   5.989   2.104  10.064  0.1186 -0.0075  0.3197
29491ION     NA49025  18.963   8.042   1.086  0.0537 -0.2907 -0.2456
29492ION     NA49026  11.291  16.639  14.124  0.0756  0.0095  0.3028
29493ION     NA49027   0.271   3.040   4.617 -0.2045 -0.0940  0.0030
29494ION     NA49028  14.492   4.632  10.260 -0.2980 -0.1200  0.1761
29495ION     NA49029   9.981  15.454  10.087 -0.0081  0.0780 -0.1195
29496ION     NA49030  12.058   1.510   9.903  0.0074 -0.0436  0.0347
29497ION     NA49031   4.662   4.158  14.437  0.0283 -0.1451 -0.1877
29498ION     NA49032   4.199  16.848   4.948  0.3050 -0.0682  0.1863
29499ION     NA49033  12.481   5.457   1.171  0.0706 -0.0374  0.0904
29500ION     NA49034   3.047  10.135  12.556 -0.0074 -0.1563  0.0317
29501ION     NA49035  17.606  15.119   5.192 -0.0009  0.1349  0.2740
29502ION     NA49036   3.900  10.151  10.910  0.0801  0.0837 -0.0433
29503ION     NA49037   5.950   2.679  14.451  0.0540 -0.1315 -0.1687
29504ION     NA49038   3.776   2.429   4.687  0.0310  0.2139  0.0776
29505ION     NA49039   4.150   6.818   2.849 -0.2323 -0.0541  0.3946
29506ION     NA49040  11.501  18.249  10.151 -0.1139 -0.0649  0.1152
29507ION     NA49041   9.214  18.601  14.340 -0.2927 -0.1750 -0.2583
29508ION     NA49042  12.201   7.764   4.885  0.0350 -0.3615  0.3401
29509ION     NA49043   4.699  10.892   4.042 -0.1557 -0.0572  0.2478
29510ION     NA49044   2.213  13.062   5.310 -0.1117 -0.0861 -0.1347
29511ION     NA49045  15.496   9.380   4.887 -0.1146 -0.0682 -0.1392
29512ION     NA49046   3.403  11.666   3.978  0.1062 -0.0004 -0.1816
29513ION     NA49047   1.795  12.746  10.274  0.0267 -0.2399 -0.2362
29514ION     NA49048   0.240  16.712   1.245  0.0920  0.0265 -0.0222
29515ION     NA49049  14.604   7.165   9.828  0.1619  0.1762  0.1704
29516ION     NA49050  18.414  15.685   2.016  0.0415 -0.0358 -0.4356
29517ION     NA49051   0.438   3.296   0.318 -0.0015 -0.3943  0.0927
29518ION     NA49052   3.889  13.508   5.248 -0.1113 -0.0400  0.0119
29519ION     NA49053  10.102   6.041   9.894  0.1545 -0.2163 -0.0332
29520ION     NA49054  14.625   0.067  14.236 -0.2736  0.1096 -0.1811
29521ION     NA49055   6.226  15.318  10.270  0.0840  0.3494  0.2395
29522ION     NA49056  17.515   1.882  12.179  0.1328 -0.1877  0.2145
29523ION     NA49057  13.707  16.163  10.196  0.0163  0.0126 -0.1451
29524ION     NA49058   9.045  14.173   2.000  0.0337  0.1439 -0.0877
29525ION     NA49059   4.961  16.198  10.301  0.1132  0.1690  0.2047
29526ION     NA49060  10.679  13.164   4.909 -0.2038 -0.2081  0.0776
29527ION     NA49061   1.702   9.776   2.861 -0.1585  0.2491 -0.0519
29528ION     NA49062   7.451   6.794   4.913  0.1958  0.0586  0.1504
29529ION     NA49063  13.182  12.646   4.172  0.2376  0.4402 -0.0047
29530ION     NA49064   9.347   7.486   1.100  0.0167  0.0995 -0.2287
29531ION     NA49065   7.748   4.061  13.958  0.0543 -0.0986 -0.1672
29532ION     NA49066   4.423   4.496   9.809  0.0309  0.0203  0.0643
29533ION     NA49067  12.395   4.615   9.790 -0.3483 -0.0354 -0.0540
29534ION     NA49068   8.808  17.639  10.942  0.0509  0.1549 -0.1003
29535ION     NA49069  15.194   1.999   5.045  0.1156 -0.2630 -0.1936
29536ION     NA49070  17.975   5.767  12.451 -0.0420 -0.1348  0.0789
29537ION     NA49071   6.628  17.330   5.123  0.1092  0.0694 -0.0907
29538ION     NA49072   3.005  10.116  10.393 -0.2887  0.1109  0.0475
29539ION     NA49073  11.082   6.599   3.734  0.1559  0.1984 -0.0203
29540ION     NA49074  18.486   2.704   4.589 -0.0007 -0.0454  0.0156
29541ION     NA49075   1.776  17.156   1.062  0.1021 -0.5740  0.2567
29542ION     NA49076  17.166   5.714   9.777 -0.1373 -0.0200 -0.0559
29543ION     NA49077   6.870  12.423   0.214 -0.1147 -0.2684  0.1612
29544ION     NA49078  15.505   4.085   2.497 -0.2066  0.1975 -0.3437
29545ION     NA49079  12.880  17.404   5.241  0.1730 -0.0780  0.0927
29546ION     NA49080  15.999   5.167   9.660 -0.2147  0.2798 -0.1226
29547ION     NA49081   6.551  13.438  12.503 -0.0772  0.0524 -0.2690
29548ION     NA49082   5.999  13.527   2.500  0.2412 -0.2068  0.0221
29549ION     NA49083   2.565  14.248  10.275 -0.0741 -0.0473 -0.0791
29550ION     NA49084  15.343   0.244   5.198  0.2043  0.1217 -0.1679
29551ION     NA49085  16.524   5.287   2.881  0.1663 -0.1193  0.0460
29552ION     NA49086  18.484  14.403   4.958 -0.0589  0.2047  0.1045
29553ION     NA49087  14.434  11.198   9.846  0.0160 -0.0654 -0.2111
29554ION     NA49088  10.238  12.620  14.746 -0.1361  0.3148 -0.3374
29555ION     NA49089  12.870   9.289  10.286 -0.3118 -0.0123  0.1140
29556ION     NA49090  10.249  12.732  13.260 -0.0785 -0.3630  0.2758
29557ION     NA49091   9.180  11.370  14.827 -0.1681 -0.0794  0.1359
29558ION     NA49092   3.294   6.067   5.057 -0.0682  0.2072  0.1206
29559ION     NA49093   9.667   8.908  14.328 -0.1880 -0.1051  0.0574
29560ION     NA49094  16.229  16.729  10.303  0.1884  0.1487  0.2418
29561ION     NA49095  10.116  16.044   5.035 -0.1006  0.1379  0.2574
29562ION     NA49096   2.596   7.514   9.722 -0.0147 -0.0440  0.0641
29563ION     NA49097  18.241   6.808   9.750 -0.1264  0.1356  0.0792
29564ION     NA49098  12.347   8.366   3.221 -0.1336 -0.0015 -0.0182
29565ION     NA49099   7.581  15.172  13.287 -0.2642  0.1435  0.3149
29566ION     NA49100   1.940  11.655  10.063 -0.0705 -0.0429  0.4814
29567ION     NA49101   4.945  14.237   4.881  0.2514  0.2606  0.0664
29568ION     NA49102  13.885  18.419  10.132  0.0169  0.0819 -0.0940
29569ION     NA49103   7.699  15.891  10.749  0.0834  0.2997 -0.3249
29570ION     NA49104  15.485   2.879   1.812 -0.1064 -0.1507  0.5423
29571ION     NA49105   5.982  10.886   0.233  0.2107  0.2040  0.0251
29572ION     NA49106  10.166   6.930  10.222 -0.2452 -0.0642 -0.0054
29573ION     NA49107  12.576   1.968   4.713  0.2407  0.2625  0.0923
29574ION     NA49108   9.307  18.504  10.763 -0.0146  0.1537 -0.0064
29575ION     NA49109  12.873   3.948  10.373  0.1197  0.0648  0.0779
29576ION     NA49110  12.905  10.257  11.117 -0.3276  0.0019 -0.1591
29577ION     NA49111  18.524   0.656   4.742 -0.0294  0.0795  0.0744
29578ION     NA49112  17.431   4.463  11.980  0.1682 -0.1785  0.0088
29579ION     NA49113  12.828   6.933   9.954  0.0228 -0.3768  0.2984
29580ION     NA49114  12.293   6.543  14.809  0.0011  0.1411  0.0556
29581ION     NA49115   2.482  12.005  13.599  0.1774 -0.0757 -0.0138
29582ION     NA49116   4.471   6.844   1.438  0.1257 -0.2841 -0.1407
29583ION     NA49117   1.821   0.518  14.279 -0.0323 -0.3113  0.2071
29584ION     NA49118   6.346   7.497   9.579  0.1679 -0.1122 -0.2898
29585ION     NA49119  14.237   9.712   9.978 -0.2717 -0.0301 -0.0056
29586ION     NA49120   2.482  10.094   5.168  0.1786 -0.2907  0.1313
29587ION     NA49121   5.411  10.675   1.806  0.0862  0.2570  0.0659
29588ION     NA49122  14.063  13.470   4.705 -0.0016  0.0583  0.2301
29589ION     NA49123  12.137   8.447   1.645 -0.1274 -0.0033  0.0244
29590ION     NA49124  13.509   5.488   1.182  0.2807 -0.0855 -0.4310
29591ION     NA49125   5.363  13.033   1.121 -0.0475  0.3959  0.2524
29592ION     NA49126  19.071   6.952   9.785  0.2115  0.1498 -0.0490
29593ION     NA49127   4.957   8.523   4.844 -0.0260 -0.2402  0.0279
29594ION     NA49128   6.316   5.019  14.504  0.0006 -0.0983  0.0357
29595ION     NA49129   7.616   1.950   9.997 -0.1910 -0.0822  0.0640
29596ION     NA49130  15.546   1.702   4.901  0.1956  0.3172  0.2697
29597ION     NA49131  11.842  13.413   9.835 -0.0353  0.0113  0.0019
29598ION     NA49132   0.352   3.969   4.458  0.2676  0.0808  0.1657
29599ION     NA49133  12.511   5.445   9.643 -0.0702 -0.1109 -0.7566
29600ION     NA49134  15.801  15.427   2.421  0.1440 -0.1046  0.6490
29601ION     NA49135  18.456  11.760   9.942 -0.0362  0.1837  0.1573
29602ION     NA49136   1.303   3.330   4.379 -0.0577 -0.1296 -0.1727
29603ION     NA49137   2.426  18.842   2.601 -0.2497 -0.5925  0.1935
29604ION     NA49138   6.515  12.795   4.994 -0.3047 -0.0107 -0.0183
29605ION     NA49139  14.348   7.322  14.689  0.0693  0.3612 -0.3301
29606ION     NA49140   0.446  17.368  13.779  0.0003 -0.0864 -0.1149
29607ION     NA49141  13.480   6.673   4.194  0.1907 -0.0125 -0.1588
29608ION     NA49142   0.587   7.916   5.091 -0.0771 -0.2477 -0.1691
29609ION     NA49143   0.225  18.036   1.990  0.1546  0.0315 -0.1674
29610ION     NA49144   6.422   7.835  13.241 -0.0271  0.2902 -0.1198
29611ION     NA49145  12.551   6.938   2.622 -0.1265  0.0526 -0.1296
29612ION     NA49146  11.790  13.410  14.312 -0.1401 -0.1014 -0.1738
29613ION     NA49147   9.474  18.342   2.144  0.0893 -0.0776 -0.1097
29614ION     NA49148  15.447   1.204   4.773  0.2743 -0.0737  0.2536
29615ION     NA49149  16.732   7.749  13.589 -0.0243 -0.1145  0.0803
29616ION     NA49150  12.152   2.489  13.804 -0.1572 -0.0177  0.2791
29617ION     NA49151  10.988   6.228   0.926 -0.0010 -0.0511  0.4302
29618ION     NA49152   4.314  16.044   4.080 -0.1265 -0.3148 -0.0256
29619ION     NA49153   8.750   8.265   5.170  0.0559 -0.2406  0.2469
29620ION     NA49154  15.914   3.379   4.675  0.0760 -0.2059 -0.0393
29621ION     NA49155   5.738  17.315  11.725 -0.1668  0.2170 -0.0666
29622ION     NA49156  14.768   4.857   5.085 -0.1299  0.2165  0.0630
29623ION     NA49157  18.358   6.322   9.675 -0.1372  0.2835  0.0797
29624ION     NA49158  12.989  13.977   2.748  0.2032 -0.2375 -0.2150
29625ION     NA49159   7.784   4.092  13.083  0.2572 -0.2101 -0.3143
29626ION     NA49160  13.942   6.097  12.064  0.2699 -0.0843 -0.2418
29627ION     NA49161   9.454  10.466   4.646 -0.0383 -0.3802 -0.2487
29628ION     NA49162   3.331  17.515  10.047  0.0161 -0.2224  0.0563
29629ION     NA49163  10.973  11.322   5.066  0.1927 -0.1605  0.2648
29630ION     NA49164   0.080   8.201   9.826  0.4505 -0.1034 -0.0421
29631ION     NA49165  12.412  16.414   5.176  0.0502  0.0947 -0.2791
29632ION     NA49166   3.059   7.009   5.171 -0.1568  0.1649 -0.0917
29633ION     NA49167   3.577  10.869  11.571  0.1675 -0.3098  0.1320
29634ION     NA49168  15.987  12.344   4.444  0.2107 -0.0162  0.1246
29635ION     NA49169   0.938   8.867   4.953 -0.2707  0.0661  0.1945
29636ION     NA49170  14.580   8.880   9.515 -0.0317  0.3009  0.2264
29637ION     NA49171  13.566   7.443   4.977  0.2700 -0.3321  0.0115
29638ION     NA49172  14.347   3.370   9.528  0.0492  0.0638  0.0527
29639ION     NA49173   1.598   7.449   9.994 -0.1863 -0.1268 -0.2767
29640ION     NA49174   6.785  15.036   1.076  0.0890  0.0004 -0.1380
29641ION     NA49175  12.394   8.898  12.673  0.4497 -0.1217 -0.2080
29642ION     NA49176  13.592  17.943   5.262 -0.4919 -0.0819  0.0035
29643ION     NA49177   1.010  11.547   2.243 -0.0673  0.0335 -0.1249
29644ION     NA49178  17.079  10.579   1.149  0.0984 -0.0674 -0.0322
29645ION     NA49179  13.604   6.823  12.598  0.1477  0.0492 -0.1829
29646ION     NA49180   3.160  15.283   4.388  0.1274  0.3289  0.1101
29647ION     NA49181   4.464  10.392   1.679  0.1764  0.0821  0.0716
29648ION     NA49182   0.191  11.565   0.321  0.2272  0.1667 -0.1521
29649ION     NA49183   1.810  16.344   2.204  0.0531 -0.2284  0.1671
29650ION     NA49184  17.827   7.683  12.126  0.0683 -0.0035  0.1621
29651ION     NA49185  18.897   1.209   4.579  0.0051  0.2191  0.0829
29652ION     NA49186  13.346   9.172  11.803  0.0876  0.0943  0.2468
29653ION     NA49187  16.861   3.274   4.865 -0.0351  0.0049 -0.1201
29654ION     NA49188  13.426  15.854  12.013 -0.0055 -0.0721 -0.1487
29655ION     NA49189  18.163   9.697   2.326  0.1098  0.0924  0.0081
29656ION     NA49190  11.240  10.656  14.141 -0.0805 -0.1155 -0.2761
29657ION     NA49191  10.714   6.408  11.952 -0.0436 -0.1343  0.1187
29658ION     NA49192   4.340   2.731   4.915  0.2441  0.0379  0.1377
29659ION     NA49193  12.980   3.159   5.145 -0.3145  0.2380  0.1542
29660ION     NA49194  12.438  13.354   3.475  0.2707 -0.3831  0.2040
29661ION     NA49195   9.635  13.766  10.015  0.0740 -0.1583  0.3342
29662ION     NA49196   0.491   9.255   3.156  0.2657 -0.2780 -0.0296
29663ION     NA49197   7.807  13.606   3.030  0.3087 -0.0770  0.0548
29664ION     NA49198   6.953   9.675   3.319 -0.0365  0.0537  0.0633
29665ION     NA49199   2.228   8.457  11.442  0.0067  0.0662 -0.1620
29666ION     NA49200  15.461  18.763  10.083  0.1186 -0.3454 -0.2774
29667ION     NA49201  17.089   2.699   2.948 -0.0977  0.0385 -0.0848
29668ION     NA49202   1.698  11.505   5.099  0.1849 -0.0976 -0.1146
29669ION     NA49203  15.081   8.709   2.199  0.3624  0.2020 -0.0407
29670ION     NA49204   2.201  13.010   2.868 -0.0117 -0.1080 -0.0032
29671ION     NA49205  12.008  13.261  11.928 -0.3485  0.1672  0.1103
29672ION     NA49206   3.707  14.351   0.976 -0.0260 -0.0523  0.3091
29673ION     NA49207   0.929   2.401   9.626  0.0493  0.1321  0.3196
29674ION     NA49208  17.596   0.908   4.152 -0.0603  0.0849 -0.1175
29675ION     NA49209   1.705  15.032   5.160  0.0034  0.1715 -0.1132
29676ION     NA49210   9.752  17.879  10.280  0.0766  0.1219  0.3172
29677ION     NA49211  18.698   3.589   4.637 -0.1414 -0.0674  0.0173
29678ION     NA49212   2.547   5.532   5.143 -0.0426  0.1476  0.0052
29679ION     NA49213   0.122  10.255   4.733 -0.0689  0.2270  0.2328
29680ION     NA49214   9.159   0.995   4.189 -0.2540  0.0641  0.0364
29681ION     NA49215   8.356   0.887   5.002 -0.4450 -0.1622 -0.0136
29682ION     NA49216   1.386   5.863   1.133  0.1707 -0.0171  0.1848
29683ION     NA49217   1.765  17.231  14.156 -0.0411 -0.0478 -0.2019
29684ION     NA49218   2.357   5.581  12.984 -0.0927  0.3307  0.2204
29685ION     NA49219   5.144  17.152  10.052  0.2767  0.1151 -0.2287
29686ION     NA49220   1.763   8.346  10.208 -0.1937 -0.2257  0.0773
29687ION     NA49221  15.364   5.396   0.954 -0.0884 -0.2340 -0.1479
29688ION     NA49222   4.260   7.765   2.509 -0.3115 -0.0941 -0.2514
29689ION     NA49223   9.591  13.305   5.109 -0.1204 -0.2041  0.2341
29690ION     NA49224   0.639   8.917   0.897  0.1650 -0.0431 -0.0430
29691ION     NA49225   5.020   3.672   4.055 -0.2328 -0.2896  0.0119
29692ION     NA49226  11.452   5.648  11.648  0.0243 -0.4372  0.0568
29693ION     NA49227  14.548   5.009  11.652 -0.1886  0.3802  0.0359
29694ION     NA49228   7.776   9.386   3.645 -0.0929  0.0136 -0.0815
29695ION     NA49229   8.592   9.717  10.050  0.0858  0.2200  0.4591
29696ION     NA49230   4.692  13.276  10.319 -0.1936 -0.3618  0.0226
29697ION     NA49231  12.092   9.096   0.422 -0.3066 -0.2134 -0.0948
29698ION     NA49232  10.131  10.209  13.804  0.0985 -0.2754  0.0022
29699ION     NA49233  11.812  10.916   4.855  0.2211 -0.0581  0.1828
29700ION     NA49234   3.017   4.065   9.877 -0.0012  0.1374 -0.1928
29701ION     NA49235  18.875  17.691  10.189 -0.2477  0.1961 -0.0833
29702ION     NA49236  14.488   6.353  10.092 -0.3738 -0.0762  0.1183
29703ION     NA49237   1.504  13.670   5.207  0.2197 -0.1200 -0.1017
29704ION     NA49238   5.747  11.799  14.606 -0.1898  0.0005 -0.0029
29705ION     NA49239   4.457   7.645   3.945  0.5305  0.0072 -0.3730
29706ION     NA49240   9.675   2.231   9.968  0.2164 -0.1129  0.1355
29707ION     NA49241  18.495  15.278  10.023  0.2925  0.0329  0.3533
29708ION     NA49242   9.517   4.287   1.514  0.1302  0.0585  0.3951
29709ION     NA49243   8.824  14.836  14.435 -0.0016 -0.1414 -0.0671
29710ION     NA49244  17.715  12.235   2.632  0.4475 -0.3536 -0.2178
29711ION     NA49245  15.115  13.981   0.973 -0.2478 -0.1351 -0.1049
29712ION     NA49246   3.416   5.688  10.010 -0.3545  0.0741  0.0867
29713ION     NA49247   5.626   6.850   4.876 -0.0387 -0.4091  0.1434
29714ION     NA49248   4.142  14.185   2.028  0.0283  0.1226 -0.3154
29715ION     NA49249  17.518   8.669   9.866 -0.2969 -0.2819  0.0531
29716ION     NA49250  18.914   1.092   9.552 -0.4390  0.0830 -0.0416
29717ION     NA49251  15.963  14.807   4.820  0.0904 -0.1413 -0.1748
29718ION     NA49252   8.276   2.642   0.943 -0.0196  0.2150  0.1624
29719ION     NA49253  11.010  15.963  11.126 -0.0806  0.1095 -0.1807
29720ION     NA49254  12.983   6.241   9.786 -0.2208  0.1633 -0.1977
29721ION     NA49255  12.244  16.578  10.228  0.2198 -0.3130 -0.1322
29722ION     NA49256   1.595   6.248   9.874  0.0274  0.1404  0.0834
29723ION     NA49257  13.092  11.004  10.222 -0.2889 -0.1020  0.1403
29724ION     NA49258  16.598  11.726   9.869  0.0416  0.2075 -0.1650
29725ION     NA49259   0.837  15.304   4.995  0.1319  0.2290 -0.2227
29726ION     NA49260  13.416  12.525   4.926  0.1364 -0.2039 -0.2296
29727ION     NA49261   1.525   6.196   4.665 -0.1545 -0.0752  0.2604
29728ION     NA49262   3.613   9.237  10.221 -0.1770 -0.0206  0.2570
29729ION     NA49263   8.085   4.282   5.065 -0.1185  0.1975  0.1720
29730ION     NA49264  15.461  15.867   5.131 -0.2712  0.1329 -0.1552
29731ION     NA49265   0.950  11.729   5.046  0.2074 -0.1834 -0.0845
29732ION     NA49266  17.937  10.553   1.663 -0.1943  0.3017 -0.1556
29733ION     NA49267  15.034  10.192   0.956 -0.0701 -0.1214 -0.2550
29734ION     NA49268  18.070  10.019  14.228 -0.2080  0.2025 -0.2539
29735ION     NA49269   5.563   6.511   2.108 -0.2292  0.2671 -0.0505
29736ION     NA49270  17.395  17.712   5.248 -0.1949  0.1241  0.1032
29737ION     NA49271   5.044  18.101  10.077 -0.3323 -0.3290 -0.1934
29738ION     NA49272  18.173  10.658   4.384 -0.1328  0.2269 -0.1032
29739ION     NA49273  17.007   0.094   9.707  0.0327 -0.1943  0.1144
29740ION     NA49274   1.736  18.489  10.679 -0.1019  0.3403  0.0853
29741ION     NA49275  18.462   9.042   4.679 -0.3681  0.1790  0.1036
29742ION     NA49276   7.620  17.061  10.298 -0.1503 -0.1211 -0.1869
29743ION     NA49277   5.119   2.258  12.156  0.0136 -0.1659  0.0201
29744ION     NA49278  10.559   3.384  10.121  0.1029 -0.2626  0.1941
29745ION     NA49279  14.096   1.693   9.995  0.0365  0.0676 -0.0048
29746ION     NA49280  18.313   5.284  14.512 -0.2317  0.1728 -0.1796
29747ION     NA49281   0.242   2.538  13.265 -0.0856  0.0514 -0.2208
29748ION     NA49282   1.458   2.943  13.662  0.0026  0.0027  0.0111
29749ION     NA49283   0.625   1.408   9.715 -0.2901  0.0871 -0.2149
29750ION     NA49284  19.049  11.565   5.029  0.4493  0.0660  0.3748
29751ION     NA49285  14.647  18.093   5.173 -0.0774 -0.0580 -0.1086
29752ION     NA49286   5.809   9.845   9.716 -0.1700  0.0134 -0.0761
29753ION     NA49287  15.341   6.616   9.937  0.0375 -0.0605 -0.1251
29754ION     NA49288   3.652   3.919  14.544  0.0391  0.0761 -0.1965
29755ION     NA49289  11.839  17.381  10.047  0.1595 -0.0659 -0.3158
29756ION     NA49290  17.676   0.083   4.742 -0.1833  0.4966  0.0817
29757ION     NA49291   9.896   6.124   5.238  0.1649 -0.0740  0.4451
29758ION     NA49292  12.659  18.383   9.779  0.0601 -0.0366  0.4749
29759ION     NA49293   1.057   8.113  12.872 -0.0800 -0.0740  0.0401
29760ION     NA49294   6.396   8.441   5.258 -0.1421  0.2548 -0.2180
29761ION     NA49295   0.408   0.525   5.032  0.0856 -0.1676 -0.2934
29762ION     NA49296   1.565  14.453  14.531  0.1645 -0.0644 -0.2583
29763ION     NA49297   3.237   1.842  11.952  0.0214 -0.1498  0.1156
29764ION     NA49298   0.172  18.239   0.723  0.1186  0.0425 -0.2292
29765ION     NA49299   4.414  10.142  12.280  0.0527 -0.0780  0.0136
29766ION     NA49300  12.047   0.107  12.421  0.0533 -0.2455  0.0052
29767ION     NA49301   5.359   7.758   4.741  0.1650  0.0231  0.3326
29768ION     NA49302  13.859  18.712  13.878 -0.0353  0.1101 -0.0430
29769ION     NA49303  17.579  12.467   5.145  0.0533 -0.2237 -0.1446
  19.12223  19.12223  14.84389
